<event>
 5    1  0.1855960E+000  0.9689988E+02  0.7546771E-02  0.1286954E+00
         21   -1    0    0  503  502  0.00000000000E+00  0.00000000000E+00  0.26204214364E+03  0.26204214364E+03  0.00000000000E+00 0.  1.
         21   -1    0    0  501  503 -0.00000000000E+00 -0.00000000000E+00 -0.51362800560E+02  0.51362800560E+02  0.00000000000E+00 0. -1.
         24    1    1    2    0    0  0.72675811948E+02  0.11357404591E+02  0.44534173940E+02  0.11773390711E+03  0.80419002446E+02 0. -1.
          1    1    1    2  501    0 -0.55481210481E+02 -0.26879151485E+02  0.56559137930E+02  0.83663549915E+02  0.00000000000E+00 0. -1.
         -2    1    1    2    0  502 -0.17194601467E+02  0.15521746893E+02  0.10958603121E+03  0.11200748717E+03  0.00000000000E+00 0.  1.
<mgrwt>
<rscale>  2 0.96899881E+02</rscale>
<asrwt>0</asrwt>
<pdfrwt beam="1">  1       21 0.40314175E-01 0.96899881E+02</pdfrwt>
<pdfrwt beam="2">  1       21 0.79019695E-02 0.96899881E+02</pdfrwt>
<totfact> 0.72974271E+05</totfact>
</mgrwt>
</event>
<event>
 5    1  0.1855960E+000  0.1003331E+03  0.7546771E-02  0.1279597E+00
         21   -1    0    0  503  502  0.00000000000E+00  0.00000000000E+00  0.54420841613E+02  0.54420841613E+02  0.00000000000E+00 0. -1.
         21   -1    0    0  501  503 -0.00000000000E+00 -0.00000000000E+00 -0.23446320715E+03  0.23446320715E+03  0.00000000000E+00 0. -1.
         24    1    1    2    0    0  0.48999520971E+02  0.52457463116E+02 -0.34473010900E+02  0.11317394986E+03  0.80419002446E+02 0.  0.
          1    1    1    2  501    0  0.12252147841E+02 -0.20247215411E+02 -0.66748644953E+02  0.70819816871E+02  0.00000000000E+00 0. -1.
         -2    1    1    2    0  502 -0.61251668812E+02 -0.32210247705E+02 -0.78820709679E+02  0.10489028203E+03  0.00000000000E+00 0.  1.
<mgrwt>
<rscale>  2 0.10033306E+03</rscale>
<asrwt>0</asrwt>
<pdfrwt beam="1">  1       21 0.83724373E-02 0.10033306E+03</pdfrwt>
<pdfrwt beam="2">  1       21 0.36071262E-01 0.10033306E+03</pdfrwt>
<totfact> 0.82307274E+05</totfact>
</mgrwt>
</event>
<event>
 5    1  0.1855960E+000  0.8037915E+02  0.7546771E-02  0.1327979E+00
         21   -1    0    0  503  502  0.00000000000E+00  0.00000000000E+00  0.65764896415E+02  0.65764896415E+02  0.00000000000E+00 0. -1.
         21   -1    0    0  501  503 -0.00000000000E+00 -0.00000000000E+00 -0.13603042471E+03  0.13603042471E+03  0.00000000000E+00 0. -1.
         24    1    1    2    0    0  0.58246324863E+02  0.62359367126E+01 -0.13754894189E+02  0.10043870935E+03  0.80419002446E+02 0. -1.
          1    1    1    2  501    0 -0.28610414038E+02  0.59497513862E+01 -0.62282751458E+02  0.68797503314E+02  0.00000000000E+00 0. -1.
         -2    1    1    2    0  502 -0.29635910826E+02 -0.12185688099E+02  0.57721173575E+01  0.32559108460E+02  0.00000000000E+00 0.  1.
<mgrwt>
<rscale>  2 0.80379146E+02</rscale>
<asrwt>0</asrwt>
<pdfrwt beam="1">  1       21 0.10117677E-01 0.80379146E+02</pdfrwt>
<pdfrwt beam="2">  1       21 0.20927757E-01 0.80379146E+02</pdfrwt>
<totfact> 0.16549553E+06</totfact>
</mgrwt>
</event>
<event>
 5    1  0.1855960E+000  0.8232241E+02  0.7546771E-02  0.1322587E+00
         21   -1    0    0  501  502  0.00000000000E+00  0.00000000000E+00  0.51787800580E+03  0.51787800580E+03  0.00000000000E+00 0. -1.
         21   -1    0    0  502  503 -0.00000000000E+00 -0.00000000000E+00 -0.77744631296E+02  0.77744631296E+02  0.00000000000E+00 0.  1.
         24    1    1    2    0    0 -0.14316070184E+02  0.34367243791E+02  0.20347921363E+02  0.90924755537E+02  0.80419002446E+02 0.  0.
          1    1    1    2  501    0  0.35975110958E+02 -0.39847469277E+02  0.45762060233E+03  0.46075877104E+03  0.00000000000E+00 0. -1.
         -2    1    1    2    0  503 -0.21659040774E+02  0.54802254868E+01 -0.37835149190E+02  0.43939110515E+02  0.00000000000E+00 0.  1.
<mgrwt>
<rscale>  2 0.82322414E+02</rscale>
<asrwt>0</asrwt>
<pdfrwt beam="1">  1       21 0.79673537E-01 0.82322414E+02</pdfrwt>
<pdfrwt beam="2">  1       21 0.11960713E-01 0.82322414E+02</pdfrwt>
<totfact> 0.86393526E+04</totfact>
</mgrwt>
</event>
<event>
 5    1  0.1855960E+000  0.1739737E+03  0.7546771E-02  0.1173766E+00
         21   -1    0    0  501  502  0.00000000000E+00  0.00000000000E+00  0.28245591415E+03  0.28245591415E+03  0.00000000000E+00 0. -1.
         21   -1    0    0  502  503 -0.00000000000E+00 -0.00000000000E+00 -0.64676845913E+03  0.64676845913E+03  0.00000000000E+00 0.  1.
         24    1    1    2    0    0 -0.10751069544E+03  0.11601306989E+03 -0.15070145790E+03  0.23279975813E+03  0.80419002446E+02 0.  1.
          1    1    1    2  501    0  0.40168916912E+02 -0.47450319237E+01  0.23031435542E+03  0.23383917449E+03  0.00000000000E+00 0. -1.
         -2    1    1    2    0  503  0.67341778525E+02 -0.11126803796E+03 -0.44392544250E+03  0.46258544066E+03  0.00000000000E+00 0.  1.
<mgrwt>
<rscale>  2 0.17397367E+03</rscale>
<asrwt>0</asrwt>
<pdfrwt beam="1">  1       21 0.43454756E-01 0.17397367E+03</pdfrwt>
<pdfrwt beam="2">  1       21 0.99502840E-01 0.17397367E+03</pdfrwt>
<totfact> 0.42953381E+03</totfact>
</mgrwt>
</event>
<event>
 5    1  0.1855960E+000  0.1010275E+03  0.7546771E-02  0.1278150E+00
         21   -1    0    0  503  502  0.00000000000E+00  0.00000000000E+00  0.19867782148E+02  0.19867782148E+02  0.00000000000E+00 0. -1.
         21   -1    0    0  501  503 -0.00000000000E+00 -0.00000000000E+00 -0.61026629206E+03  0.61026629206E+03  0.00000000000E+00 0. -1.
         24    1    1    2    0    0  0.21008866613E+02  0.45759215295E+02 -0.19814281336E+03  0.21968857208E+03  0.80419002446E+02 0. -1.
          1    1    1    2  501    0 -0.30597050765E+02 -0.72539576277E+02 -0.35470684389E+03  0.36333884288E+03  0.00000000000E+00 0. -1.
         -2    1    1    2    0  502  0.95881841521E+01  0.26780360982E+02 -0.37548852660E+02  0.47106659251E+02  0.00000000000E+00 0.  1.
<mgrwt>
<rscale>  2 0.10102749E+03</rscale>
<asrwt>0</asrwt>
<pdfrwt beam="1">  1       21 0.30565821E-02 0.10102749E+03</pdfrwt>
<pdfrwt beam="2">  1       21 0.93887116E-01 0.10102749E+03</pdfrwt>
<totfact> 0.59154326E+05</totfact>
</mgrwt>
</event>
<event>
 5    1  0.1855960E+000  0.1060837E+03  0.7546771E-02  0.1267999E+00
         21   -1    0    0  501  502  0.00000000000E+00  0.00000000000E+00  0.37025582265E+03  0.37025582265E+03  0.00000000000E+00 0. -1.
         21   -1    0    0  502  503 -0.00000000000E+00 -0.00000000000E+00 -0.36347957606E+03  0.36347957606E+03  0.00000000000E+00 0.  1.
         24    1    1    2    0    0  0.42281719458E+02  0.90735597908E+01 -0.16594386674E+03  0.18940606155E+03  0.80419002446E+02 0.  1.
          1    1    1    2  501    0  0.98612152748E+01 -0.52242430707E+02  0.35028596704E+03  0.35429757808E+03  0.00000000000E+00 0. -1.
         -2    1    1    2    0  503 -0.52142934732E+02  0.43168870916E+02 -0.17756585370E+03  0.19003175908E+03  0.00000000000E+00 0.  1.
<mgrwt>
<rscale>  2 0.10608372E+03</rscale>
<asrwt>0</asrwt>
<pdfrwt beam="1">  1       21 0.56962434E-01 0.10608372E+03</pdfrwt>
<pdfrwt beam="2">  1       21 0.55919935E-01 0.10608372E+03</pdfrwt>
<totfact> 0.93793257E+03</totfact>
</mgrwt>
</event>
<event>
 5    1  0.1855960E+000  0.1027743E+03  0.7546771E-02  0.1274568E+00
         21   -1    0    0  501  502  0.00000000000E+00  0.00000000000E+00  0.90686346626E+02  0.90686346626E+02  0.00000000000E+00 0. -1.
         21   -1    0    0  502  503 -0.00000000000E+00 -0.00000000000E+00 -0.19973329674E+03  0.19973329674E+03  0.00000000000E+00 0. -1.
         24    1    1    2    0    0 -0.28944240912E+02 -0.30448762771E+02 -0.92572525345E+02  0.12962169818E+03  0.80419002446E+02 0. -1.
          1    1    1    2  501    0 -0.40735538100E+02  0.72367243284E+01  0.47787150046E+02  0.63208907227E+02  0.00000000000E+00 0. -1.
         -2    1    1    2    0  503  0.69679779012E+02  0.23212038442E+02 -0.64261574810E+02  0.97589037954E+02  0.00000000000E+00 0.  1.
<mgrwt>
<rscale>  2 0.10277434E+03</rscale>
<asrwt>0</asrwt>
<pdfrwt beam="1">  1       21 0.13951746E-01 0.10277434E+03</pdfrwt>
<pdfrwt beam="2">  1       21 0.30728199E-01 0.10277434E+03</pdfrwt>
<totfact> 0.46004589E+05</totfact>
</mgrwt>
</event>
<event>
 5    1  0.1855960E+000  0.2126691E+03  0.7546771E-02  0.1139470E+00
         21   -1    0    0  503  502  0.00000000000E+00  0.00000000000E+00  0.86606515986E+02  0.86606515986E+02  0.00000000000E+00 0.  1.
         21   -1    0    0  501  503 -0.00000000000E+00 -0.00000000000E+00 -0.13212841419E+04  0.13212841419E+04  0.00000000000E+00 0. -1.
         24    1    1    2    0    0 -0.13290485749E+03  0.46064659508E+02 -0.19689345474E+03  0.25499000466E+03  0.80419002446E+02 0.  1.
          1    1    1    2  501    0 -0.62524486141E+02 -0.22573563002E+02 -0.92229072707E+03  0.92468322270E+03  0.00000000000E+00 0. -1.
         -2    1    1    2    0  502  0.19542934363E+03 -0.23491096506E+02 -0.11549344412E+03  0.22821743054E+03  0.00000000000E+00 0.  1.
<mgrwt>
<rscale>  2 0.21266907E+03</rscale>
<asrwt>0</asrwt>
<pdfrwt beam="1">  1       21 0.13324079E-01 0.21266907E+03</pdfrwt>
<pdfrwt beam="2">  1       21 0.20327448E+00 0.21266907E+03</pdfrwt>
<totfact> 0.61125790E+03</totfact>
</mgrwt>
</event>
<event>
 5    1  0.1855960E+000  0.7231665E+02  0.7546771E-02  0.1352388E+00
         21   -1    0    0  501  502  0.00000000000E+00  0.00000000000E+00  0.27345350006E+03  0.27345350006E+03  0.00000000000E+00 0. -1.
         21   -1    0    0  502  503 -0.00000000000E+00 -0.00000000000E+00 -0.19529245620E+02  0.19529245620E+02  0.00000000000E+00 0.  1.
         24    1    1    2    0    0 -0.12264023051E+02 -0.13172383289E+02  0.14240023429E+03  0.16452647393E+03  0.80419002446E+02 0. -1.
          1    1    1    2  501    0 -0.23192040407E+02  0.13366906945E+02  0.62154794617E+02  0.67673949444E+02  0.00000000000E+00 0. -1.
         -2    1    1    2    0  503  0.35456063458E+02 -0.19452365581E+00  0.49369225529E+02  0.60782322305E+02  0.00000000000E+00 0.  1.
<mgrwt>
<rscale>  2 0.72316645E+02</rscale>
<asrwt>0</asrwt>
<pdfrwt beam="1">  1       21 0.42069767E-01 0.72316645E+02</pdfrwt>
<pdfrwt beam="2">  1       21 0.30044995E-02 0.72316645E+02</pdfrwt>
<totfact> 0.33079703E+06</totfact>
</mgrwt>
</event>
<event>
 5    1  0.1855960E+000  0.7830731E+02  0.7546771E-02  0.1333925E+00
         21   -1    0    0  503  502  0.00000000000E+00  0.00000000000E+00  0.32238674312E+03  0.32238674312E+03  0.00000000000E+00 0.  1.
         21   -1    0    0  501  503 -0.00000000000E+00 -0.00000000000E+00 -0.26025331115E+02  0.26025331115E+02  0.00000000000E+00 0. -1.
         24    1    1    2    0    0 -0.64235527367E+01 -0.44125453214E+02  0.89934979258E+02  0.12862283662E+03  0.80419002446E+02 0. -1.
          1    1    1    2  501    0  0.26381571964E+02  0.18696588428E+02  0.46555990327E+02  0.56683419034E+02  0.00000000000E+00 0. -1.
         -2    1    1    2    0  502 -0.19958019227E+02  0.25428864786E+02  0.15987044242E+03  0.16310581858E+03  0.00000000000E+00 0.  1.
<mgrwt>
<rscale>  2 0.78307310E+02</rscale>
<asrwt>0</asrwt>
<pdfrwt beam="1">  1       21 0.49597958E-01 0.78307310E+02</pdfrwt>
<pdfrwt beam="2">  1       21 0.40038973E-02 0.78307310E+02</pdfrwt>
<totfact> 0.14955767E+06</totfact>
</mgrwt>
</event>
<event>
 5    1  0.1855960E+000  0.9490211E+02  0.7546771E-02  0.1291397E+00
         21   -1    0    0  503  502  0.00000000000E+00  0.00000000000E+00  0.14174659453E+04  0.14174659453E+04  0.00000000000E+00 0.  1.
         21   -1    0    0  501  503 -0.00000000000E+00 -0.00000000000E+00 -0.13926429957E+02  0.13926429957E+02  0.00000000000E+00 0.  1.
         24    1    1    2    0    0 -0.14844757986E+02 -0.76045380258E+02  0.51146024674E+03  0.52350937589E+03  0.80419002446E+02 0.  1.
          1    1    1    2  501    0  0.13024231122E+02  0.40537659837E+02  0.52700527337E+02  0.67751590704E+02  0.00000000000E+00 0. -1.
         -2    1    1    2    0  502  0.18205268636E+01  0.35507720421E+02  0.83937874124E+03  0.84013140864E+03  0.00000000000E+00 0.  1.
<mgrwt>
<rscale>  2 0.94902110E+02</rscale>
<asrwt>0</asrwt>
<pdfrwt beam="1">  1       21 0.21807157E+00 0.94902110E+02</pdfrwt>
<pdfrwt beam="2">  1       21 0.21425288E-02 0.94902110E+02</pdfrwt>
<totfact> 0.12193079E+05</totfact>
</mgrwt>
</event>
<event>
 5    1  0.1855960E+000  0.1312469E+03  0.7546771E-02  0.1225617E+00
         21   -1    0    0  501  502  0.00000000000E+00  0.00000000000E+00  0.19737711000E+03  0.19737711000E+03  0.00000000000E+00 0. -1.
         21   -1    0    0  502  503 -0.00000000000E+00 -0.00000000000E+00 -0.15767134740E+03  0.15767134740E+03  0.00000000000E+00 0.  1.
         24    1    1    2    0    0  0.32466857217E+02  0.75566885523E+02  0.81155802584E+02  0.14077617431E+03  0.80419002446E+02 0.  0.
          1    1    1    2  501    0 -0.69447110131E+02 -0.73058981398E+01  0.56118700114E+02  0.89585633646E+02  0.00000000000E+00 0. -1.
         -2    1    1    2    0  503  0.36980252914E+02 -0.68260987383E+02 -0.97568740097E+02  0.12468664944E+03  0.00000000000E+00 0.  1.
<mgrwt>
<rscale>  2 0.13124687E+03</rscale>
<asrwt>0</asrwt>
<pdfrwt beam="1">  1       21 0.30365709E-01 0.13124687E+03</pdfrwt>
<pdfrwt beam="2">  1       21 0.24257130E-01 0.13124687E+03</pdfrwt>
<totfact> 0.17006500E+05</totfact>
</mgrwt>
</event>
<event>
 5    1  0.1855960E+000  0.1267169E+03  0.7546771E-02  0.1232410E+00
         21   -1    0    0  501  502  0.00000000000E+00  0.00000000000E+00  0.24893923383E+03  0.24893923383E+03  0.00000000000E+00 0. -1.
         21   -1    0    0  502  503 -0.00000000000E+00 -0.00000000000E+00 -0.85122310756E+02  0.85122310756E+02  0.00000000000E+00 0.  1.
         24    1    1    2    0    0  0.84405563742E+02 -0.33911694732E+02  0.71098325323E+02  0.14070000017E+03  0.80419002446E+02 0.  1.
          1    1    1    2  501    0  0.15493342457E+02 -0.14309899674E+02  0.78787759434E+02  0.81561804331E+02  0.00000000000E+00 0. -1.
         -2    1    1    2    0  503 -0.99898906198E+02  0.48221594406E+02  0.13930838319E+02  0.11179974008E+03  0.00000000000E+00 0.  1.
<mgrwt>
<rscale>  2 0.12671688E+03</rscale>
<asrwt>0</asrwt>
<pdfrwt beam="1">  1       21 0.38298343E-01 0.12671688E+03</pdfrwt>
<pdfrwt beam="2">  1       21 0.13095740E-01 0.12671688E+03</pdfrwt>
<totfact> 0.33401358E+05</totfact>
</mgrwt>
</event>
<event>
 5    1  0.1855960E+000  0.8803452E+02  0.7546771E-02  0.1307682E+00
         21   -1    0    0  501  502  0.00000000000E+00  0.00000000000E+00  0.23552102104E+03  0.23552102104E+03  0.00000000000E+00 0.  1.
         21   -1    0    0  502  503 -0.00000000000E+00 -0.00000000000E+00 -0.54565391684E+02  0.54565391684E+02  0.00000000000E+00 0.  1.
         24    1    1    2    0    0 -0.15513129821E+02  0.27571124085E+02  0.57237382867E+02  0.10365403047E+03  0.80419002446E+02 0.  0.
          1    1    1    2  501    0 -0.18444458516E+02 -0.47027152678E+02  0.13627074121E+03  0.14533226087E+03  0.00000000000E+00 0. -1.
         -2    1    1    2    0  503  0.33957588337E+02  0.19456028593E+02 -0.12552494723E+02  0.41100121387E+02  0.00000000000E+00 0.  1.
<mgrwt>
<rscale>  2 0.88034523E+02</rscale>
<asrwt>0</asrwt>
<pdfrwt beam="1">  1       21 0.36234003E-01 0.88034523E+02</pdfrwt>
<pdfrwt beam="2">  1       21 0.83946758E-02 0.88034523E+02</pdfrwt>
<totfact> 0.81100996E+05</totfact>
</mgrwt>
</event>
<event>
 5    1  0.1855960E+000  0.1039901E+03  0.7546771E-02  0.1272122E+00
         21   -1    0    0  501  502  0.00000000000E+00  0.00000000000E+00  0.51915423103E+02  0.51915423103E+02  0.00000000000E+00 0.  1.
         21   -1    0    0  502  503 -0.00000000000E+00 -0.00000000000E+00 -0.26611162985E+03  0.26611162985E+03  0.00000000000E+00 0.  1.
         24    1    1    2    0    0  0.48589033446E+02 -0.55506643554E+02 -0.72594690786E+02  0.13106901516E+03  0.80419002446E+02 0.  1.
          1    1    1    2  501    0 -0.21377953341E+02 -0.13081392242E+02  0.23742290879E+01  0.25174921565E+02  0.00000000000E+00 0. -1.
         -2    1    1    2    0  503 -0.27211080105E+02  0.68588035795E+02 -0.14397574505E+03  0.16178311623E+03  0.00000000000E+00 0.  1.
<mgrwt>
<rscale>  2 0.10399008E+03</rscale>
<asrwt>0</asrwt>
<pdfrwt beam="1">  1       21 0.79869881E-02 0.10399008E+03</pdfrwt>
<pdfrwt beam="2">  1       21 0.40940251E-01 0.10399008E+03</pdfrwt>
<totfact> 0.69510965E+05</totfact>
</mgrwt>
</event>
<event>
 5    1  0.1855960E+000  0.8311478E+02  0.7546771E-02  0.1320438E+00
         21   -1    0    0  501  502  0.00000000000E+00  0.00000000000E+00  0.27022661694E+03  0.27022661694E+03  0.00000000000E+00 0. -1.
         21   -1    0    0  502  503 -0.00000000000E+00 -0.00000000000E+00 -0.30186981419E+02  0.30186981419E+02  0.00000000000E+00 0. -1.
         24    1    1    2    0    0 -0.62784242937E+01  0.29752938978E+02  0.80330568993E+02  0.11766423526E+03  0.80419002446E+02 0. -1.
          1    1    1    2  501    0 -0.18118565904E+01 -0.54339722940E+02  0.14008954763E+03  0.15027032198E+03  0.00000000000E+00 0. -1.
         -2    1    1    2    0  503  0.80902808841E+01  0.24586783962E+02  0.19619518904E+02  0.32479041125E+02  0.00000000000E+00 0.  1.
<mgrwt>
<rscale>  2 0.83114776E+02</rscale>
<asrwt>0</asrwt>
<pdfrwt beam="1">  1       21 0.41573324E-01 0.83114776E+02</pdfrwt>
<pdfrwt beam="2">  1       21 0.46441512E-02 0.83114776E+02</pdfrwt>
<totfact> 0.16725287E+06</totfact>
</mgrwt>
</event>
<event>
 5    1  0.1855960E+000  0.9365607E+02  0.7546771E-02  0.1294232E+00
         21   -1    0    0  501  502  0.00000000000E+00  0.00000000000E+00  0.29105102200E+03  0.29105102200E+03  0.00000000000E+00 0.  1.
         21   -1    0    0  502  503 -0.00000000000E+00 -0.00000000000E+00 -0.44038811884E+02  0.44038811884E+02  0.00000000000E+00 0. -1.
         24    1    1    2    0    0 -0.34877634654E+02  0.20620050055E+02  0.20394221389E+03  0.22293783534E+03  0.80419002446E+02 0.  1.
          1    1    1    2  501    0  0.64083390350E+02 -0.22695499094E+02  0.46945139713E+02  0.82617266601E+02  0.00000000000E+00 0. -1.
         -2    1    1    2    0  503 -0.29205755696E+02  0.20754490399E+01 -0.38751434828E+01  0.29534731953E+02  0.00000000000E+00 0.  1.
<mgrwt>
<rscale>  2 0.93656073E+02</rscale>
<asrwt>0</asrwt>
<pdfrwt beam="1">  1       21 0.44777079E-01 0.93656073E+02</pdfrwt>
<pdfrwt beam="2">  1       21 0.67752020E-02 0.93656073E+02</pdfrwt>
<totfact> 0.76847568E+05</totfact>
</mgrwt>
</event>
<event>
 5    1  0.1855960E+000  0.9910903E+02  0.7546771E-02  0.1282181E+00
         21   -1    0    0  501  502  0.00000000000E+00  0.00000000000E+00  0.16607289552E+02  0.16607289552E+02  0.00000000000E+00 0.  1.
         21   -1    0    0  502  503 -0.00000000000E+00 -0.00000000000E+00 -0.72546218105E+03  0.72546218105E+03  0.00000000000E+00 0. -1.
         24    1    1    2    0    0 -0.57133781346E+02  0.29073253824E+02 -0.31758948091E+03  0.33382602864E+03  0.80419002446E+02 0. -1.
          1    1    1    2  501    0  0.10937455028E+02 -0.45153892029E+02 -0.75047015464E+02  0.88264128715E+02  0.00000000000E+00 0. -1.
         -2    1    1    2    0  503  0.46196326318E+02  0.16080638205E+02 -0.31621839513E+03  0.31997931325E+03  0.00000000000E+00 0.  1.
<mgrwt>
<rscale>  2 0.99109030E+02</rscale>
<asrwt>0</asrwt>
<pdfrwt beam="1">  1       21 0.25549681E-02 0.99109030E+02</pdfrwt>
<pdfrwt beam="2">  1       21 0.11160954E+00 0.99109030E+02</pdfrwt>
<totfact> 0.52885908E+05</totfact>
</mgrwt>
</event>
<event>
 5    1  0.1855960E+000  0.8392304E+02  0.7546771E-02  0.1318273E+00
         21   -1    0    0  503  502  0.00000000000E+00  0.00000000000E+00  0.65243590999E+01  0.65243590999E+01  0.00000000000E+00 0.  1.
         21   -1    0    0  501  503 -0.00000000000E+00 -0.00000000000E+00 -0.14391271636E+04  0.14391271636E+04  0.00000000000E+00 0.  1.
         24    1    1    2    0    0 -0.18581564288E+02 -0.61681598376E+02 -0.11624674140E+04  0.11670251063E+04  0.80419002446E+02 0.  1.
          1    1    1    2  501    0  0.93078755172E+01  0.19364126529E+02 -0.13550182482E+03  0.13719457159E+03  0.00000000000E+00 0. -1.
         -2    1    1    2    0  502  0.92736887704E+01  0.42317471847E+02 -0.13463356567E+03  0.14143184483E+03  0.00000000000E+00 0.  1.
<mgrwt>
<rscale>  2 0.83923039E+02</rscale>
<asrwt>0</asrwt>
<pdfrwt beam="1">  1       21 0.10037487E-02 0.83923039E+02</pdfrwt>
<pdfrwt beam="2">  1       21 0.22140393E+00 0.83923039E+02</pdfrwt>
<totfact> 0.39052665E+05</totfact>
</mgrwt>
</event>
<event>
 5    1  0.1855960E+000  0.1333492E+03  0.7546771E-02  0.1222569E+00
         21   -1    0    0  503  502  0.00000000000E+00  0.00000000000E+00  0.14500400720E+03  0.14500400720E+03  0.00000000000E+00 0. -1.
         21   -1    0    0  501  503 -0.00000000000E+00 -0.00000000000E+00 -0.27302619474E+03  0.27302619474E+03  0.00000000000E+00 0.  1.
         24    1    1    2    0    0 -0.92190165705E+02 -0.71477247052E+02  0.30771342288E+02  0.14499005124E+03  0.80419002446E+02 0. -1.
          1    1    1    2  501    0  0.24173339873E+02 -0.27553185195E+01 -0.17000429299E+03  0.17173643113E+03  0.00000000000E+00 0. -1.
         -2    1    1    2    0  502  0.68016825832E+02  0.74232565572E+02  0.11210763156E+02  0.10130371957E+03  0.00000000000E+00 0.  1.
<mgrwt>
<rscale>  2 0.13334923E+03</rscale>
<asrwt>0</asrwt>
<pdfrwt beam="1">  1       21 0.22308309E-01 0.13334923E+03</pdfrwt>
<pdfrwt beam="2">  1       21 0.42004029E-01 0.13334923E+03</pdfrwt>
<totfact> 0.10489904E+05</totfact>
</mgrwt>
</event>
<event>
 5    1  0.1855960E+000  0.8308332E+02  0.7546771E-02  0.1320522E+00
         21   -1    0    0  501  502  0.00000000000E+00  0.00000000000E+00  0.59227022609E+02  0.59227022609E+02  0.00000000000E+00 0. -1.
         21   -1    0    0  502  503 -0.00000000000E+00 -0.00000000000E+00 -0.18403789907E+03  0.18403789907E+03  0.00000000000E+00 0. -1.
         24    1    1    2    0    0  0.26142886176E+02 -0.29502812890E+02 -0.10312025672E+03  0.13658283116E+03  0.80419002446E+02 0.  0.
          1    1    1    2  501    0  0.22252213801E+02  0.79645947620E+01  0.26190303576E+02  0.35277865442E+02  0.00000000000E+00 0. -1.
         -2    1    1    2    0  503 -0.48395099977E+02  0.21538218128E+02 -0.47880923316E+02  0.71404225081E+02  0.00000000000E+00 0.  1.
<mgrwt>
<rscale>  2 0.83083317E+02</rscale>
<asrwt>0</asrwt>
<pdfrwt beam="1">  1       21 0.91118496E-02 0.83083317E+02</pdfrwt>
<pdfrwt beam="2">  1       21 0.28313523E-01 0.83083317E+02</pdfrwt>
<totfact> 0.11305556E+06</totfact>
</mgrwt>
</event>
<event>
 5    1  0.1855960E+000  0.8523034E+02  0.7546771E-02  0.1314831E+00
         21   -1    0    0  501  502  0.00000000000E+00  0.00000000000E+00  0.26871844942E+04  0.26871844942E+04  0.00000000000E+00 0.  1.
         21   -1    0    0  502  503 -0.00000000000E+00 -0.00000000000E+00 -0.48553178500E+01  0.48553178500E+01  0.00000000000E+00 0. -1.
         24    1    1    2    0    0 -0.23885104497E+02  0.24313945047E+02  0.97269556648E+03  0.97660920902E+03  0.80419002446E+02 0.  0.
          1    1    1    2  501    0  0.33304301679E+02  0.19303593026E+02  0.15248345399E+04  0.15253203530E+04  0.00000000000E+00 0. -1.
         -2    1    1    2    0  503 -0.94191971817E+01 -0.43617538073E+02  0.18479906998E+03  0.19011025003E+03  0.00000000000E+00 0.  1.
<mgrwt>
<rscale>  2 0.85230341E+02</rscale>
<asrwt>0</asrwt>
<pdfrwt beam="1">  1       21 0.41341181E+00 0.85230341E+02</pdfrwt>
<pdfrwt beam="2">  1       21 0.74697412E-03 0.85230341E+02</pdfrwt>
<totfact> 0.50942696E+04</totfact>
</mgrwt>
</event>
<event>
 5    1  0.1855960E+000  0.9457802E+02  0.7546771E-02  0.1292129E+00
         21   -1    0    0  501  502  0.00000000000E+00  0.00000000000E+00  0.16033161324E+03  0.16033161324E+03  0.00000000000E+00 0.  1.
         21   -1    0    0  502  503 -0.00000000000E+00 -0.00000000000E+00 -0.57632878608E+02  0.57632878608E+02  0.00000000000E+00 0. -1.
         24    1    1    2    0    0 -0.41278256831E+02 -0.28981270577E+02  0.34085173980E+02  0.10086041627E+03  0.80419002446E+02 0.  0.
          1    1    1    2  501    0  0.34061343966E+02 -0.23418483731E+02  0.23274360701E+02  0.47437289120E+02  0.00000000000E+00 0. -1.
         -2    1    1    2    0  503  0.72169128652E+01  0.52399754307E+02  0.45339199952E+02  0.69666786455E+02  0.00000000000E+00 0.  1.
<mgrwt>
<rscale>  2 0.94578021E+02</rscale>
<asrwt>0</asrwt>
<pdfrwt beam="1">  1       21 0.24666402E-01 0.94578021E+02</pdfrwt>
<pdfrwt beam="2">  1       21 0.88665968E-02 0.94578021E+02</pdfrwt>
<totfact> 0.15413795E+06</totfact>
</mgrwt>
</event>
<event>
 5    1  0.1855960E+000  0.1376815E+03  0.7546771E-02  0.1216483E+00
         21   -1    0    0  503  502  0.00000000000E+00  0.00000000000E+00  0.54942040534E+02  0.54942040534E+02  0.00000000000E+00 0. -1.
         21   -1    0    0  501  503 -0.00000000000E+00 -0.00000000000E+00 -0.39214797674E+03  0.39214797674E+03  0.00000000000E+00 0.  1.
         24    1    1    2    0    0  0.11624061052E+02  0.67385478366E+02 -0.16685213530E+03  0.19744055434E+03  0.80419002446E+02 0.  0.
          1    1    1    2  501    0  0.22350231912E+02  0.46158105301E+02 -0.98501283433E+02  0.11105226873E+03  0.00000000000E+00 0. -1.
         -2    1    1    2    0  502 -0.33974292964E+02 -0.11354358367E+03 -0.71852517472E+02  0.13859719420E+03  0.00000000000E+00 0.  1.
<mgrwt>
<rscale>  2 0.13768155E+03</rscale>
<asrwt>0</asrwt>
<pdfrwt beam="1">  1       21 0.84526214E-02 0.13768155E+03</pdfrwt>
<pdfrwt beam="2">  1       21 0.60330460E-01 0.13768155E+03</pdfrwt>
<totfact> 0.28281695E+05</totfact>
</mgrwt>
</event>
<event>
 5    1  0.1855960E+000  0.7496917E+02  0.7546771E-02  0.1343967E+00
         21   -1    0    0  503  502  0.00000000000E+00  0.00000000000E+00  0.83478038253E+02  0.83478038253E+02  0.00000000000E+00 0. -1.
         21   -1    0    0  501  503 -0.00000000000E+00 -0.00000000000E+00 -0.82825277213E+02  0.82825277213E+02  0.00000000000E+00 0.  1.
         24    1    1    2    0    0 -0.69719556361E+01  0.33323276203E+02  0.22523921002E+02  0.90186428435E+02  0.80419002446E+02 0. -1.
          1    1    1    2  501    0  0.23953686596E+02  0.13601362153E+01 -0.28155431840E+02  0.36991315388E+02  0.00000000000E+00 0. -1.
         -2    1    1    2    0  502 -0.16981730960E+02 -0.34683412418E+02  0.62842718780E+01  0.39125571643E+02  0.00000000000E+00 0.  1.
<mgrwt>
<rscale>  2 0.74969175E+02</rscale>
<asrwt>0</asrwt>
<pdfrwt beam="1">  1       21 0.12842775E-01 0.74969175E+02</pdfrwt>
<pdfrwt beam="2">  1       21 0.12742350E-01 0.74969175E+02</pdfrwt>
<totfact> 0.26485084E+06</totfact>
</mgrwt>
</event>
<event>
 5    1  0.1855960E+000  0.8902544E+02  0.7546771E-02  0.1305229E+00
         21   -1    0    0  501  502  0.00000000000E+00  0.00000000000E+00  0.10860926058E+04  0.10860926058E+04  0.00000000000E+00 0.  1.
         21   -1    0    0  502  503 -0.00000000000E+00 -0.00000000000E+00 -0.18020316630E+02  0.18020316630E+02  0.00000000000E+00 0.  1.
         24    1    1    2    0    0  0.37985894196E+02 -0.56668211784E+02  0.99014951387E+03  0.99574971261E+03  0.80419002446E+02 0.  1.
          1    1    1    2  501    0 -0.38712901380E+00  0.20231664159E+02  0.35970448405E+02  0.41271579349E+02  0.00000000000E+00 0. -1.
         -2    1    1    2    0  503 -0.37598765182E+02  0.36436547626E+02  0.41952326860E+02  0.67091630440E+02  0.00000000000E+00 0.  1.
<mgrwt>
<rscale>  2 0.89025441E+02</rscale>
<asrwt>0</asrwt>
<pdfrwt beam="1">  1       21 0.16709112E+00 0.89025441E+02</pdfrwt>
<pdfrwt beam="2">  1       21 0.27723573E-02 0.89025441E+02</pdfrwt>
<totfact> 0.16992971E+05</totfact>
</mgrwt>
</event>
<event>
 5    1  0.1855960E+000  0.7676928E+02  0.7546771E-02  0.1338478E+00
         21   -1    0    0  503  502  0.00000000000E+00  0.00000000000E+00  0.65089711770E+02  0.65089711770E+02  0.00000000000E+00 0.  1.
         21   -1    0    0  501  503 -0.00000000000E+00 -0.00000000000E+00 -0.52482768701E+03  0.52482768701E+03  0.00000000000E+00 0.  1.
         24    1    1    2    0    0 -0.10843050622E+02 -0.14436113577E+01 -0.48512582733E+03  0.49186780750E+03  0.80419002446E+02 0.  1.
          1    1    1    2  501    0 -0.28361282305E+02  0.13434011478E+02 -0.19744610567E+02  0.37076739944E+02  0.00000000000E+00 0. -1.
         -2    1    1    2    0  502  0.39204332927E+02 -0.11990400121E+02  0.45132462652E+02  0.60972851338E+02  0.00000000000E+00 0.  1.
<mgrwt>
<rscale>  2 0.76769285E+02</rscale>
<asrwt>0</asrwt>
<pdfrwt beam="1">  1       21 0.10013802E-01 0.76769285E+02</pdfrwt>
<pdfrwt beam="2">  1       21 0.80742719E-01 0.76769285E+02</pdfrwt>
<totfact> 0.11461578E+05</totfact>
</mgrwt>
</event>
<event>
 5    1  0.1855960E+000  0.8210057E+02  0.7546771E-02  0.1323194E+00
         21   -1    0    0  501  502  0.00000000000E+00  0.00000000000E+00  0.30756463337E+03  0.30756463337E+03  0.00000000000E+00 0.  1.
         21   -1    0    0  502  503 -0.00000000000E+00 -0.00000000000E+00 -0.47952387407E+02  0.47952387407E+02  0.00000000000E+00 0. -1.
         24    1    1    2    0    0 -0.50491966108E+02  0.31350243909E+02  0.13905794827E+02  0.10095971235E+03  0.80419002446E+02 0.  0.
          1    1    1    2  501    0  0.34982007006E+02 -0.75367954055E+01  0.16920971808E+03  0.17295222691E+03  0.00000000000E+00 0. -1.
         -2    1    1    2    0  503  0.15509959102E+02 -0.23813448503E+02  0.76496733062E+02  0.81605081521E+02  0.00000000000E+00 0.  1.
<mgrwt>
<rscale>  2 0.82100573E+02</rscale>
<asrwt>0</asrwt>
<pdfrwt beam="1">  1       21 0.47317635E-01 0.82100573E+02</pdfrwt>
<pdfrwt beam="2">  1       21 0.73772906E-02 0.82100573E+02</pdfrwt>
<totfact> 0.59461403E+05</totfact>
</mgrwt>
</event>
<event>
 5    1  0.1855960E+000  0.6645273E+02  0.7546771E-02  0.1372589E+00
         21   -1    0    0  501  502  0.00000000000E+00  0.00000000000E+00  0.16789000107E+02  0.16789000107E+02  0.00000000000E+00 0. -1.
         21   -1    0    0  502  503 -0.00000000000E+00 -0.00000000000E+00 -0.31641884562E+03  0.31641884562E+03  0.00000000000E+00 0. -1.
         24    1    1    2    0    0  0.25698147545E+02 -0.28292037714E+02 -0.22242605301E+03  0.23958589107E+03  0.80419002446E+02 0. -1.
          1    1    1    2  501    0 -0.21448746266E+02  0.76207935603E+01 -0.13388837262E+02  0.26408070245E+02  0.00000000000E+00 0. -1.
         -2    1    1    2    0  503 -0.42494012799E+01  0.20671244154E+02 -0.63814955241E+02  0.67213884417E+02  0.00000000000E+00 0.  1.
<mgrwt>
<rscale>  2 0.66452732E+02</rscale>
<asrwt>0</asrwt>
<pdfrwt beam="1">  1       21 0.25829231E-02 0.66452732E+02</pdfrwt>
<pdfrwt beam="2">  1       21 0.48679823E-01 0.66452732E+02</pdfrwt>
<totfact> 0.31367355E+06</totfact>
</mgrwt>
</event>
<event>
 5    1  0.1855960E+000  0.8285096E+02  0.7546771E-02  0.1321150E+00
         21   -1    0    0  503  502  0.00000000000E+00  0.00000000000E+00  0.21606836895E+03  0.21606836895E+03  0.00000000000E+00 0. -1.
         21   -1    0    0  501  503 -0.00000000000E+00 -0.00000000000E+00 -0.54387713388E+02  0.54387713388E+02  0.00000000000E+00 0. -1.
         24    1    1    2    0    0  0.38498270544E+02 -0.19941139522E+01  0.56535603892E+02  0.10559158957E+03  0.80419002446E+02 0. -1.
          1    1    1    2  501    0 -0.30195602853E+02 -0.30537935943E+02 -0.10694550348E+02  0.44257353857E+02  0.00000000000E+00 0. -1.
         -2    1    1    2    0  502 -0.83026676915E+01  0.32532049896E+02  0.11583960202E+03  0.12060713892E+03  0.00000000000E+00 0.  1.
<mgrwt>
<rscale>  2 0.82850964E+02</rscale>
<asrwt>0</asrwt>
<pdfrwt beam="1">  1       21 0.33241287E-01 0.82850964E+02</pdfrwt>
<pdfrwt beam="2">  1       21 0.83673407E-02 0.82850964E+02</pdfrwt>
<totfact> 0.96293923E+05</totfact>
</mgrwt>
</event>
<event>
 5    1  0.1855960E+000  0.6323164E+02  0.7546771E-02  0.1384750E+00
         21   -1    0    0  503  502  0.00000000000E+00  0.00000000000E+00  0.28594414391E+02  0.28594414391E+02  0.00000000000E+00 0. -1.
         21   -1    0    0  501  503 -0.00000000000E+00 -0.00000000000E+00 -0.15947212177E+03  0.15947212177E+03  0.00000000000E+00 0. -1.
         24    1    1    2    0    0 -0.69577454793E+01 -0.22240309327E+01 -0.67202146386E+02  0.10505570412E+03  0.80419002446E+02 0. -1.
          1    1    1    2  501    0  0.61094000626E+01 -0.21307672962E+02 -0.52416034550E+02  0.56910301125E+02  0.00000000000E+00 0. -1.
         -2    1    1    2    0  502  0.84834541667E+00  0.23531703895E+02 -0.11259526441E+02  0.26100530911E+02  0.00000000000E+00 0.  1.
<mgrwt>
<rscale>  2 0.63231641E+02</rscale>
<asrwt>0</asrwt>
<pdfrwt beam="1">  1       21 0.43991407E-02 0.63231641E+02</pdfrwt>
<pdfrwt beam="2">  1       21 0.24534172E-01 0.63231641E+02</pdfrwt>
<totfact> 0.49364705E+06</totfact>
</mgrwt>
</event>
<event>
 5    1  0.1855960E+000  0.6847554E+02  0.7546771E-02  0.1365355E+00
         21   -1    0    0  501  502  0.00000000000E+00  0.00000000000E+00  0.34480081216E+03  0.34480081216E+03  0.00000000000E+00 0. -1.
         21   -1    0    0  502  503 -0.00000000000E+00 -0.00000000000E+00 -0.17353695279E+02  0.17353695279E+02  0.00000000000E+00 0. -1.
         24    1    1    2    0    0  0.72578435903E+01 -0.13741708919E+02  0.11404236282E+03  0.14040793186E+03  0.80419002446E+02 0. -1.
          1    1    1    2  501    0 -0.67094343403E+01  0.34062026405E+02  0.17375923254E+03  0.17719342269E+03  0.00000000000E+00 0. -1.
         -2    1    1    2    0  503 -0.54840925004E+00 -0.20320317486E+02  0.39645521518E+02  0.44553152884E+02  0.00000000000E+00 0.  1.
<mgrwt>
<rscale>  2 0.68475537E+02</rscale>
<asrwt>0</asrwt>
<pdfrwt beam="1">  1       21 0.53046274E-01 0.68475537E+02</pdfrwt>
<pdfrwt beam="2">  1       21 0.26697995E-02 0.68475537E+02</pdfrwt>
<totfact> 0.25031332E+06</totfact>
</mgrwt>
</event>
<event>
 5    1  0.1855960E+000  0.1562605E+03  0.7546771E-02  0.1192984E+00
         21   -1    0    0  501  502  0.00000000000E+00  0.00000000000E+00  0.16391949174E+03  0.16391949174E+03  0.00000000000E+00 0. -1.
         21   -1    0    0  502  503 -0.00000000000E+00 -0.00000000000E+00 -0.15526263052E+03  0.15526263052E+03  0.00000000000E+00 0.  1.
         24    1    1    2    0    0  0.46158211200E+02 -0.85260240464E+02  0.22607289380E+02  0.12797732046E+03  0.80419002446E+02 0.  1.
          1    1    1    2  501    0  0.39823143502E+02  0.92062327900E+02  0.12278032129E+02  0.10105496054E+03  0.00000000000E+00 0. -1.
         -2    1    1    2    0  503 -0.85981354702E+02 -0.68020874353E+01 -0.26228460287E+02  0.90149841258E+02  0.00000000000E+00 0.  1.
<mgrwt>
<rscale>  2 0.15626050E+03</rscale>
<asrwt>0</asrwt>
<pdfrwt beam="1">  1       21 0.25218383E-01 0.15626050E+03</pdfrwt>
<pdfrwt beam="2">  1       21 0.23886558E-01 0.15626050E+03</pdfrwt>
<totfact> 0.24841521E+05</totfact>
</mgrwt>
</event>
<event>
 5    1  0.1855960E+000  0.6904372E+02  0.7546771E-02  0.1363375E+00
         21   -1    0    0  503  502  0.00000000000E+00  0.00000000000E+00  0.59504639127E+03  0.59504639127E+03  0.00000000000E+00 0. -1.
         21   -1    0    0  501  503 -0.00000000000E+00 -0.00000000000E+00 -0.89975467960E+01  0.89975467960E+01  0.00000000000E+00 0.  1.
         24    1    1    2    0    0 -0.34973508695E+01  0.63310363318E+01  0.30636095121E+03  0.31682260315E+03  0.80419002446E+02 0.  1.
          1    1    1    2  501    0  0.16538578637E+02 -0.27728072803E+02  0.84958174177E+02  0.90885983321E+02  0.00000000000E+00 0. -1.
         -2    1    1    2    0  502 -0.13041227768E+02  0.21397036471E+02  0.19472971909E+03  0.19633535160E+03  0.00000000000E+00 0.  1.
<mgrwt>
<rscale>  2 0.69043718E+02</rscale>
<asrwt>0</asrwt>
<pdfrwt beam="1">  1       21 0.91545568E-01 0.69043718E+02</pdfrwt>
<pdfrwt beam="2">  1       21 0.13842384E-02 0.69043718E+02</pdfrwt>
<totfact> 0.22095884E+06</totfact>
</mgrwt>
</event>
<event>
 5    1  0.1855960E+000  0.8169915E+02  0.7546771E-02  0.1324297E+00
         21   -1    0    0  501  502  0.00000000000E+00  0.00000000000E+00  0.12263806886E+04  0.12263806886E+04  0.00000000000E+00 0. -1.
         21   -1    0    0  502  503 -0.00000000000E+00 -0.00000000000E+00 -0.16200610698E+02  0.16200610698E+02  0.00000000000E+00 0. -1.
         24    1    1    2    0    0 -0.97292176848E+01 -0.19539051048E+02  0.23279390353E+03  0.24725826512E+03  0.80419002446E+02 0. -1.
          1    1    1    2  501    0  0.39364665204E+02  0.29074791116E+02  0.95668716906E+03  0.95793802503E+03  0.00000000000E+00 0. -1.
         -2    1    1    2    0  503 -0.29635447520E+02 -0.95357400687E+01  0.20699005296E+02  0.37385009143E+02  0.00000000000E+00 0.  1.
<mgrwt>
<rscale>  2 0.81699148E+02</rscale>
<asrwt>0</asrwt>
<pdfrwt beam="1">  1       21 0.18867388E+00 0.81699148E+02</pdfrwt>
<pdfrwt beam="2">  1       21 0.24924026E-02 0.81699148E+02</pdfrwt>
<totfact> 0.14627257E+05</totfact>
</mgrwt>
</event>
<event>
 5    1  0.1855960E+000  0.9142234E+02  0.7546771E-02  0.1299443E+00
         21   -1    0    0  501  502  0.00000000000E+00  0.00000000000E+00  0.66779132656E+03  0.66779132656E+03  0.00000000000E+00 0. -1.
         21   -1    0    0  502  503 -0.00000000000E+00 -0.00000000000E+00 -0.64664354217E+02  0.64664354217E+02  0.00000000000E+00 0.  1.
         24    1    1    2    0    0 -0.22030739434E+02 -0.66589007813E+02  0.41173537186E+02  0.11437624561E+03  0.80419002446E+02 0.  1.
          1    1    1    2  501    0  0.26162367359E+02  0.32147571686E+02  0.57826416640E+03  0.57974768820E+03  0.00000000000E+00 0. -1.
         -2    1    1    2    0  503 -0.41316279245E+01  0.34441436127E+02 -0.16310731241E+02  0.38331746966E+02  0.00000000000E+00 0.  1.
<mgrwt>
<rscale>  2 0.91422338E+02</rscale>
<asrwt>0</asrwt>
<pdfrwt beam="1">  1       21 0.10273712E+00 0.91422338E+02</pdfrwt>
<pdfrwt beam="2">  1       21 0.99483627E-02 0.91422338E+02</pdfrwt>
<totfact> 0.66589614E+04</totfact>
</mgrwt>
</event>
<event>
 5    1  0.1855960E+000  0.6675695E+02  0.7546771E-02  0.1371482E+00
         21   -1    0    0  503  502  0.00000000000E+00  0.00000000000E+00  0.15915354745E+02  0.15915354745E+02  0.00000000000E+00 0.  1.
         21   -1    0    0  501  503 -0.00000000000E+00 -0.00000000000E+00 -0.73326359662E+03  0.73326359662E+03  0.00000000000E+00 0.  1.
         24    1    1    2    0    0 -0.22401117253E+01 -0.52253310246E+01 -0.58596465402E+03  0.59148466920E+03  0.80419002446E+02 0.  1.
          1    1    1    2  501    0  0.23955052135E+02  0.15845333376E+02 -0.13037426653E+03  0.13350044377E+03  0.00000000000E+00 0. -1.
         -2    1    1    2    0  502 -0.21714940410E+02 -0.10620002351E+02 -0.10093213273E+01  0.24193838399E+02  0.00000000000E+00 0.  1.
<mgrwt>
<rscale>  2 0.66756947E+02</rscale>
<asrwt>0</asrwt>
<pdfrwt beam="1">  1       21 0.24485157E-02 0.66756947E+02</pdfrwt>
<pdfrwt beam="2">  1       21 0.11280980E+00 0.66756947E+02</pdfrwt>
<totfact> 0.55393457E+05</totfact>
</mgrwt>
</event>
<event>
 5    1  0.1855960E+000  0.8428924E+02  0.7546771E-02  0.1317302E+00
         21   -1    0    0  503  502  0.00000000000E+00  0.00000000000E+00  0.11787197913E+03  0.11787197913E+03  0.00000000000E+00 0.  1.
         21   -1    0    0  501  503 -0.00000000000E+00 -0.00000000000E+00 -0.81110171302E+02  0.81110171302E+02  0.00000000000E+00 0. -1.
         24    1    1    2    0    0  0.37775233836E+02 -0.14210767673E+01  0.86660601129E+01  0.89282161168E+02  0.80419002446E+02 0. -1.
          1    1    1    2  501    0 -0.13249023320E+02  0.35407965848E+02 -0.22503836057E+02  0.43996401009E+02  0.00000000000E+00 0. -1.
         -2    1    1    2    0  502 -0.24526210517E+02 -0.33986889081E+02  0.50599583776E+02  0.65703588259E+02  0.00000000000E+00 0.  1.
<mgrwt>
<rscale>  2 0.84289241E+02</rscale>
<asrwt>0</asrwt>
<pdfrwt beam="1">  1       21 0.18134151E-01 0.84289241E+02</pdfrwt>
<pdfrwt beam="2">  1       21 0.12478488E-01 0.84289241E+02</pdfrwt>
<totfact> 0.14934357E+06</totfact>
</mgrwt>
</event>
<event>
 5    1  0.1855960E+000  0.7740411E+02  0.7546771E-02  0.1336584E+00
         21   -1    0    0  501  502  0.00000000000E+00  0.00000000000E+00  0.14515303971E+04  0.14515303971E+04  0.00000000000E+00 0. -1.
         21   -1    0    0  502  503 -0.00000000000E+00 -0.00000000000E+00 -0.76407434744E+01  0.76407434744E+01  0.00000000000E+00 0. -1.
         24    1    1    2    0    0 -0.53271038591E+02 -0.15516342566E+00  0.13042326517E+04  0.13077950349E+04  0.80419002446E+02 0. -1.
          1    1    1    2  501    0  0.33993897112E+02  0.11610087965E+02  0.89152808683E+02  0.96117649157E+02  0.00000000000E+00 0. -1.
         -2    1    1    2    0  503  0.19277141479E+02 -0.11454924540E+02  0.50504193204E+02  0.55258456466E+02  0.00000000000E+00 0.  1.
<mgrwt>
<rscale>  2 0.77404114E+02</rscale>
<asrwt>0</asrwt>
<pdfrwt beam="1">  1       21 0.22331215E+00 0.77404114E+02</pdfrwt>
<pdfrwt beam="2">  1       21 0.11755002E-02 0.77404114E+02</pdfrwt>
<totfact> 0.29896399E+05</totfact>
</mgrwt>
</event>
<event>
 5    1  0.1855960E+000  0.9213104E+02  0.7546771E-02  0.1297772E+00
         21   -1    0    0  503  502  0.00000000000E+00  0.00000000000E+00  0.98886490318E+03  0.98886490318E+03  0.00000000000E+00 0. -1.
         21   -1    0    0  501  503 -0.00000000000E+00 -0.00000000000E+00 -0.10366240171E+02  0.10366240171E+02  0.00000000000E+00 0. -1.
         24    1    1    2    0    0  0.14822464802E+02  0.44822729088E+02  0.69669796451E+03  0.70291112683E+03  0.80419002446E+02 0. -1.
          1    1    1    2  501    0  0.92829206029E+00 -0.65226875507E+02  0.18579199393E+03  0.19691133036E+03  0.00000000000E+00 0. -1.
         -2    1    1    2    0  502 -0.15750756863E+02  0.20404146420E+02  0.96008704563E+02  0.99408686163E+02  0.00000000000E+00 0.  1.
<mgrwt>
<rscale>  2 0.92131039E+02</rscale>
<asrwt>0</asrwt>
<pdfrwt beam="1">  1       21 0.15213299E+00 0.92131039E+02</pdfrwt>
<pdfrwt beam="2">  1       21 0.15948070E-02 0.92131039E+02</pdfrwt>
<totfact> 0.52555674E+05</totfact>
</mgrwt>
</event>
<event>
 5    1  0.1855960E+000  0.1684099E+03  0.7546771E-02  0.1179516E+00
         21   -1    0    0  503  502  0.00000000000E+00  0.00000000000E+00  0.13323857141E+03  0.13323857141E+03  0.00000000000E+00 0.  1.
         21   -1    0    0  501  503 -0.00000000000E+00 -0.00000000000E+00 -0.26093330404E+03  0.26093330404E+03  0.00000000000E+00 0.  1.
         24    1    1    2    0    0  0.12916599068E+03 -0.11658320074E+02 -0.10860745110E+03  0.18730340084E+03  0.80419002446E+02 0.  1.
          1    1    1    2  501    0  0.26285921484E+02  0.11687739875E+02 -0.40784987923E+02  0.49909599994E+02  0.00000000000E+00 0. -1.
         -2    1    1    2    0  502 -0.15545191217E+03 -0.29419800728E-01  0.21697706394E+02  0.15695887463E+03  0.00000000000E+00 0.  1.
<mgrwt>
<rscale>  2 0.16840994E+03</rscale>
<asrwt>0</asrwt>
<pdfrwt beam="1">  1       21 0.20498242E-01 0.16840994E+03</pdfrwt>
<pdfrwt beam="2">  1       21 0.40143586E-01 0.16840994E+03</pdfrwt>
<totfact> 0.13294369E+05</totfact>
</mgrwt>
</event>
<event>
 5    1  0.1855960E+000  0.8146306E+02  0.7546771E-02  0.1324950E+00
         21   -1    0    0  501  502  0.00000000000E+00  0.00000000000E+00  0.64268962701E+03  0.64268962701E+03  0.00000000000E+00 0. -1.
         21   -1    0    0  502  503 -0.00000000000E+00 -0.00000000000E+00 -0.46784261934E+02  0.46784261934E+02  0.00000000000E+00 0.  1.
         24    1    1    2    0    0 -0.25782254233E+02 -0.49301588622E+02  0.37734605463E+03  0.38981102111E+03  0.80419002446E+02 0.  0.
          1    1    1    2  501    0  0.10165973932E+01  0.37830835577E+02  0.25294587217E+03  0.25576125555E+03  0.00000000000E+00 0. -1.
         -2    1    1    2    0  503  0.24765656840E+02  0.11470753045E+02 -0.34386561729E+02  0.43901612290E+02  0.00000000000E+00 0.  1.
<mgrwt>
<rscale>  2 0.81463061E+02</rscale>
<asrwt>0</asrwt>
<pdfrwt beam="1">  1       21 0.98875321E-01 0.81463061E+02</pdfrwt>
<pdfrwt beam="2">  1       21 0.71975792E-02 0.81463061E+02</pdfrwt>
<totfact> 0.12745388E+05</totfact>
</mgrwt>
</event>
<event>
 5    1  0.1855960E+000  0.1137868E+03  0.7546771E-02  0.1253714E+00
         21   -1    0    0  501  502  0.00000000000E+00  0.00000000000E+00  0.15801810106E+03  0.15801810106E+03  0.00000000000E+00 0.  1.
         21   -1    0    0  502  503 -0.00000000000E+00 -0.00000000000E+00 -0.13010495311E+03  0.13010495311E+03  0.00000000000E+00 0. -1.
         24    1    1    2    0    0  0.71097529167E+02 -0.21654725813E+02  0.10014559281E+03  0.14839185125E+03  0.80419002446E+02 0. -1.
          1    1    1    2  501    0 -0.98000356344E+01  0.49703222766E+02 -0.20048567617E+02  0.54482989228E+02  0.00000000000E+00 0. -1.
         -2    1    1    2    0  503 -0.61297493533E+02 -0.28048496953E+02 -0.52183877243E+02  0.85248213699E+02  0.00000000000E+00 0.  1.
<mgrwt>
<rscale>  2 0.11378677E+03</rscale>
<asrwt>0</asrwt>
<pdfrwt beam="1">  1       21 0.24310477E-01 0.11378677E+03</pdfrwt>
<pdfrwt beam="2">  1       21 0.20016147E-01 0.11378677E+03</pdfrwt>
<totfact> 0.37303199E+05</totfact>
</mgrwt>
</event>
<event>
 5    1  0.1855960E+000  0.8442752E+02  0.7546771E-02  0.1316936E+00
         21   -1    0    0  503  502  0.00000000000E+00  0.00000000000E+00  0.11823676994E+02  0.11823676994E+02  0.00000000000E+00 0. -1.
         21   -1    0    0  501  503 -0.00000000000E+00 -0.00000000000E+00 -0.13218326415E+04  0.13218326415E+04  0.00000000000E+00 0. -1.
         24    1    1    2    0    0  0.57175525190E+01  0.64987517313E+02 -0.54011866966E+03  0.54995587194E+03  0.80419002446E+02 0. -1.
          1    1    1    2  501    0 -0.46633161684E+01 -0.36766928583E+02 -0.74539811352E+03  0.74631890046E+03  0.00000000000E+00 0. -1.
         -2    1    1    2    0  502 -0.10542363506E+01 -0.28220588730E+02 -0.24492181364E+02  0.37381546123E+02  0.00000000000E+00 0.  1.
<mgrwt>
<rscale>  2 0.84427523E+02</rscale>
<asrwt>0</asrwt>
<pdfrwt beam="1">  1       21 0.18190268E-02 0.84427523E+02</pdfrwt>
<pdfrwt beam="2">  1       21 0.20335892E+00 0.84427523E+02</pdfrwt>
<totfact> 0.19587256E+05</totfact>
</mgrwt>
</event>
<event>
 5    1  0.1855960E+000  0.6971895E+02  0.7546771E-02  0.1361051E+00
         21   -1    0    0  501  502  0.00000000000E+00  0.00000000000E+00  0.14276336813E+03  0.14276336813E+03  0.00000000000E+00 0. -1.
         21   -1    0    0  502  503 -0.00000000000E+00 -0.00000000000E+00 -0.10618351055E+03  0.10618351055E+03  0.00000000000E+00 0. -1.
         24    1    1    2    0    0  0.16335463949E+02  0.20026725399E+01  0.91696484458E+02  0.12307038350E+03  0.80419002446E+02 0. -1.
          1    1    1    2  501    0 -0.32785575043E+02 -0.15318830965E+02  0.24364662609E+02  0.43625649532E+02  0.00000000000E+00 0. -1.
         -2    1    1    2    0  503  0.16450111095E+02  0.13316158425E+02 -0.79481289484E+02  0.82250845639E+02  0.00000000000E+00 0.  1.
<mgrwt>
<rscale>  2 0.69718945E+02</rscale>
<asrwt>0</asrwt>
<pdfrwt beam="1">  1       21 0.21963595E-01 0.69718945E+02</pdfrwt>
<pdfrwt beam="2">  1       21 0.16335925E-01 0.69718945E+02</pdfrwt>
<totfact> 0.65089516E+05</totfact>
</mgrwt>
</event>
<event>
 5    1  0.1855960E+000  0.1238609E+03  0.7546771E-02  0.1236860E+00
         21   -1    0    0  503  502  0.00000000000E+00  0.00000000000E+00  0.10958882783E+03  0.10958882783E+03  0.00000000000E+00 0. -1.
         21   -1    0    0  501  503 -0.00000000000E+00 -0.00000000000E+00 -0.22831103982E+03  0.22831103982E+03  0.00000000000E+00 0.  1.
         24    1    1    2    0    0 -0.90035477748E+02  0.91315994555E+01 -0.16358227168E+03  0.20350957944E+03  0.80419002446E+02 0.  0.
          1    1    1    2  501    0 -0.32290140929E+01  0.26589210688E+02  0.10610411822E+02  0.28809607704E+02  0.00000000000E+00 0. -1.
         -2    1    1    2    0  502  0.93264491841E+02 -0.35720810143E+02  0.34249647879E+02  0.10558068050E+03  0.00000000000E+00 0.  1.
<mgrwt>
<rscale>  2 0.12386087E+03</rscale>
<asrwt>0</asrwt>
<pdfrwt beam="1">  1       21 0.16859820E-01 0.12386087E+03</pdfrwt>
<pdfrwt beam="2">  1       21 0.35124775E-01 0.12386087E+03</pdfrwt>
<totfact> 0.25155767E+05</totfact>
</mgrwt>
</event>
<event>
 5    1  0.1855960E+000  0.1002845E+03  0.7546771E-02  0.1279699E+00
         21   -1    0    0  503  502  0.00000000000E+00  0.00000000000E+00  0.86015241161E+02  0.86015241161E+02  0.00000000000E+00 0. -1.
         21   -1    0    0  501  503 -0.00000000000E+00 -0.00000000000E+00 -0.14073901780E+03  0.14073901780E+03  0.00000000000E+00 0.  1.
         24    1    1    2    0    0 -0.44032176248E+02  0.13967896264E+02 -0.69298990692E+02  0.11577348892E+03  0.80419002446E+02 0.  0.
          1    1    1    2  501    0  0.18067775805E+02 -0.55766363174E+02 -0.30848092102E+01  0.58701344380E+02  0.00000000000E+00 0. -1.
         -2    1    1    2    0  502  0.25964400443E+02  0.41798466910E+02  0.17660023259E+02  0.52279425665E+02  0.00000000000E+00 0.  1.
<mgrwt>
<rscale>  2 0.10028447E+03</rscale>
<asrwt>0</asrwt>
<pdfrwt beam="1">  1       21 0.13233114E-01 0.10028447E+03</pdfrwt>
<pdfrwt beam="2">  1       21 0.21652157E-01 0.10028447E+03</pdfrwt>
<totfact> 0.97744444E+05</totfact>
</mgrwt>
</event>
<event>
 5    1  0.1855960E+000  0.8817771E+02  0.7546771E-02  0.1307326E+00
         21   -1    0    0  501  502  0.00000000000E+00  0.00000000000E+00  0.83219493849E+02  0.83219493849E+02  0.00000000000E+00 0. -1.
         21   -1    0    0  502  503 -0.00000000000E+00 -0.00000000000E+00 -0.20142163721E+03  0.20142163721E+03  0.00000000000E+00 0. -1.
         24    1    1    2    0    0 -0.66417594343E+02 -0.82123822677E+01 -0.10761785528E+03  0.15009183452E+03  0.80419002446E+02 0. -1.
          1    1    1    2  501    0  0.43366141535E+02  0.17654713494E+02  0.50327998986E+02  0.68740225648E+02  0.00000000000E+00 0. -1.
         -2    1    1    2    0  503  0.23051452809E+02 -0.94423312267E+01 -0.60912287073E+02  0.65809070895E+02  0.00000000000E+00 0.  1.
<mgrwt>
<rscale>  2 0.88177713E+02</rscale>
<asrwt>0</asrwt>
<pdfrwt beam="1">  1       21 0.12802999E-01 0.88177713E+02</pdfrwt>
<pdfrwt beam="2">  1       21 0.30987944E-01 0.88177713E+02</pdfrwt>
<totfact> 0.52735664E+05</totfact>
</mgrwt>
</event>
<event>
 5    1  0.1855960E+000  0.9723429E+02  0.7546771E-02  0.1286222E+00
         21   -1    0    0  503  502  0.00000000000E+00  0.00000000000E+00  0.31386999669E+03  0.31386999669E+03  0.00000000000E+00 0.  1.
         21   -1    0    0  501  503 -0.00000000000E+00 -0.00000000000E+00 -0.14119135582E+03  0.14119135582E+03  0.00000000000E+00 0. -1.
         24    1    1    2    0    0  0.22101513385E+02 -0.15405825636E+02  0.13345950513E+02  0.85855382516E+02  0.80419002446E+02 0.  0.
          1    1    1    2  501    0  0.42665723038E+02 -0.15948581286E+01 -0.96091819209E+02  0.10515010801E+03  0.00000000000E+00 0. -1.
         -2    1    1    2    0  502 -0.64767236423E+02  0.17000683765E+02  0.25542450957E+03  0.26405586199E+03  0.00000000000E+00 0.  1.
<mgrwt>
<rscale>  2 0.97234293E+02</rscale>
<asrwt>0</asrwt>
<pdfrwt beam="1">  1       21 0.48287692E-01 0.97234293E+02</pdfrwt>
<pdfrwt beam="2">  1       21 0.21721747E-01 0.97234293E+02</pdfrwt>
<totfact> 0.84507471E+04</totfact>
</mgrwt>
</event>
<event>
 5    1  0.1855960E+000  0.1157248E+03  0.7546771E-02  0.1250321E+00
         21   -1    0    0  503  502  0.00000000000E+00  0.00000000000E+00  0.39341881802E+02  0.39341881802E+02  0.00000000000E+00 0. -1.
         21   -1    0    0  501  503 -0.00000000000E+00 -0.00000000000E+00 -0.52885059157E+03  0.52885059157E+03  0.00000000000E+00 0. -1.
         24    1    1    2    0    0  0.59017615013E+01  0.91633490326E+02 -0.97795652947E+02  0.15640566814E+03  0.80419002446E+02 0. -1.
          1    1    1    2  501    0  0.20342875848E+02 -0.76360972811E+02 -0.35711341438E+03  0.36575240464E+03  0.00000000000E+00 0. -1.
         -2    1    1    2    0  502 -0.26244637349E+02 -0.15272517515E+02 -0.34599642444E+02  0.46034400595E+02  0.00000000000E+00 0.  1.
<mgrwt>
<rscale>  2 0.11572480E+03</rscale>
<asrwt>0</asrwt>
<pdfrwt beam="1">  1       21 0.60525977E-02 0.11572480E+03</pdfrwt>
<pdfrwt beam="2">  1       21 0.81361623E-01 0.11572480E+03</pdfrwt>
<totfact> 0.26232174E+05</totfact>
</mgrwt>
</event>
<event>
 5    1  0.1855960E+000  0.8303984E+02  0.7546771E-02  0.1320640E+00
         21   -1    0    0  501  502  0.00000000000E+00  0.00000000000E+00  0.22663919138E+03  0.22663919138E+03  0.00000000000E+00 0. -1.
         21   -1    0    0  502  503 -0.00000000000E+00 -0.00000000000E+00 -0.23764488834E+03  0.23764488834E+03  0.00000000000E+00 0. -1.
         24    1    1    2    0    0  0.48875091278E+02 -0.32414194577E+01 -0.15484552699E+03  0.18122812842E+03  0.80419002446E+02 0. -1.
          1    1    1    2  501    0 -0.33331756350E+02 -0.23641433690E+02  0.20789363974E+03  0.21187186886E+03  0.00000000000E+00 0. -1.
         -2    1    1    2    0  503 -0.15543334928E+02  0.26882853147E+02 -0.64053809709E+02  0.71184082436E+02  0.00000000000E+00 0.  1.
<mgrwt>
<rscale>  2 0.83039842E+02</rscale>
<asrwt>0</asrwt>
<pdfrwt beam="1">  1       21 0.34867568E-01 0.83039842E+02</pdfrwt>
<pdfrwt beam="2">  1       21 0.36560752E-01 0.83039842E+02</pdfrwt>
<totfact> 0.60632218E+04</totfact>
</mgrwt>
</event>
<event>
 5    1  0.1855960E+000  0.1481558E+03  0.7546771E-02  0.1202758E+00
         21   -1    0    0  501  502  0.00000000000E+00  0.00000000000E+00  0.20500387503E+03  0.20500387503E+03  0.00000000000E+00 0. -1.
         21   -1    0    0  502  503 -0.00000000000E+00 -0.00000000000E+00 -0.21277323736E+03  0.21277323736E+03  0.00000000000E+00 0. -1.
         24    1    1    2    0    0 -0.88086227086E+02 -0.10519011951E+03 -0.79036408011E+02  0.17758973617E+03  0.80419002446E+02 0. -1.
          1    1    1    2  501    0  0.72371267596E+02  0.83573861578E+02  0.13298185543E+03  0.17293456736E+03  0.00000000000E+00 0. -1.
         -2    1    1    2    0  503  0.15714959489E+02  0.21616257937E+02 -0.61714809748E+02  0.67252808872E+02  0.00000000000E+00 0.  1.
<mgrwt>
<rscale>  2 0.14815577E+03</rscale>
<asrwt>0</asrwt>
<pdfrwt beam="1">  1       21 0.31539058E-01 0.14815577E+03</pdfrwt>
<pdfrwt beam="2">  1       21 0.32734344E-01 0.14815577E+03</pdfrwt>
<totfact> 0.88368595E+04</totfact>
</mgrwt>
</event>
<event>
 5    1  0.1855960E+000  0.6423539E+02  0.7546771E-02  0.1380871E+00
         21   -1    0    0  501  502  0.00000000000E+00  0.00000000000E+00  0.55048055077E+01  0.55048055077E+01  0.00000000000E+00 0.  1.
         21   -1    0    0  502  503 -0.00000000000E+00 -0.00000000000E+00 -0.79029803640E+03  0.79029803640E+03  0.00000000000E+00 0. -1.
         24    1    1    2    0    0  0.63099495092E+01 -0.33762568037E+01 -0.57459758586E+03  0.58024203243E+03  0.80419002446E+02 0. -1.
          1    1    1    2  501    0 -0.69848805120E+01  0.25072487693E+02 -0.10921530366E+03  0.11227377587E+03  0.00000000000E+00 0. -1.
         -2    1    1    2    0  503  0.67493100275E+00 -0.21696230889E+02 -0.10098034137E+03  0.10328703360E+03  0.00000000000E+00 0.  1.
<mgrwt>
<rscale>  2 0.64235391E+02</rscale>
<asrwt>0</asrwt>
<pdfrwt beam="1">  1       21 0.84689370E-03 0.64235391E+02</pdfrwt>
<pdfrwt beam="2">  1       21 0.12158424E+00 0.64235391E+02</pdfrwt>
<totfact> 0.24537118E+06</totfact>
</mgrwt>
</event>
<event>
 5    1  0.1855960E+000  0.6627776E+02  0.7546771E-02  0.1373229E+00
         21   -1    0    0  503  502  0.00000000000E+00  0.00000000000E+00  0.15425482922E+03  0.15425482922E+03  0.00000000000E+00 0. -1.
         21   -1    0    0  501  503 -0.00000000000E+00 -0.00000000000E+00 -0.35268245587E+02  0.35268245587E+02  0.00000000000E+00 0. -1.
         24    1    1    2    0    0  0.91760280555E+01 -0.10190109230E+02  0.85137798585E+02  0.11791394540E+03  0.80419002446E+02 0. -1.
          1    1    1    2  501    0 -0.19003633048E+02 -0.14823184659E+02 -0.47611075929E+01  0.24566909003E+02  0.00000000000E+00 0. -1.
         -2    1    1    2    0  502  0.98276049924E+01  0.25013293889E+02  0.38609892641E+02  0.47042220407E+02  0.00000000000E+00 0.  1.
<mgrwt>
<rscale>  2 0.66277762E+02</rscale>
<asrwt>0</asrwt>
<pdfrwt beam="1">  1       21 0.23731512E-01 0.66277762E+02</pdfrwt>
<pdfrwt beam="2">  1       21 0.54258840E-02 0.66277762E+02</pdfrwt>
<totfact> 0.37282249E+06</totfact>
</mgrwt>
</event>
<event>
 5    1  0.1855960E+000  0.1320215E+03  0.7546771E-02  0.1224487E+00
         21   -1    0    0  501  502  0.00000000000E+00  0.00000000000E+00  0.18090071190E+03  0.18090071190E+03  0.00000000000E+00 0.  1.
         21   -1    0    0  502  503 -0.00000000000E+00 -0.00000000000E+00 -0.10057618831E+03  0.10057618831E+03  0.00000000000E+00 0.  1.
         24    1    1    2    0    0  0.75148695072E+02 -0.89642372761E+02  0.26290428245E+02  0.14436579906E+03  0.80419002446E+02 0.  1.
          1    1    1    2  501    0 -0.21027273328E+02  0.52212712161E+02  0.41965941300E+02  0.70210068822E+02  0.00000000000E+00 0. -1.
         -2    1    1    2    0  503 -0.54121421744E+02  0.37429660600E+02  0.12068154045E+02  0.66901032326E+02  0.00000000000E+00 0.  1.
<mgrwt>
<rscale>  2 0.13202154E+03</rscale>
<asrwt>0</asrwt>
<pdfrwt beam="1">  1       21 0.27830879E-01 0.13202154E+03</pdfrwt>
<pdfrwt beam="2">  1       21 0.15473260E-01 0.13202154E+03</pdfrwt>
<totfact> 0.46089518E+05</totfact>
</mgrwt>
</event>
<event>
 5    1  0.2208495E+000  0.7542312E+02  0.7546771E-02  0.1342566E+00
         21   -1    0    0  501  502  0.00000000000E+00  0.00000000000E+00  0.43480778157E+03  0.43480778157E+03  0.00000000000E+00 0. -1.
         21   -1    0    0  502  503 -0.00000000000E+00 -0.00000000000E+00 -0.14488525358E+03  0.14488525358E+03  0.00000000000E+00 0.  1.
         24    1    1    2    0    0  0.15169058688E+02 -0.26437901116E+02  0.23791697977E+03  0.25298373105E+03  0.80419002446E+02 0.  0.
          1    1    1    2  501    0  0.81909172617E+01  0.37934600283E+02  0.18610366889E+03  0.19010707667E+03  0.00000000000E+00 0. -1.
         -2    1    1    2    0  503 -0.23359975950E+02 -0.11496699166E+02 -0.13409812068E+03  0.13660222743E+03  0.00000000000E+00 0.  1.
<mgrwt>
<rscale>  2 0.75423121E+02</rscale>
<asrwt>0</asrwt>
<pdfrwt beam="1">  1       21 0.66893504E-01 0.75423121E+02</pdfrwt>
<pdfrwt beam="2">  1       21 0.22290039E-01 0.75423121E+02</pdfrwt>
<totfact> 0.41559003E+04</totfact>
</mgrwt>
</event>
<event>
 5    1  0.1855960E+000  0.9223547E+02  0.7546771E-02  0.1297527E+00
         21   -1    0    0  503  502  0.00000000000E+00  0.00000000000E+00  0.31545074354E+03  0.31545074354E+03  0.00000000000E+00 0. -1.
         21   -1    0    0  501  503 -0.00000000000E+00 -0.00000000000E+00 -0.33039384475E+02  0.33039384475E+02  0.00000000000E+00 0. -1.
         24    1    1    2    0    0 -0.58080762511E+02 -0.20910956997E+02  0.22525186791E+03  0.24701470208E+03  0.80419002446E+02 0. -1.
          1    1    1    2  501    0  0.35066010807E+02 -0.16822800666E+02  0.20010695826E+02  0.43738537740E+02  0.00000000000E+00 0. -1.
         -2    1    1    2    0  502  0.23014751704E+02  0.37733757663E+02  0.37148795339E+02  0.57736888195E+02  0.00000000000E+00 0.  1.
<mgrwt>
<rscale>  2 0.92235466E+02</rscale>
<asrwt>0</asrwt>
<pdfrwt beam="1">  1       21 0.48530882E-01 0.92235466E+02</pdfrwt>
<pdfrwt beam="2">  1       21 0.50829824E-02 0.92235466E+02</pdfrwt>
<totfact> 0.10578967E+06</totfact>
</mgrwt>
</event>
<event>
 5    1  0.1855960E+000  0.1287385E+03  0.7546771E-02  0.1229340E+00
         21   -1    0    0  501  502  0.00000000000E+00  0.00000000000E+00  0.10981137713E+02  0.10981137713E+02  0.00000000000E+00 0. -1.
         21   -1    0    0  502  503 -0.00000000000E+00 -0.00000000000E+00 -0.16418308810E+04  0.16418308810E+04  0.00000000000E+00 0.  1.
         24    1    1    2    0    0 -0.11366768251E+02 -0.11443833337E+03 -0.78543974910E+03  0.79787727815E+03  0.80419002446E+02 0.  1.
          1    1    1    2  501    0  0.18004115610E+02  0.92103374099E+02 -0.49940988226E+03  0.50815097186E+03  0.00000000000E+00 0. -1.
         -2    1    1    2    0  503 -0.66373473591E+01  0.22334959275E+02 -0.34600011197E+03  0.34678376875E+03  0.00000000000E+00 0.  1.
<mgrwt>
<rscale>  2 0.12873852E+03</rscale>
<asrwt>0</asrwt>
<pdfrwt beam="1">  1       21 0.16894046E-02 0.12873852E+03</pdfrwt>
<pdfrwt beam="2">  1       21 0.25258954E+00 0.12873852E+03</pdfrwt>
<totfact> 0.10914015E+05</totfact>
</mgrwt>
</event>
<event>
 5    1  0.1855960E+000  0.1154202E+03  0.7546771E-02  0.1250849E+00
         21   -1    0    0  503  502  0.00000000000E+00  0.00000000000E+00  0.91775521128E+02  0.91775521128E+02  0.00000000000E+00 0.  1.
         21   -1    0    0  501  503 -0.00000000000E+00 -0.00000000000E+00 -0.27112150768E+03  0.27112150768E+03  0.00000000000E+00 0. -1.
         24    1    1    2    0    0 -0.14470238561E+02  0.19630828437E+02 -0.32449337015E+02  0.90082921002E+02  0.80419002446E+02 0. -1.
          1    1    1    2  501    0  0.28961275661E+02 -0.79811707239E+02 -0.18258633614E+03  0.20136145174E+03  0.00000000000E+00 0. -1.
         -2    1    1    2    0  502 -0.14491037100E+02  0.60180878802E+02  0.35689686603E+02  0.71452656070E+02  0.00000000000E+00 0.  1.
<mgrwt>
<rscale>  2 0.11542018E+03</rscale>
<asrwt>0</asrwt>
<pdfrwt beam="1">  1       21 0.14119311E-01 0.11542018E+03</pdfrwt>
<pdfrwt beam="2">  1       21 0.41711001E-01 0.11542018E+03</pdfrwt>
<totfact> 0.24682204E+05</totfact>
</mgrwt>
</event>
<event>
 5    1  0.1855960E+000  0.1057143E+03  0.7546771E-02  0.1268719E+00
         21   -1    0    0  501  502  0.00000000000E+00  0.00000000000E+00  0.22100755244E+03  0.22100755244E+03  0.00000000000E+00 0. -1.
         21   -1    0    0  502  503 -0.00000000000E+00 -0.00000000000E+00 -0.18724125852E+03  0.18724125852E+03  0.00000000000E+00 0. -1.
         24    1    1    2    0    0 -0.73233232246E+02 -0.39204376242E+02 -0.87977264705E+02  0.14528353135E+03  0.80419002446E+02 0. -1.
          1    1    1    2  501    0  0.20792742399E+02  0.38047377457E+02  0.17966506010E+03  0.18482282026E+03  0.00000000000E+00 0. -1.
         -2    1    1    2    0  503  0.52440489847E+02  0.11569987847E+01 -0.57921501466E+02  0.78142459352E+02  0.00000000000E+00 0.  1.
<mgrwt>
<rscale>  2 0.10571430E+03</rscale>
<asrwt>0</asrwt>
<pdfrwt beam="1">  1       21 0.34001162E-01 0.10571430E+03</pdfrwt>
<pdfrwt beam="2">  1       21 0.28806347E-01 0.10571430E+03</pdfrwt>
<totfact> 0.99519443E+04</totfact>
</mgrwt>
</event>
<event>
 5    1  0.1855960E+000  0.1533135E+03  0.7546771E-02  0.1196460E+00
         21   -1    0    0  503  502  0.00000000000E+00  0.00000000000E+00  0.68817669948E+02  0.68817669948E+02  0.00000000000E+00 0. -1.
         21   -1    0    0  501  503 -0.00000000000E+00 -0.00000000000E+00 -0.73762192738E+03  0.73762192738E+03  0.00000000000E+00 0. -1.
         24    1    1    2    0    0  0.12546675573E+03  0.20781782646E+02 -0.17753839615E+03  0.23272491776E+03  0.80419002446E+02 0. -1.
          1    1    1    2  501    0 -0.11477886812E+03 -0.49887469133E+02 -0.51792021491E+03  0.53282670462E+03  0.00000000000E+00 0. -1.
         -2    1    1    2    0  502 -0.10687887609E+02  0.29105686487E+02  0.26654353633E+02  0.40887974944E+02  0.00000000000E+00 0.  1.
<mgrwt>
<rscale>  2 0.15331349E+03</rscale>
<asrwt>0</asrwt>
<pdfrwt beam="1">  1       21 0.10587334E-01 0.15331349E+03</pdfrwt>
<pdfrwt beam="2">  1       21 0.11348030E+00 0.15331349E+03</pdfrwt>
<totfact> 0.45384647E+04</totfact>
</mgrwt>
</event>
<event>
 5    1  0.1855960E+000  0.8053186E+02  0.7546771E-02  0.1327549E+00
         21   -1    0    0  503  502  0.00000000000E+00  0.00000000000E+00  0.90432758466E+02  0.90432758466E+02  0.00000000000E+00 0. -1.
         21   -1    0    0  501  503 -0.00000000000E+00 -0.00000000000E+00 -0.10439007300E+03  0.10439007300E+03  0.00000000000E+00 0. -1.
         24    1    1    2    0    0  0.40400380447E+01 -0.33054646461E+02  0.15738660955E+02  0.88452546391E+02  0.80419002446E+02 0. -1.
          1    1    1    2  501    0  0.28697416622E+02  0.29396278654E+02 -0.52236401745E+02  0.66455433087E+02  0.00000000000E+00 0. -1.
         -2    1    1    2    0  502 -0.32737454667E+02  0.36583678062E+01  0.22540426259E+02  0.39914851985E+02  0.00000000000E+00 0.  1.
<mgrwt>
<rscale>  2 0.80531858E+02</rscale>
<asrwt>0</asrwt>
<pdfrwt beam="1">  1       21 0.13912732E-01 0.80531858E+02</pdfrwt>
<pdfrwt beam="2">  1       21 0.16060011E-01 0.80531858E+02</pdfrwt>
<totfact> 0.15316113E+06</totfact>
</mgrwt>
</event>
<event>
 5    1  0.1855960E+000  0.6652354E+02  0.7546771E-02  0.1372330E+00
         21   -1    0    0  503  502  0.00000000000E+00  0.00000000000E+00  0.19475263081E+02  0.19475263081E+02  0.00000000000E+00 0. -1.
         21   -1    0    0  501  503 -0.00000000000E+00 -0.00000000000E+00 -0.22904022640E+03  0.22904022640E+03  0.00000000000E+00 0.  1.
         24    1    1    2    0    0 -0.12167332501E+02 -0.32308231018E+02 -0.13313199583E+03  0.15932109101E+03  0.80419002446E+02 0.  0.
          1    1    1    2  501    0  0.18884321392E+02  0.83484159107E+01 -0.40882139893E+02  0.45800251144E+02  0.00000000000E+00 0. -1.
         -2    1    1    2    0  502 -0.67169888910E+01  0.23959815107E+02 -0.35550827594E+02  0.43394147328E+02  0.00000000000E+00 0.  1.
<mgrwt>
<rscale>  2 0.66523543E+02</rscale>
<asrwt>0</asrwt>
<pdfrwt beam="1">  1       21 0.29961943E-02 0.66523543E+02</pdfrwt>
<pdfrwt beam="2">  1       21 0.35236958E-01 0.66523543E+02</pdfrwt>
<totfact> 0.46710532E+06</totfact>
</mgrwt>
</event>
<event>
 5    1  0.1855960E+000  0.1358601E+03  0.7546771E-02  0.1219011E+00
         21   -1    0    0  501  502  0.00000000000E+00  0.00000000000E+00  0.78664844315E+02  0.78664844315E+02  0.00000000000E+00 0. -1.
         21   -1    0    0  502  503 -0.00000000000E+00 -0.00000000000E+00 -0.34280988243E+03  0.34280988243E+03  0.00000000000E+00 0. -1.
         24    1    1    2    0    0 -0.66432569113E+02  0.10087623939E+03 -0.84700327867E+02  0.16801983040E+03  0.80419002446E+02 0. -1.
          1    1    1    2  501    0  0.68201726726E+02 -0.77775586242E+02 -0.38119830854E+02  0.11024354334E+03  0.00000000000E+00 0. -1.
         -2    1    1    2    0  503 -0.17691576131E+01 -0.23100653147E+02 -0.14132487939E+03  0.14321135301E+03  0.00000000000E+00 0.  1.
<mgrwt>
<rscale>  2 0.13586012E+03</rscale>
<asrwt>0</asrwt>
<pdfrwt beam="1">  1       21 0.12102284E-01 0.13586012E+03</pdfrwt>
<pdfrwt beam="2">  1       21 0.52739982E-01 0.13586012E+03</pdfrwt>
<totfact> 0.20013851E+05</totfact>
</mgrwt>
</event>
<event>
 5    1  0.1855960E+000  0.6681275E+02  0.7546771E-02  0.1371280E+00
         21   -1    0    0  501  502  0.00000000000E+00  0.00000000000E+00  0.33639334118E+03  0.33639334118E+03  0.00000000000E+00 0. -1.
         21   -1    0    0  502  503 -0.00000000000E+00 -0.00000000000E+00 -0.20003124213E+02  0.20003124213E+02  0.00000000000E+00 0. -1.
         24    1    1    2    0    0 -0.94887621470E+01  0.12279091385E+02  0.14327982362E+03  0.16503677318E+03  0.80419002446E+02 0. -1.
          1    1    1    2  501    0 -0.88922337210E+01 -0.26839187664E+02  0.16364951418E+03  0.16607401153E+03  0.00000000000E+00 0. -1.
         -2    1    1    2    0  503  0.18380995868E+02  0.14560096279E+02  0.94608791697E+01  0.25285680679E+02  0.00000000000E+00 0.  1.
<mgrwt>
<rscale>  2 0.66812751E+02</rscale>
<asrwt>0</asrwt>
<pdfrwt beam="1">  1       21 0.51752817E-01 0.66812751E+02</pdfrwt>
<pdfrwt beam="2">  1       21 0.30774040E-02 0.66812751E+02</pdfrwt>
<totfact> 0.20915095E+06</totfact>
</mgrwt>
</event>
<event>
 5    1  0.1855960E+000  0.6227698E+02  0.7546771E-02  0.1388517E+00
         21   -1    0    0  503  502  0.00000000000E+00  0.00000000000E+00  0.32994336126E+03  0.32994336126E+03  0.00000000000E+00 0.  1.
         21   -1    0    0  501  503 -0.00000000000E+00 -0.00000000000E+00 -0.27280242693E+02  0.27280242693E+02  0.00000000000E+00 0. -1.
         24    1    1    2    0    0 -0.11683397406E+02 -0.18305332961E+01  0.15193057662E+03  0.17230777317E+03  0.80419002446E+02 0. -1.
          1    1    1    2  501    0  0.33709118833E+01  0.21580451074E+02 -0.90937087595E+01  0.23659553134E+02  0.00000000000E+00 0. -1.
         -2    1    1    2    0  502  0.83124855226E+01 -0.19749917778E+02  0.15982625070E+03  0.16125627765E+03  0.00000000000E+00 0.  1.
<mgrwt>
<rscale>  2 0.62276977E+02</rscale>
<asrwt>0</asrwt>
<pdfrwt beam="1">  1       21 0.50760514E-01 0.62276977E+02</pdfrwt>
<pdfrwt beam="2">  1       21 0.41969606E-02 0.62276977E+02</pdfrwt>
<totfact> 0.13106501E+06</totfact>
</mgrwt>
</event>
<event>
 5    1  0.1855960E+000  0.6650716E+02  0.7546771E-02  0.1372390E+00
         21   -1    0    0  503  502  0.00000000000E+00  0.00000000000E+00  0.13711591178E+02  0.13711591178E+02  0.00000000000E+00 0.  1.
         21   -1    0    0  501  503 -0.00000000000E+00 -0.00000000000E+00 -0.10271453424E+04  0.10271453424E+04  0.00000000000E+00 0.  1.
         24    1    1    2    0    0 -0.24620526892E+02  0.18718954959E+02 -0.77686140915E+03  0.78162486821E+03  0.80419002446E+02 0.  1.
          1    1    1    2  501    0  0.20146042465E+02  0.65552363279E+01 -0.23223696431E+03  0.23320129018E+03  0.00000000000E+00 0. -1.
         -2    1    1    2    0  502  0.44744844273E+01 -0.25274191287E+02 -0.43353777499E+01  0.26030775177E+02  0.00000000000E+00 0.  1.
<mgrwt>
<rscale>  2 0.66507155E+02</rscale>
<asrwt>0</asrwt>
<pdfrwt beam="1">  1       21 0.21094746E-02 0.66507155E+02</pdfrwt>
<pdfrwt beam="2">  1       21 0.15802243E+00 0.66507155E+02</pdfrwt>
<totfact> 0.30855110E+05</totfact>
</mgrwt>
</event>
<event>
 5    1  0.1855960E+000  0.1031838E+03  0.7546771E-02  0.1273740E+00
         21   -1    0    0  503  502  0.00000000000E+00  0.00000000000E+00  0.20795212551E+03  0.20795212551E+03  0.00000000000E+00 0.  1.
         21   -1    0    0  501  503 -0.00000000000E+00 -0.00000000000E+00 -0.94341355565E+02  0.94341355565E+02  0.00000000000E+00 0. -1.
         24    1    1    2    0    0 -0.42765272153E+02 -0.22356950155E+02  0.50652384151E+02  0.10659072050E+03  0.80419002446E+02 0.  1.
          1    1    1    2  501    0 -0.10309436456E+01 -0.37996944193E+02 -0.48487076260E+02  0.61610284670E+02  0.00000000000E+00 0. -1.
         -2    1    1    2    0  502  0.43796215798E+02  0.60353894349E+02  0.11144546206E+03  0.13409247591E+03  0.00000000000E+00 0.  1.
<mgrwt>
<rscale>  2 0.10318379E+03</rscale>
<asrwt>0</asrwt>
<pdfrwt beam="1">  1       21 0.31992635E-01 0.10318379E+03</pdfrwt>
<pdfrwt beam="2">  1       21 0.14514055E-01 0.10318379E+03</pdfrwt>
<totfact> 0.39666491E+05</totfact>
</mgrwt>
</event>
<event>
 5    1  0.2761461E+000  0.1281737E+03  0.7546771E-02  0.1230191E+00
         21   -1    0    0  501  502  0.00000000000E+00  0.00000000000E+00  0.47717552170E+03  0.47717552170E+03  0.00000000000E+00 0. -1.
         21   -1    0    0  502  503 -0.00000000000E+00 -0.00000000000E+00 -0.43889946918E+03  0.43889946918E+03  0.00000000000E+00 0.  1.
         24    1    1    2    0    0  0.51075891454E+01 -0.61100431706E+02  0.98463798754E+02  0.14114420229E+03  0.80419002446E+02 0.  1.
          1    1    1    2  501    0 -0.42689652898E+02 -0.32958278604E+02  0.34912787723E+03  0.35326891917E+03  0.00000000000E+00 0. -1.
         -2    1    1    2    0  503  0.37582063752E+02  0.94058710310E+02 -0.40931562347E+03  0.42166186942E+03  0.00000000000E+00 0.  1.
<mgrwt>
<rscale>  2 0.12817369E+03</rscale>
<asrwt>0</asrwt>
<pdfrwt beam="1">  1       21 0.73411619E-01 0.12817369E+03</pdfrwt>
<pdfrwt beam="2">  1       21 0.67522995E-01 0.12817369E+03</pdfrwt>
<totfact> 0.35558665E+03</totfact>
</mgrwt>
</event>
<event>
 5    1  0.1855960E+000  0.8827842E+02  0.7546771E-02  0.1307075E+00
         21   -1    0    0  503  502  0.00000000000E+00  0.00000000000E+00  0.10172193508E+03  0.10172193508E+03  0.00000000000E+00 0. -1.
         21   -1    0    0  501  503 -0.00000000000E+00 -0.00000000000E+00 -0.13793052392E+03  0.13793052392E+03  0.00000000000E+00 0.  1.
         24    1    1    2    0    0  0.15406727408E+02 -0.65615757563E+02 -0.89534882504E+02  0.13793660149E+03  0.80419002446E+02 0.  1.
          1    1    1    2  501    0 -0.20734116896E+02  0.36058402337E+02  0.12664420704E+01  0.41613890206E+02  0.00000000000E+00 0. -1.
         -2    1    1    2    0  502  0.53273894883E+01  0.29557355226E+02  0.52059851591E+02  0.60101967309E+02  0.00000000000E+00 0.  1.
<mgrwt>
<rscale>  2 0.88278417E+02</rscale>
<asrwt>0</asrwt>
<pdfrwt beam="1">  1       21 0.15649528E-01 0.88278417E+02</pdfrwt>
<pdfrwt beam="2">  1       21 0.21220081E-01 0.88278417E+02</pdfrwt>
<totfact> 0.75117391E+05</totfact>
</mgrwt>
</event>
<event>
 5    1  0.1855960E+000  0.1474576E+03  0.7546771E-02  0.1203632E+00
         21   -1    0    0  501  502  0.00000000000E+00  0.00000000000E+00  0.15834585344E+03  0.15834585344E+03  0.00000000000E+00 0. -1.
         21   -1    0    0  502  503 -0.00000000000E+00 -0.00000000000E+00 -0.91823967540E+03  0.91823967540E+03  0.00000000000E+00 0.  1.
         24    1    1    2    0    0 -0.84019823494E+01 -0.85615263888E+02 -0.51581163388E+03  0.52908357026E+03  0.80419002446E+02 0.  1.
          1    1    1    2  501    0  0.80573212734E+02  0.60421643569E+02  0.13070143242E+03  0.16500206683E+03  0.00000000000E+00 0. -1.
         -2    1    1    2    0  503 -0.72171230385E+02  0.25193620319E+02 -0.37478362049E+03  0.38249989175E+03  0.00000000000E+00 0.  1.
<mgrwt>
<rscale>  2 0.14745764E+03</rscale>
<asrwt>0</asrwt>
<pdfrwt beam="1">  1       21 0.24360901E-01 0.14745764E+03</pdfrwt>
<pdfrwt beam="2">  1       21 0.14126764E+00 0.14745764E+03</pdfrwt>
<totfact> 0.57902770E+03</totfact>
</mgrwt>
</event>
<event>
 5    1  0.1855960E+000  0.1237425E+03  0.7546771E-02  0.1237048E+00
         21   -1    0    0  501  502  0.00000000000E+00  0.00000000000E+00  0.82672184456E+03  0.82672184456E+03  0.00000000000E+00 0. -1.
         21   -1    0    0  502  503 -0.00000000000E+00 -0.00000000000E+00 -0.21099572608E+02  0.21099572608E+02  0.00000000000E+00 0.  1.
         24    1    1    2    0    0 -0.10530339708E+02 -0.70882631248E+02  0.35259949987E+03  0.36868531124E+03  0.80419002446E+02 0.  1.
          1    1    1    2  501    0  0.18121396063E+02 -0.31910632830E+02  0.23651720476E+03  0.23934715714E+03  0.00000000000E+00 0. -1.
         -2    1    1    2    0  503 -0.75910563552E+01  0.10279326408E+03  0.21650556732E+03  0.23978894878E+03  0.00000000000E+00 0.  1.
<mgrwt>
<rscale>  2 0.12374245E+03</rscale>
<asrwt>0</asrwt>
<pdfrwt beam="1">  1       21 0.12718795E+00 0.12374245E+03</pdfrwt>
<pdfrwt beam="2">  1       21 0.32460887E-02 0.12374245E+03</pdfrwt>
<totfact> 0.25925669E+05</totfact>
</mgrwt>
</event>
<event>
 5    1  0.1855960E+000  0.6842184E+02  0.7546771E-02  0.1365543E+00
         21   -1    0    0  501  502  0.00000000000E+00  0.00000000000E+00  0.47938156617E+02  0.47938156617E+02  0.00000000000E+00 0.  1.
         21   -1    0    0  502  503 -0.00000000000E+00 -0.00000000000E+00 -0.21022358229E+03  0.21022358229E+03  0.00000000000E+00 0. -1.
         24    1    1    2    0    0 -0.23033989815E+02 -0.35171897253E+02 -0.57074385238E+01  0.90925342189E+02  0.80419002446E+02 0.  1.
          1    1    1    2  501    0  0.20748718922E+02  0.14531882446E+02 -0.31383004416E+02  0.40330855564E+02  0.00000000000E+00 0. -1.
         -2    1    1    2    0  503  0.22852708932E+01  0.20640014808E+02 -0.12519498273E+03  0.12690554116E+03  0.00000000000E+00 0.  1.
<mgrwt>
<rscale>  2 0.68421840E+02</rscale>
<asrwt>0</asrwt>
<pdfrwt beam="1">  1       21 0.73751011E-02 0.68421840E+02</pdfrwt>
<pdfrwt beam="2">  1       21 0.32342089E-01 0.68421840E+02</pdfrwt>
<totfact> 0.12508642E+06</totfact>
</mgrwt>
</event>
<event>
 5    1  0.1855960E+000  0.1033558E+03  0.7546771E-02  0.1273393E+00
         21   -1    0    0  503  502  0.00000000000E+00  0.00000000000E+00  0.10642532675E+03  0.10642532675E+03  0.00000000000E+00 0.  1.
         21   -1    0    0  501  503 -0.00000000000E+00 -0.00000000000E+00 -0.35239313133E+03  0.35239313133E+03  0.00000000000E+00 0. -1.
         24    1    1    2    0    0  0.29167873267E+02 -0.18547902023E+02 -0.10751626262E+03  0.13864253381E+03  0.80419002446E+02 0.  1.
          1    1    1    2  501    0  0.31119602338E+01 -0.46477724469E+02 -0.21186732236E+03  0.21692769637E+03  0.00000000000E+00 0. -1.
         -2    1    1    2    0  502 -0.32279833501E+02  0.65025626492E+02  0.73415780396E+02  0.10324822789E+03  0.00000000000E+00 0.  1.
<mgrwt>
<rscale>  2 0.10335582E+03</rscale>
<asrwt>0</asrwt>
<pdfrwt beam="1">  1       21 0.16373127E-01 0.10335582E+03</pdfrwt>
<pdfrwt beam="2">  1       21 0.54214329E-01 0.10335582E+03</pdfrwt>
<totfact> 0.11128280E+05</totfact>
</mgrwt>
</event>
<event>
 5    1  0.1855960E+000  0.1642189E+03  0.7546771E-02  0.1184014E+00
         21   -1    0    0  503  502  0.00000000000E+00  0.00000000000E+00  0.73847936596E+02  0.73847936596E+02  0.00000000000E+00 0.  1.
         21   -1    0    0  501  503 -0.00000000000E+00 -0.00000000000E+00 -0.67484347942E+03  0.67484347942E+03  0.00000000000E+00 0. -1.
         24    1    1    2    0    0  0.81376332406E+02 -0.73208939127E+02 -0.15895038916E+03  0.20907916781E+03  0.80419002446E+02 0.  0.
          1    1    1    2  501    0 -0.74135064051E+02 -0.36521020598E+02 -0.41923490871E+03  0.42730282160E+03  0.00000000000E+00 0. -1.
         -2    1    1    2    0  502 -0.72412683554E+01  0.10972995972E+03 -0.22810244948E+02  0.11230942660E+03  0.00000000000E+00 0.  1.
<mgrwt>
<rscale>  2 0.16421891E+03</rscale>
<asrwt>0</asrwt>
<pdfrwt beam="1">  1       21 0.11361221E-01 0.16421891E+03</pdfrwt>
<pdfrwt beam="2">  1       21 0.10382208E+00 0.16421891E+03</pdfrwt>
<totfact> 0.49298241E+04</totfact>
</mgrwt>
</event>
<event>
 5    1  0.1855960E+000  0.7662010E+02  0.7546771E-02  0.1338926E+00
         21   -1    0    0  501  502  0.00000000000E+00  0.00000000000E+00  0.47458246798E+02  0.47458246798E+02  0.00000000000E+00 0. -1.
         21   -1    0    0  502  503 -0.00000000000E+00 -0.00000000000E+00 -0.23010649307E+03  0.23010649307E+03  0.00000000000E+00 0. -1.
         24    1    1    2    0    0  0.88446001484E+00  0.27099998164E+02 -0.14341230749E+03  0.16664182567E+03  0.80419002446E+02 0. -1.
          1    1    1    2  501    0  0.26079794634E+02  0.48908057773E+01  0.23547343422E+02  0.35476091266E+02  0.00000000000E+00 0. -1.
         -2    1    1    2    0  503 -0.26964254649E+02 -0.31990803941E+02 -0.62783282203E+02  0.75446822927E+02  0.00000000000E+00 0.  1.
<mgrwt>
<rscale>  2 0.76620098E+02</rscale>
<asrwt>0</asrwt>
<pdfrwt beam="1">  1       21 0.73012688E-02 0.76620098E+02</pdfrwt>
<pdfrwt beam="2">  1       21 0.35400999E-01 0.76620098E+02</pdfrwt>
<totfact> 0.10730723E+06</totfact>
</mgrwt>
</event>
<event>
 5    1  0.1855960E+000  0.7065994E+02  0.7546771E-02  0.1357863E+00
         21   -1    0    0  503  502  0.00000000000E+00  0.00000000000E+00  0.22571830347E+03  0.22571830347E+03  0.00000000000E+00 0. -1.
         21   -1    0    0  501  503 -0.00000000000E+00 -0.00000000000E+00 -0.33232913675E+02  0.33232913675E+02  0.00000000000E+00 0.  1.
         24    1    1    2    0    0 -0.85575330095E+01  0.12849010498E+02  0.46775851704E+02  0.94305486049E+02  0.80419002446E+02 0.  1.
          1    1    1    2  501    0  0.10669966571E+02 -0.35302558719E+02  0.32328161557E+02  0.49043132734E+02  0.00000000000E+00 0. -1.
         -2    1    1    2    0  502 -0.21124335618E+01  0.22453548220E+02  0.11338137653E+03  0.11560259836E+03  0.00000000000E+00 0.  1.
<mgrwt>
<rscale>  2 0.70659938E+02</rscale>
<asrwt>0</asrwt>
<pdfrwt beam="1">  1       21 0.34725892E-01 0.70659938E+02</pdfrwt>
<pdfrwt beam="2">  1       21 0.51127561E-02 0.70659938E+02</pdfrwt>
<totfact> 0.20150262E+06</totfact>
</mgrwt>
</event>
<event>
 5    1  0.1855960E+000  0.2718413E+03  0.7546771E-02  0.1100230E+00
         21   -1    0    0  503  502  0.00000000000E+00  0.00000000000E+00  0.26156032092E+03  0.26156032092E+03  0.00000000000E+00 0.  1.
         21   -1    0    0  501  503 -0.00000000000E+00 -0.00000000000E+00 -0.45310086100E+03  0.45310086100E+03  0.00000000000E+00 0. -1.
         24    1    1    2    0    0 -0.13937422966E+03 -0.13490353617E+03 -0.25489666173E+03  0.33024788278E+03  0.80419002446E+02 0. -1.
          1    1    1    2  501    0  0.21057139774E+03  0.38826153096E+02 -0.49738530623E+02  0.21982198511E+03  0.00000000000E+00 0. -1.
         -2    1    1    2    0  502 -0.71197168082E+02  0.96077383072E+02  0.11309465227E+03  0.16459131403E+03  0.00000000000E+00 0.  1.
<mgrwt>
<rscale>  2 0.27184128E+03</rscale>
<asrwt>0</asrwt>
<pdfrwt beam="1">  1       21 0.40240050E-01 0.27184128E+03</pdfrwt>
<pdfrwt beam="2">  1       21 0.69707824E-01 0.27184128E+03</pdfrwt>
<totfact> 0.10620932E+04</totfact>
</mgrwt>
</event>
<event>
 5    1  0.1855960E+000  0.7013331E+02  0.7546771E-02  0.1359640E+00
         21   -1    0    0  503  502  0.00000000000E+00  0.00000000000E+00  0.34657495579E+02  0.34657495579E+02  0.00000000000E+00 0.  1.
         21   -1    0    0  501  503 -0.00000000000E+00 -0.00000000000E+00 -0.17460507655E+03  0.17460507655E+03  0.00000000000E+00 0.  1.
         24    1    1    2    0    0 -0.16822803656E+02 -0.31964072767E+02 -0.11134492978E+03  0.14201978036E+03  0.80419002446E+02 0.  0.
          1    1    1    2  501    0  0.27559829554E+02  0.13358469713E+02 -0.33311869091E+02  0.45251226950E+02  0.00000000000E+00 0. -1.
         -2    1    1    2    0  502 -0.10737025898E+02  0.18605603054E+02  0.47092178997E+01  0.21991564823E+02  0.00000000000E+00 0.  1.
<mgrwt>
<rscale>  2 0.70133314E+02</rscale>
<asrwt>0</asrwt>
<pdfrwt beam="1">  1       21 0.53319224E-02 0.70133314E+02</pdfrwt>
<pdfrwt beam="2">  1       21 0.26862320E-01 0.70133314E+02</pdfrwt>
<totfact> 0.30599826E+06</totfact>
</mgrwt>
</event>
<event>
 5    1  0.1855960E+000  0.8805154E+02  0.7546771E-02  0.1307640E+00
         21   -1    0    0  503  502  0.00000000000E+00  0.00000000000E+00  0.21772849338E+03  0.21772849338E+03  0.00000000000E+00 0.  1.
         21   -1    0    0  501  503 -0.00000000000E+00 -0.00000000000E+00 -0.41147108558E+03  0.41147108558E+03  0.00000000000E+00 0. -1.
         24    1    1    2    0    0  0.30457548323E+02  0.95849940209E+01 -0.43826815934E+02  0.96992474499E+02  0.80419002446E+02 0.  1.
          1    1    1    2  501    0  0.28792501385E+02  0.31799246839E+01 -0.33561721227E+03  0.33686500743E+03  0.00000000000E+00 0. -1.
         -2    1    1    2    0  502 -0.59250049708E+02 -0.12764918705E+02  0.18570143601E+03  0.19534209704E+03  0.00000000000E+00 0.  1.
<mgrwt>
<rscale>  2 0.88051539E+02</rscale>
<asrwt>0</asrwt>
<pdfrwt beam="1">  1       21 0.33496691E-01 0.88051539E+02</pdfrwt>
<pdfrwt beam="2">  1       21 0.63303244E-01 0.88051539E+02</pdfrwt>
<totfact> 0.21409611E+04</totfact>
</mgrwt>
</event>
<event>
 5    1  0.1855960E+000  0.6670442E+02  0.7546771E-02  0.1371672E+00
         21   -1    0    0  503  502  0.00000000000E+00  0.00000000000E+00  0.18821141182E+03  0.18821141182E+03  0.00000000000E+00 0. -1.
         21   -1    0    0  501  503 -0.00000000000E+00 -0.00000000000E+00 -0.45426074504E+02  0.45426074504E+02  0.00000000000E+00 0. -1.
         24    1    1    2    0    0  0.34508416487E+02  0.93263147504E+01  0.72371448495E+02  0.11394144754E+03  0.80419002446E+02 0. -1.
          1    1    1    2  501    0 -0.12961095410E+02 -0.17995442687E+02 -0.17824323035E+02  0.28452283624E+02  0.00000000000E+00 0. -1.
         -2    1    1    2    0  502 -0.21547321077E+02  0.86691279371E+01  0.88238211856E+02  0.91243755164E+02  0.00000000000E+00 0.  1.
<mgrwt>
<rscale>  2 0.66704425E+02</rscale>
<asrwt>0</asrwt>
<pdfrwt beam="1">  1       21 0.28955601E-01 0.66704425E+02</pdfrwt>
<pdfrwt beam="2">  1       21 0.69886270E-02 0.66704425E+02</pdfrwt>
<totfact> 0.16875480E+06</totfact>
</mgrwt>
</event>
<event>
 5    1  0.1855960E+000  0.1298936E+03  0.7546771E-02  0.1227614E+00
         21   -1    0    0  501  502  0.00000000000E+00  0.00000000000E+00  0.88278495635E+03  0.88278495635E+03  0.00000000000E+00 0.  1.
         21   -1    0    0  502  503 -0.00000000000E+00 -0.00000000000E+00 -0.45401263390E+02  0.45401263390E+02  0.00000000000E+00 0.  1.
         24    1    1    2    0    0  0.82045360796E+02  0.82673808750E+02  0.18503985196E+03  0.23296644104E+03  0.80419002446E+02 0.  1.
          1    1    1    2  501    0 -0.66007985303E+02 -0.53543252869E+02  0.65625605460E+03  0.66173706505E+03  0.00000000000E+00 0. -1.
         -2    1    1    2    0  503 -0.16037375493E+02 -0.29130555881E+02 -0.39122136047E+01  0.33482713658E+02  0.00000000000E+00 0.  1.
<mgrwt>
<rscale>  2 0.12989363E+03</rscale>
<asrwt>0</asrwt>
<pdfrwt beam="1">  1       21 0.13581306E+00 0.12989363E+03</pdfrwt>
<pdfrwt beam="2">  1       21 0.69848104E-02 0.12989363E+03</pdfrwt>
<totfact> 0.60798937E+04</totfact>
</mgrwt>
</event>
<event>
 5    1  0.1855960E+000  0.6542961E+02  0.7546771E-02  0.1376363E+00
         21   -1    0    0  501  502  0.00000000000E+00  0.00000000000E+00  0.16964129217E+03  0.16964129217E+03  0.00000000000E+00 0.  1.
         21   -1    0    0  502  503 -0.00000000000E+00 -0.00000000000E+00 -0.28317811336E+02  0.28317811336E+02  0.00000000000E+00 0. -1.
         24    1    1    2    0    0  0.33564217204E+02  0.13553596428E+02  0.82215609877E+02  0.12056898073E+03  0.80419002446E+02 0.  0.
          1    1    1    2  501    0 -0.21820788147E+02  0.33605720571E+01  0.50418487239E+02  0.55040567724E+02  0.00000000000E+00 0. -1.
         -2    1    1    2    0  503 -0.11743429057E+02 -0.16914168485E+02  0.86893837173E+01  0.22349555050E+02  0.00000000000E+00 0.  1.
<mgrwt>
<rscale>  2 0.65429611E+02</rscale>
<asrwt>0</asrwt>
<pdfrwt beam="1">  1       21 0.26098660E-01 0.65429611E+02</pdfrwt>
<pdfrwt beam="2">  1       21 0.43565865E-02 0.65429611E+02</pdfrwt>
<totfact> 0.44839936E+06</totfact>
</mgrwt>
</event>
<event>
 5    1  0.1855960E+000  0.8156230E+02  0.7546771E-02  0.1324675E+00
         21   -1    0    0  501  502  0.00000000000E+00  0.00000000000E+00  0.43284449237E+03  0.43284449237E+03  0.00000000000E+00 0.  1.
         21   -1    0    0  502  503 -0.00000000000E+00 -0.00000000000E+00 -0.24027265157E+02  0.24027265157E+02  0.00000000000E+00 0. -1.
         24    1    1    2    0    0  0.74379864108E+01  0.34497753666E+02  0.29317974342E+03  0.30605064378E+03  0.80419002446E+02 0.  1.
          1    1    1    2  501    0 -0.19919769091E+02 -0.50918883416E+02  0.11800766360E+03  0.13005898107E+03  0.00000000000E+00 0. -1.
         -2    1    1    2    0  503  0.12481782680E+02  0.16421129750E+02 -0.23701798045E+01  0.20762132681E+02  0.00000000000E+00 0.  1.
<mgrwt>
<rscale>  2 0.81562300E+02</rscale>
<asrwt>0</asrwt>
<pdfrwt beam="1">  1       21 0.66591454E-01 0.81562300E+02</pdfrwt>
<pdfrwt beam="2">  1       21 0.36965027E-02 0.81562300E+02</pdfrwt>
<totfact> 0.92460592E+05</totfact>
</mgrwt>
</event>
<event>
 5    1  0.1855960E+000  0.7100546E+02  0.7546771E-02  0.1356707E+00
         21   -1    0    0  503  502  0.00000000000E+00  0.00000000000E+00  0.23949842361E+03  0.23949842361E+03  0.00000000000E+00 0. -1.
         21   -1    0    0  501  503 -0.00000000000E+00 -0.00000000000E+00 -0.41139338195E+02  0.41139338195E+02  0.00000000000E+00 0.  1.
         24    1    1    2    0    0  0.37870987713E+02 -0.12209005451E+02  0.40447804912E+02  0.98420081290E+02  0.80419002446E+02 0.  1.
          1    1    1    2  501    0 -0.18804397017E+02  0.23523227744E+02  0.86702370997E+01  0.31338803456E+02  0.00000000000E+00 0. -1.
         -2    1    1    2    0  502 -0.19066590696E+02 -0.11314222293E+02  0.14924104340E+03  0.15087887706E+03  0.00000000000E+00 0.  1.
<mgrwt>
<rscale>  2 0.71005464E+02</rscale>
<asrwt>0</asrwt>
<pdfrwt beam="1">  1       21 0.36845910E-01 0.71005464E+02</pdfrwt>
<pdfrwt beam="2">  1       21 0.63291291E-02 0.71005464E+02</pdfrwt>
<totfact> 0.12598211E+06</totfact>
</mgrwt>
</event>
<event>
 5    1  0.1855960E+000  0.8809536E+02  0.7546771E-02  0.1307531E+00
         21   -1    0    0  501  502  0.00000000000E+00  0.00000000000E+00  0.87647593170E+02  0.87647593170E+02  0.00000000000E+00 0. -1.
         21   -1    0    0  502  503 -0.00000000000E+00 -0.00000000000E+00 -0.12242420030E+03  0.12242420030E+03  0.00000000000E+00 0.  1.
         24    1    1    2    0    0 -0.47060445379E+02  0.49593303522E+02 -0.74271940881E+02  0.12906478385E+03  0.80419002446E+02 0.  1.
          1    1    1    2  501    0  0.26444932784E+02 -0.15096807297E+02  0.19041252955E+02  0.35914027546E+02  0.00000000000E+00 0. -1.
         -2    1    1    2    0  503  0.20615512596E+02 -0.34496496225E+02  0.20454080794E+02  0.45092982076E+02  0.00000000000E+00 0.  1.
<mgrwt>
<rscale>  2 0.88095361E+02</rscale>
<asrwt>0</asrwt>
<pdfrwt beam="1">  1       21 0.13484245E-01 0.88095361E+02</pdfrwt>
<pdfrwt beam="2">  1       21 0.18834492E-01 0.88095361E+02</pdfrwt>
<totfact> 0.12178147E+06</totfact>
</mgrwt>
</event>
<event>
 5    1  0.1855960E+000  0.1078934E+03  0.7546771E-02  0.1264521E+00
         21   -1    0    0  501  502  0.00000000000E+00  0.00000000000E+00  0.12459240856E+03  0.12459240856E+03  0.00000000000E+00 0. -1.
         21   -1    0    0  502  503 -0.00000000000E+00 -0.00000000000E+00 -0.98835053637E+02  0.98835053637E+02  0.00000000000E+00 0. -1.
         24    1    1    2    0    0 -0.91532667060E+02 -0.11633918814E+02  0.22606566265E+02  0.12446626048E+03  0.80419002446E+02 0. -1.
          1    1    1    2  501    0  0.56965782316E+02  0.14262473799E+02  0.17746757237E+02  0.61347093707E+02  0.00000000000E+00 0. -1.
         -2    1    1    2    0  503  0.34566884744E+02 -0.26285549856E+01 -0.14595968580E+02  0.37614108005E+02  0.00000000000E+00 0.  1.
<mgrwt>
<rscale>  2 0.10789341E+03</rscale>
<asrwt>0</asrwt>
<pdfrwt beam="1">  1       21 0.19168063E-01 0.10789341E+03</pdfrwt>
<pdfrwt beam="2">  1       21 0.15205393E-01 0.10789341E+03</pdfrwt>
<totfact> 0.95576786E+05</totfact>
</mgrwt>
</event>
<event>
 5    1  0.1855960E+000  0.7373960E+02  0.7546771E-02  0.1347819E+00
         21   -1    0    0  501  502  0.00000000000E+00  0.00000000000E+00  0.46157402406E+03  0.46157402406E+03  0.00000000000E+00 0.  1.
         21   -1    0    0  502  503 -0.00000000000E+00 -0.00000000000E+00 -0.25915137039E+02  0.25915137039E+02  0.00000000000E+00 0. -1.
         24    1    1    2    0    0  0.38161774800E+02 -0.35005805354E+02  0.76751460810E+02  0.12263657756E+03  0.80419002446E+02 0. -1.
          1    1    1    2  501    0 -0.19771745032E+02  0.19576314340E+02  0.29933525264E+03  0.30062559349E+03  0.00000000000E+00 0. -1.
         -2    1    1    2    0  503 -0.18390029769E+02  0.15429491014E+02  0.59572173570E+02  0.64226990057E+02  0.00000000000E+00 0.  1.
<mgrwt>
<rscale>  2 0.73739599E+02</rscale>
<asrwt>0</asrwt>
<pdfrwt beam="1">  1       21 0.71011382E-01 0.73739599E+02</pdfrwt>
<pdfrwt beam="2">  1       21 0.39869445E-02 0.73739599E+02</pdfrwt>
<totfact> 0.71109296E+05</totfact>
</mgrwt>
</event>
<event>
 5    1  0.1855960E+000  0.1819548E+03  0.7546771E-02  0.1165925E+00
         21   -1    0    0  503  502  0.00000000000E+00  0.00000000000E+00  0.42964446278E+03  0.42964446278E+03  0.00000000000E+00 0. -1.
         21   -1    0    0  501  503 -0.00000000000E+00 -0.00000000000E+00 -0.14398332469E+03  0.14398332469E+03  0.00000000000E+00 0. -1.
         24    1    1    2    0    0 -0.69935347486E+02  0.12906178482E+03  0.19876215284E+03  0.25984900708E+03  0.80419002446E+02 0. -1.
          1    1    1    2  501    0  0.12091536445E+02 -0.13754002944E+03 -0.63828812716E+02  0.15211042792E+03  0.00000000000E+00 0. -1.
         -2    1    1    2    0  502  0.57843811041E+02  0.84782446195E+01  0.15072779796E+03  0.16166835246E+03  0.00000000000E+00 0.  1.
<mgrwt>
<rscale>  2 0.18195475E+03</rscale>
<asrwt>0</asrwt>
<pdfrwt beam="1">  1       21 0.66099148E-01 0.18195475E+03</pdfrwt>
<pdfrwt beam="2">  1       21 0.22151281E-01 0.18195475E+03</pdfrwt>
<totfact> 0.40256863E+04</totfact>
</mgrwt>
</event>
<event>
 5    1  0.1855960E+000  0.8718290E+02  0.7546771E-02  0.1309821E+00
         21   -1    0    0  503  502  0.00000000000E+00  0.00000000000E+00  0.12205763522E+04  0.12205763522E+04  0.00000000000E+00 0.  1.
         21   -1    0    0  501  503 -0.00000000000E+00 -0.00000000000E+00 -0.74824600092E+01  0.74824600092E+01  0.00000000000E+00 0. -1.
         24    1    1    2    0    0  0.77622490248E+00 -0.22007290658E+02  0.52992724342E+03  0.53644666337E+03  0.80419002446E+02 0.  0.
          1    1    1    2  501    0 -0.10198401027E+02  0.55378871414E+02  0.21801066102E+03  0.22516543940E+03  0.00000000000E+00 0. -1.
         -2    1    1    2    0  502  0.94221761242E+01 -0.33371580756E+02  0.46515598770E+03  0.46644670939E+03  0.00000000000E+00 0.  1.
<mgrwt>
<rscale>  2 0.87182899E+02</rscale>
<asrwt>0</asrwt>
<pdfrwt beam="1">  1       21 0.18778082E+00 0.87182899E+02</pdfrwt>
<pdfrwt beam="2">  1       21 0.11511487E-02 0.87182899E+02</pdfrwt>
<totfact> 0.50353532E+05</totfact>
</mgrwt>
</event>
<event>
 5    1  0.1855960E+000  0.7734698E+02  0.7546771E-02  0.1336753E+00
         21   -1    0    0  501  502  0.00000000000E+00  0.00000000000E+00  0.27756723990E+03  0.27756723990E+03  0.00000000000E+00 0. -1.
         21   -1    0    0  502  503 -0.00000000000E+00 -0.00000000000E+00 -0.25856527760E+02  0.25856527760E+02  0.00000000000E+00 0. -1.
         24    1    1    2    0    0  0.49027444570E+02  0.23466092496E+02  0.11503198204E+03  0.15051219441E+03  0.80419002446E+02 0. -1.
          1    1    1    2  501    0 -0.30839644894E+02 -0.41831025827E+01  0.11353276261E+03  0.11772115455E+03  0.00000000000E+00 0. -1.
         -2    1    1    2    0  503 -0.18187799676E+02 -0.19282989913E+02  0.23145967488E+02  0.35190418696E+02  0.00000000000E+00 0.  1.
<mgrwt>
<rscale>  2 0.77346978E+02</rscale>
<asrwt>0</asrwt>
<pdfrwt beam="1">  1       21 0.42702650E-01 0.77346978E+02</pdfrwt>
<pdfrwt beam="2">  1       21 0.39779276E-02 0.77346978E+02</pdfrwt>
<totfact> 0.20409638E+06</totfact>
</mgrwt>
</event>
<event>
 5    1  0.2301639E+000  0.1010628E+03  0.7546771E-02  0.1278077E+00
         21   -1    0    0  503  502  0.00000000000E+00  0.00000000000E+00  0.55477605116E+03  0.55477605116E+03  0.00000000000E+00 0.  1.
         21   -1    0    0  501  503 -0.00000000000E+00 -0.00000000000E+00 -0.18398190305E+03  0.18398190305E+03  0.00000000000E+00 0. -1.
         24    1    1    2    0    0  0.11477056566E+02 -0.44865924554E+02  0.11936403409E+03  0.15119412225E+03  0.80419002446E+02 0. -1.
          1    1    1    2  501    0 -0.41819392856E+02  0.61767741844E+02 -0.15902049299E+03  0.17564632858E+03  0.00000000000E+00 0. -1.
         -2    1    1    2    0  502  0.30342336290E+02 -0.16901817290E+02  0.41045060701E+03  0.41191750339E+03  0.00000000000E+00 0.  1.
<mgrwt>
<rscale>  2 0.10106276E+03</rscale>
<asrwt>0</asrwt>
<pdfrwt beam="1">  1       21 0.85350161E-01 0.10106276E+03</pdfrwt>
<pdfrwt beam="2">  1       21 0.28304908E-01 0.10106276E+03</pdfrwt>
<totfact> 0.15208494E+04</totfact>
</mgrwt>
</event>
<event>
 5    1  0.1855960E+000  0.7874033E+02  0.7546771E-02  0.1332665E+00
         21   -1    0    0  501  502  0.00000000000E+00  0.00000000000E+00  0.76629201726E+02  0.76629201726E+02  0.00000000000E+00 0.  1.
         21   -1    0    0  502  503 -0.00000000000E+00 -0.00000000000E+00 -0.10654667741E+03  0.10654667741E+03  0.00000000000E+00 0. -1.
         24    1    1    2    0    0  0.56528292642E+02  0.11607612714E+02  0.25093995750E+02  0.10211321716E+03  0.80419002446E+02 0.  1.
          1    1    1    2  501    0 -0.25240656589E+02 -0.10064325439E+02 -0.18096162212E+02  0.32647396196E+02  0.00000000000E+00 0. -1.
         -2    1    1    2    0  503 -0.31287636053E+02 -0.15432872751E+01 -0.36915309219E+02  0.48415265776E+02  0.00000000000E+00 0.  1.
<mgrwt>
<rscale>  2 0.78740334E+02</rscale>
<asrwt>0</asrwt>
<pdfrwt beam="1">  1       21 0.11789108E-01 0.78740334E+02</pdfrwt>
<pdfrwt beam="2">  1       21 0.16391796E-01 0.78740334E+02</pdfrwt>
<totfact> 0.19735992E+06</totfact>
</mgrwt>
</event>
<event>
 5    1  0.1855960E+000  0.1123737E+03  0.7546771E-02  0.1256236E+00
         21   -1    0    0  501  502  0.00000000000E+00  0.00000000000E+00  0.71276991775E+03  0.71276991775E+03  0.00000000000E+00 0.  1.
         21   -1    0    0  502  503 -0.00000000000E+00 -0.00000000000E+00 -0.35381328330E+02  0.35381328330E+02  0.00000000000E+00 0. -1.
         24    1    1    2    0    0  0.21163189064E+02  0.66484493247E+01  0.13108269225E+03  0.15537686640E+03  0.80419002446E+02 0.  1.
          1    1    1    2  501    0 -0.74939741095E+02 -0.32468351852E+02  0.52201380088E+03  0.52836404777E+03  0.00000000000E+00 0. -1.
         -2    1    1    2    0  503  0.53776552030E+02  0.25819902527E+02  0.24292096289E+02  0.64410331911E+02  0.00000000000E+00 0.  1.
<mgrwt>
<rscale>  2 0.11237366E+03</rscale>
<asrwt>0</asrwt>
<pdfrwt beam="1">  1       21 0.10965690E+00 0.11237366E+03</pdfrwt>
<pdfrwt beam="2">  1       21 0.54432818E-02 0.11237366E+03</pdfrwt>
<totfact> 0.15791399E+05</totfact>
</mgrwt>
</event>
<event>
 5    1  0.1855960E+000  0.7160963E+02  0.7546771E-02  0.1354703E+00
         21   -1    0    0  501  502  0.00000000000E+00  0.00000000000E+00  0.28498515443E+02  0.28498515443E+02  0.00000000000E+00 0. -1.
         21   -1    0    0  502  503 -0.00000000000E+00 -0.00000000000E+00 -0.44980242938E+03  0.44980242938E+03  0.00000000000E+00 0. -1.
         24    1    1    2    0    0  0.23638136956E+02  0.42584981411E+02 -0.36754936499E+03  0.37938370263E+03  0.80419002446E+02 0. -1.
          1    1    1    2  501    0 -0.69756293328E+01 -0.19655061395E+02  0.14238228261E+02  0.25252880767E+02  0.00000000000E+00 0. -1.
         -2    1    1    2    0  503 -0.16662507623E+02 -0.22929920016E+02 -0.67992777204E+02  0.73664361425E+02  0.00000000000E+00 0.  1.
<mgrwt>
<rscale>  2 0.71609629E+02</rscale>
<asrwt>0</asrwt>
<pdfrwt beam="1">  1       21 0.43843876E-02 0.71609629E+02</pdfrwt>
<pdfrwt beam="2">  1       21 0.69200365E-01 0.71609629E+02</pdfrwt>
<totfact> 0.64288973E+05</totfact>
</mgrwt>
</event>
<event>
 5    1  0.1855960E+000  0.7024852E+02  0.7546771E-02  0.1359250E+00
         21   -1    0    0  503  502  0.00000000000E+00  0.00000000000E+00  0.10915673305E+03  0.10915673305E+03  0.00000000000E+00 0. -1.
         21   -1    0    0  501  503 -0.00000000000E+00 -0.00000000000E+00 -0.96581714392E+02  0.96581714392E+02  0.00000000000E+00 0. -1.
         24    1    1    2    0    0  0.69275973700E+01 -0.46692815337E+02  0.56596062760E+02  0.10908043309E+03  0.80419002446E+02 0. -1.
          1    1    1    2  501    0 -0.43544395521E+01  0.22420161691E+02 -0.62175879259E+02  0.66237940455E+02  0.00000000000E+00 0. -1.
         -2    1    1    2    0  502 -0.25731578179E+01  0.24272653646E+02  0.18154835160E+02  0.30420073896E+02  0.00000000000E+00 0.  1.
<mgrwt>
<rscale>  2 0.70248521E+02</rscale>
<asrwt>0</asrwt>
<pdfrwt beam="1">  1       21 0.16793343E-01 0.70248521E+02</pdfrwt>
<pdfrwt beam="2">  1       21 0.14858725E-01 0.70248521E+02</pdfrwt>
<totfact> 0.12524649E+06</totfact>
</mgrwt>
</event>
<event>
 5    1  0.1855960E+000  0.1287938E+03  0.7546771E-02  0.1229257E+00
         21   -1    0    0  503  502  0.00000000000E+00  0.00000000000E+00  0.22381665978E+03  0.22381665978E+03  0.00000000000E+00 0.  1.
         21   -1    0    0  501  503 -0.00000000000E+00 -0.00000000000E+00 -0.99484585967E+02  0.99484585967E+02  0.00000000000E+00 0.  1.
         24    1    1    2    0    0 -0.54061742107E+02 -0.99388756374E+02  0.37831809632E+02  0.14387236923E+03  0.80419002446E+02 0.  1.
          1    1    1    2  501    0  0.25011845449E+02  0.14175755000E+02 -0.23607776384E+02  0.37200424035E+02  0.00000000000E+00 0. -1.
         -2    1    1    2    0  502  0.29049896657E+02  0.85213001373E+02  0.11010804057E+03  0.14222845249E+03  0.00000000000E+00 0.  1.
<mgrwt>
<rscale>  2 0.12879379E+03</rscale>
<asrwt>0</asrwt>
<pdfrwt beam="1">  1       21 0.34433332E-01 0.12879379E+03</pdfrwt>
<pdfrwt beam="2">  1       21 0.15305321E-01 0.12879379E+03</pdfrwt>
<totfact> 0.31137519E+05</totfact>
</mgrwt>
</event>
<event>
 5    1  0.1855960E+000  0.8069747E+02  0.7546771E-02  0.1327084E+00
         21   -1    0    0  501  502  0.00000000000E+00  0.00000000000E+00  0.12919354653E+03  0.12919354653E+03  0.00000000000E+00 0. -1.
         21   -1    0    0  502  503 -0.00000000000E+00 -0.00000000000E+00 -0.13516059584E+03  0.13516059584E+03  0.00000000000E+00 0.  1.
         24    1    1    2    0    0 -0.24054846813E+02  0.10150367270E+02  0.34467740297E+02  0.91306662881E+02  0.80419002446E+02 0. -1.
          1    1    1    2  501    0  0.45329094053E+02 -0.24165293515E+02  0.54417947236E+02  0.74833155485E+02  0.00000000000E+00 0. -1.
         -2    1    1    2    0  503 -0.21274247241E+02  0.14014926245E+02 -0.94852736844E+02  0.98214324007E+02  0.00000000000E+00 0.  1.
<mgrwt>
<rscale>  2 0.80697466E+02</rscale>
<asrwt>0</asrwt>
<pdfrwt beam="1">  1       21 0.19875930E-01 0.80697466E+02</pdfrwt>
<pdfrwt beam="2">  1       21 0.20793938E-01 0.80697466E+02</pdfrwt>
<totfact> 0.50588064E+05</totfact>
</mgrwt>
</event>
<event>
 5    1  0.1855960E+000  0.7951584E+02  0.7546771E-02  0.1330431E+00
         21   -1    0    0  503  502  0.00000000000E+00  0.00000000000E+00  0.37403285206E+03  0.37403285206E+03  0.00000000000E+00 0.  1.
         21   -1    0    0  501  503 -0.00000000000E+00 -0.00000000000E+00 -0.17736144875E+02  0.17736144875E+02  0.00000000000E+00 0. -1.
         24    1    1    2    0    0  0.34194697844E+01  0.21527531794E+02  0.19342525001E+03  0.21060786000E+03  0.80419002446E+02 0.  0.
          1    1    1    2  501    0 -0.37636056042E+02 -0.59044504423E+01  0.54883480776E+02  0.66809667800E+02  0.00000000000E+00 0. -1.
         -2    1    1    2    0  502  0.34216586258E+02 -0.15623081352E+02  0.10798797640E+03  0.11435146913E+03  0.00000000000E+00 0.  1.
<mgrwt>
<rscale>  2 0.79515842E+02</rscale>
<asrwt>0</asrwt>
<pdfrwt beam="1">  1       21 0.57543510E-01 0.79515842E+02</pdfrwt>
<pdfrwt beam="2">  1       21 0.27286380E-02 0.79515842E+02</pdfrwt>
<totfact> 0.20577270E+06</totfact>
</mgrwt>
</event>
<event>
 5    1  0.1855960E+000  0.8817590E+02  0.7546771E-02  0.1307330E+00
         21   -1    0    0  503  502  0.00000000000E+00  0.00000000000E+00  0.11446223732E+03  0.11446223732E+03  0.00000000000E+00 0. -1.
         21   -1    0    0  501  503 -0.00000000000E+00 -0.00000000000E+00 -0.13642431280E+03  0.13642431280E+03  0.00000000000E+00 0.  1.
         24    1    1    2    0    0  0.99437798086E+01  0.46904284401E+02 -0.87539215675E+02  0.12817652237E+03  0.80419002446E+02 0.  1.
          1    1    1    2  501    0 -0.35589905400E+02 -0.44477044380E+02  0.53613498423E+01  0.57215320635E+02  0.00000000000E+00 0. -1.
         -2    1    1    2    0  502  0.25646125592E+02 -0.24272400211E+01  0.60215790357E+02  0.65494707117E+02  0.00000000000E+00 0.  1.
<mgrwt>
<rscale>  2 0.88175897E+02</rscale>
<asrwt>0</asrwt>
<pdfrwt beam="1">  1       21 0.17609575E-01 0.88175897E+02</pdfrwt>
<pdfrwt beam="2">  1       21 0.20988356E-01 0.88175897E+02</pdfrwt>
<totfact> 0.61988422E+05</totfact>
</mgrwt>
</event>
<event>
 5    1  0.1855960E+000  0.1178908E+03  0.7546771E-02  0.1246618E+00
         21   -1    0    0  503  502  0.00000000000E+00  0.00000000000E+00  0.15931438511E+02  0.15931438511E+02  0.00000000000E+00 0. -1.
         21   -1    0    0  501  503 -0.00000000000E+00 -0.00000000000E+00 -0.12657961489E+04  0.12657961489E+04  0.00000000000E+00 0. -1.
         24    1    1    2    0    0 -0.54339580444E+01 -0.77933796015E+02 -0.31174077933E+03  0.33128950167E+03  0.80419002446E+02 0.  0.
          1    1    1    2  501    0 -0.41671808211E+02  0.13413455181E+02 -0.64917224792E+03  0.65064665361E+03  0.00000000000E+00 0. -1.
         -2    1    1    2    0  502  0.47105766255E+02  0.64520340834E+02 -0.28895168311E+03  0.29979143211E+03  0.00000000000E+00 0.  1.
<mgrwt>
<rscale>  2 0.11789081E+03</rscale>
<asrwt>0</asrwt>
<pdfrwt beam="1">  1       21 0.24509897E-02 0.11789081E+03</pdfrwt>
<pdfrwt beam="2">  1       21 0.19473794E+00 0.11789081E+03</pdfrwt>
<totfact> 0.13384933E+05</totfact>
</mgrwt>
</event>
<event>
 5    1  0.1855960E+000  0.9772819E+02  0.7546771E-02  0.1285147E+00
         21   -1    0    0  501  502  0.00000000000E+00  0.00000000000E+00  0.37780220039E+03  0.37780220039E+03  0.00000000000E+00 0. -1.
         21   -1    0    0  502  503 -0.00000000000E+00 -0.00000000000E+00 -0.34376874347E+02  0.34376874347E+02  0.00000000000E+00 0. -1.
         24    1    1    2    0    0  0.61920738080E+02  0.14945872944E+02  0.14041826113E+03  0.17390244661E+03  0.80419002446E+02 0. -1.
          1    1    1    2  501    0 -0.33720693443E+02  0.26395208798E+02  0.17655171901E+03  0.18167086090E+03  0.00000000000E+00 0. -1.
         -2    1    1    2    0  503 -0.28200044637E+02 -0.41341081742E+02  0.26455345900E+02  0.56605767232E+02  0.00000000000E+00 0.  1.
<mgrwt>
<rscale>  2 0.97728186E+02</rscale>
<asrwt>0</asrwt>
<pdfrwt beam="1">  1       21 0.58123413E-01 0.97728186E+02</pdfrwt>
<pdfrwt beam="2">  1       21 0.52887502E-02 0.97728186E+02</pdfrwt>
<totfact> 0.68267715E+05</totfact>
</mgrwt>
</event>
<event>
 5    1  0.1855960E+000  0.8685754E+02  0.7546771E-02  0.1310645E+00
         21   -1    0    0  501  502  0.00000000000E+00  0.00000000000E+00  0.25907385615E+02  0.25907385615E+02  0.00000000000E+00 0. -1.
         21   -1    0    0  502  503 -0.00000000000E+00 -0.00000000000E+00 -0.43681120661E+03  0.43681120661E+03  0.00000000000E+00 0.  1.
         24    1    1    2    0    0 -0.14438192609E+02 -0.88629941546E+01 -0.17696950210E+03  0.19512158952E+03  0.80419002446E+02 0. -1.
          1    1    1    2  501    0 -0.56632617667E+01  0.47575136132E+02 -0.24774940624E+02  0.53937591666E+02  0.00000000000E+00 0. -1.
         -2    1    1    2    0  503  0.20101454375E+02 -0.38712141977E+02 -0.20915937828E+03  0.21365941104E+03  0.00000000000E+00 0.  1.
<mgrwt>
<rscale>  2 0.86857538E+02</rscale>
<asrwt>0</asrwt>
<pdfrwt beam="1">  1       21 0.39857521E-02 0.86857538E+02</pdfrwt>
<pdfrwt beam="2">  1       21 0.67201716E-01 0.86857538E+02</pdfrwt>
<totfact> 0.80200389E+05</totfact>
</mgrwt>
</event>
<event>
 5    1  0.1855960E+000  0.1212449E+03  0.7546771E-02  0.1241057E+00
         21   -1    0    0  503  502  0.00000000000E+00  0.00000000000E+00  0.85388375748E+03  0.85388375748E+03  0.00000000000E+00 0. -1.
         21   -1    0    0  501  503 -0.00000000000E+00 -0.00000000000E+00 -0.18218542414E+02  0.18218542414E+02  0.00000000000E+00 0. -1.
         24    1    1    2    0    0 -0.16821897891E+02  0.99213131203E+02  0.46371354549E+03  0.48127298894E+03  0.80419002446E+02 0. -1.
          1    1    1    2  501    0  0.35671497712E+02 -0.74438187914E+02  0.20489644664E+03  0.22089828749E+03  0.00000000000E+00 0. -1.
         -2    1    1    2    0  502 -0.18849599821E+02 -0.24774943289E+02  0.16705522293E+03  0.16993102347E+03  0.00000000000E+00 0.  1.
<mgrwt>
<rscale>  2 0.12124495E+03</rscale>
<asrwt>0</asrwt>
<pdfrwt beam="1">  1       21 0.13136670E+00 0.12124495E+03</pdfrwt>
<pdfrwt beam="2">  1       21 0.28028533E-02 0.12124495E+03</pdfrwt>
<totfact> 0.30460813E+05</totfact>
</mgrwt>
</event>
<event>
 5    1  0.1855960E+000  0.6647603E+02  0.7546771E-02  0.1372504E+00
         21   -1    0    0  501  502  0.00000000000E+00  0.00000000000E+00  0.52290324930E+01  0.52290324930E+01  0.00000000000E+00 0.  1.
         21   -1    0    0  502  503 -0.00000000000E+00 -0.00000000000E+00 -0.12067958978E+04  0.12067958978E+04  0.00000000000E+00 0. -1.
         24    1    1    2    0    0  0.51545620408E+01  0.68563776493E+01 -0.44613347477E+03  0.45340475592E+03  0.80419002446E+02 0.  1.
          1    1    1    2  501    0 -0.20421826179E+02 -0.22384520505E+02 -0.16335327149E+03  0.16613972749E+03  0.00000000000E+00 0. -1.
         -2    1    1    2    0  503  0.15267264138E+02  0.15528142856E+02 -0.59208011901E+03  0.59248044685E+03  0.00000000000E+00 0.  1.
<mgrwt>
<rscale>  2 0.66476032E+02</rscale>
<asrwt>0</asrwt>
<pdfrwt beam="1">  1       21 0.80446588E-03 0.66476032E+02</pdfrwt>
<pdfrwt beam="2">  1       21 0.18566106E+00 0.66476032E+02</pdfrwt>
<totfact> 0.91320572E+05</totfact>
</mgrwt>
</event>
<event>
 5    1  0.1855960E+000  0.7056697E+02  0.7546771E-02  0.1358176E+00
         21   -1    0    0  503  502  0.00000000000E+00  0.00000000000E+00  0.64447427897E+03  0.64447427897E+03  0.00000000000E+00 0. -1.
         21   -1    0    0  501  503 -0.00000000000E+00 -0.00000000000E+00 -0.84581767773E+02  0.84581767773E+02  0.00000000000E+00 0. -1.
         24    1    1    2    0    0  0.46481591084E+02 -0.77338671735E+00  0.33703259297E+03  0.34959880022E+03  0.80419002446E+02 0. -1.
          1    1    1    2  501    0 -0.22232907714E+02  0.68169806197E+01 -0.76039007566E+02  0.79515432979E+02  0.00000000000E+00 0. -1.
         -2    1    1    2    0  502 -0.24248683370E+02 -0.60435939024E+01  0.29889892580E+03  0.29994181355E+03  0.00000000000E+00 0.  1.
<mgrwt>
<rscale>  2 0.70566966E+02</rscale>
<asrwt>0</asrwt>
<pdfrwt beam="1">  1       21 0.99149886E-01 0.70566966E+02</pdfrwt>
<pdfrwt beam="2">  1       21 0.13012580E-01 0.70566966E+02</pdfrwt>
<totfact> 0.46085757E+04</totfact>
</mgrwt>
</event>
<event>
 5    1  0.1855960E+000  0.9797796E+02  0.7546771E-02  0.1284606E+00
         21   -1    0    0  501  502  0.00000000000E+00  0.00000000000E+00  0.10398277288E+03  0.10398277288E+03  0.00000000000E+00 0. -1.
         21   -1    0    0  502  503 -0.00000000000E+00 -0.00000000000E+00 -0.14366466406E+03  0.14366466406E+03  0.00000000000E+00 0. -1.
         24    1    1    2    0    0  0.22027000035E+02 -0.55650414006E+02 -0.90880510333E+02  0.13530942474E+03  0.80419002446E+02 0. -1.
          1    1    1    2  501    0 -0.28043123647E+02 -0.10008344434E+02  0.31901886314E+02  0.43638447413E+02  0.00000000000E+00 0. -1.
         -2    1    1    2    0  503  0.60161236119E+01  0.65658758440E+02  0.19296732839E+02  0.68699564783E+02  0.00000000000E+00 0.  1.
<mgrwt>
<rscale>  2 0.97977960E+02</rscale>
<asrwt>0</asrwt>
<pdfrwt beam="1">  1       21 0.15997350E-01 0.97977960E+02</pdfrwt>
<pdfrwt beam="2">  1       21 0.22102256E-01 0.97977960E+02</pdfrwt>
<totfact> 0.67038416E+05</totfact>
</mgrwt>
</event>
<event>
 5    1  0.1855960E+000  0.8632825E+02  0.7546771E-02  0.1311995E+00
         21   -1    0    0  501  502  0.00000000000E+00  0.00000000000E+00  0.10158462271E+03  0.10158462271E+03  0.00000000000E+00 0.  1.
         21   -1    0    0  502  503 -0.00000000000E+00 -0.00000000000E+00 -0.13421405061E+03  0.13421405061E+03  0.00000000000E+00 0.  1.
         24    1    1    2    0    0  0.92356352491E+01 -0.24396287812E+02 -0.72032874422E+02  0.11106946821E+03  0.80419002446E+02 0.  1.
          1    1    1    2  501    0  0.37016344607E+02  0.29601592712E+01  0.59331737366E+02  0.69994480996E+02  0.00000000000E+00 0. -1.
         -2    1    1    2    0  503 -0.46251979856E+02  0.21436128541E+02 -0.19928290839E+02  0.54734724108E+02  0.00000000000E+00 0.  1.
<mgrwt>
<rscale>  2 0.86328254E+02</rscale>
<asrwt>0</asrwt>
<pdfrwt beam="1">  1       21 0.15628404E-01 0.86328254E+02</pdfrwt>
<pdfrwt beam="2">  1       21 0.20648315E-01 0.86328254E+02</pdfrwt>
<totfact> 0.79147412E+05</totfact>
</mgrwt>
</event>
<event>
 5    1  0.1855960E+000  0.7016594E+02  0.7546771E-02  0.1359530E+00
         21   -1    0    0  503  502  0.00000000000E+00  0.00000000000E+00  0.34358704408E+02  0.34358704408E+02  0.00000000000E+00 0. -1.
         21   -1    0    0  501  503 -0.00000000000E+00 -0.00000000000E+00 -0.24144574805E+03  0.24144574805E+03  0.00000000000E+00 0. -1.
         24    1    1    2    0    0 -0.11636424111E+01  0.34909382396E+02 -0.92862186182E+02  0.12771304013E+03  0.80419002446E+02 0. -1.
          1    1    1    2  501    0  0.20281474352E+02 -0.18808476646E+02 -0.11940391716E+03  0.12256586975E+03  0.00000000000E+00 0. -1.
         -2    1    1    2    0  502 -0.19117831941E+02 -0.16100905750E+02  0.51790597010E+01  0.25525542570E+02  0.00000000000E+00 0.  1.
<mgrwt>
<rscale>  2 0.70165939E+02</rscale>
<asrwt>0</asrwt>
<pdfrwt beam="1">  1       21 0.52859545E-02 0.70165939E+02</pdfrwt>
<pdfrwt beam="2">  1       21 0.37145500E-01 0.70165939E+02</pdfrwt>
<totfact> 0.16731744E+06</totfact>
</mgrwt>
</event>
<event>
 5    1  0.1855960E+000  0.8944200E+02  0.7546771E-02  0.1304209E+00
         21   -1    0    0  503  502  0.00000000000E+00  0.00000000000E+00  0.46598006818E+02  0.46598006818E+02  0.00000000000E+00 0. -1.
         21   -1    0    0  501  503 -0.00000000000E+00 -0.00000000000E+00 -0.29758424433E+03  0.29758424433E+03  0.00000000000E+00 0. -1.
         24    1    1    2    0    0 -0.45458701881E+02  0.49524903007E+02 -0.11037657004E+03  0.15221502147E+03  0.80419002446E+02 0.  0.
          1    1    1    2  501    0  0.44356463031E+02 -0.27871110842E+02 -0.15653308769E+03  0.16506635688E+03  0.00000000000E+00 0. -1.
         -2    1    1    2    0  502  0.11022388500E+01 -0.21653792165E+02  0.15923420217E+02  0.26900872793E+02  0.00000000000E+00 0.  1.
<mgrwt>
<rscale>  2 0.89441997E+02</rscale>
<asrwt>0</asrwt>
<pdfrwt beam="1">  1       21 0.71689243E-02 0.89441997E+02</pdfrwt>
<pdfrwt beam="2">  1       21 0.45782190E-01 0.89441997E+02</pdfrwt>
<totfact> 0.66756389E+05</totfact>
</mgrwt>
</event>
<event>
 5    1  0.1855960E+000  0.9085829E+02  0.7546771E-02  0.1300786E+00
         21   -1    0    0  503  502  0.00000000000E+00  0.00000000000E+00  0.40445855127E+03  0.40445855127E+03  0.00000000000E+00 0.  1.
         21   -1    0    0  501  503 -0.00000000000E+00 -0.00000000000E+00 -0.54073776978E+02  0.54073776978E+02  0.00000000000E+00 0. -1.
         24    1    1    2    0    0 -0.34013005123E+02 -0.27619181398E+02  0.34341526912E+03  0.35541661008E+03  0.80419002446E+02 0.  1.
          1    1    1    2  501    0 -0.10201180844E+02  0.42327948634E+02 -0.21449495424E+02  0.48536585996E+02  0.00000000000E+00 0. -1.
         -2    1    1    2    0  502  0.44214185968E+02 -0.14708767236E+02  0.28419000598E+02  0.54579132179E+02  0.00000000000E+00 0.  1.
<mgrwt>
<rscale>  2 0.90858287E+02</rscale>
<asrwt>0</asrwt>
<pdfrwt beam="1">  1       21 0.62224391E-01 0.90858287E+02</pdfrwt>
<pdfrwt beam="2">  1       21 0.83190429E-02 0.90858287E+02</pdfrwt>
<totfact> 0.27503081E+05</totfact>
</mgrwt>
</event>
<event>
 5    1  0.1855960E+000  0.1325164E+03  0.7546771E-02  0.1223769E+00
         21   -1    0    0  503  502  0.00000000000E+00  0.00000000000E+00  0.11974526763E+04  0.11974526763E+04  0.00000000000E+00 0.  1.
         21   -1    0    0  501  503 -0.00000000000E+00 -0.00000000000E+00 -0.19177416284E+02  0.19177416284E+02  0.00000000000E+00 0. -1.
         24    1    1    2    0    0 -0.25757747524E+02  0.84721667772E+02  0.26989560537E+03  0.29521530499E+03  0.80419002446E+02 0. -1.
          1    1    1    2  501    0  0.65424975675E+02 -0.18107131880E+02  0.27260149644E+03  0.28092680814E+03  0.00000000000E+00 0. -1.
         -2    1    1    2    0  502 -0.39667228151E+02 -0.66614535891E+02  0.63577815817E+03  0.64048797943E+03  0.00000000000E+00 0.  1.
<mgrwt>
<rscale>  2 0.13251643E+03</rscale>
<asrwt>0</asrwt>
<pdfrwt beam="1">  1       21 0.18422343E+00 0.13251643E+03</pdfrwt>
<pdfrwt beam="2">  1       21 0.29503727E-02 0.13251643E+03</pdfrwt>
<totfact> 0.11458159E+05</totfact>
</mgrwt>
</event>
<event>
 5    1  0.1855960E+000  0.7584832E+02  0.7546771E-02  0.1341264E+00
         21   -1    0    0  503  502  0.00000000000E+00  0.00000000000E+00  0.32386963306E+03  0.32386963306E+03  0.00000000000E+00 0.  1.
         21   -1    0    0  501  503 -0.00000000000E+00 -0.00000000000E+00 -0.22421254760E+02  0.22421254760E+02  0.00000000000E+00 0.  1.
         24    1    1    2    0    0 -0.14344304858E+02 -0.31267058196E+02  0.90853169008E+02  0.12611463945E+03  0.80419002446E+02 0.  1.
          1    1    1    2  501    0 -0.20129356300E+02  0.18878312202E+02  0.92820526126E+02  0.96836107558E+02  0.00000000000E+00 0. -1.
         -2    1    1    2    0  502  0.34473661158E+02  0.12388745995E+02  0.11777468317E+03  0.12334014082E+03  0.00000000000E+00 0.  1.
<mgrwt>
<rscale>  2 0.75848324E+02</rscale>
<asrwt>0</asrwt>
<pdfrwt beam="1">  1       21 0.49826094E-01 0.75848324E+02</pdfrwt>
<pdfrwt beam="2">  1       21 0.34494240E-02 0.75848324E+02</pdfrwt>
<totfact> 0.18882504E+06</totfact>
</mgrwt>
</event>
<event>
 5    1  0.1855960E+000  0.6848426E+02  0.7546771E-02  0.1365325E+00
         21   -1    0    0  501  502  0.00000000000E+00  0.00000000000E+00  0.28358060602E+03  0.28358060602E+03  0.00000000000E+00 0. -1.
         21   -1    0    0  502  503 -0.00000000000E+00 -0.00000000000E+00 -0.25785788113E+02  0.25785788113E+02  0.00000000000E+00 0.  1.
         24    1    1    2    0    0 -0.22925149731E+02  0.12455993916E+02  0.70137941655E+02  0.10985108597E+03  0.80419002446E+02 0.  0.
          1    1    1    2  501    0 -0.60629139382E+01 -0.21275932670E+02  0.14781103332E+03  0.14945743812E+03  0.00000000000E+00 0. -1.
         -2    1    1    2    0  503  0.28988063669E+02  0.88199387535E+01  0.39845842925E+02  0.50057870044E+02  0.00000000000E+00 0.  1.
<mgrwt>
<rscale>  2 0.68484259E+02</rscale>
<asrwt>0</asrwt>
<pdfrwt beam="1">  1       21 0.43627784E-01 0.68484259E+02</pdfrwt>
<pdfrwt beam="2">  1       21 0.39670445E-02 0.68484259E+02</pdfrwt>
<totfact> 0.19539320E+06</totfact>
</mgrwt>
</event>
<event>
 5    1  0.1855960E+000  0.9577454E+02  0.7546771E-02  0.1289441E+00
         21   -1    0    0  503  502  0.00000000000E+00  0.00000000000E+00  0.23751254856E+03  0.23751254856E+03  0.00000000000E+00 0.  1.
         21   -1    0    0  501  503 -0.00000000000E+00 -0.00000000000E+00 -0.11877200824E+03  0.11877200824E+03  0.00000000000E+00 0. -1.
         24    1    1    2    0    0  0.50331536073E+02  0.18894210683E+02  0.28246549140E+02  0.10077369802E+03  0.80419002446E+02 0.  1.
          1    1    1    2  501    0  0.21278580113E+02 -0.34115939239E+01 -0.73126723857E+02  0.76236045850E+02  0.00000000000E+00 0. -1.
         -2    1    1    2    0  502 -0.71610116185E+02 -0.15482616759E+02  0.16362071504E+03  0.17927481293E+03  0.00000000000E+00 0.  1.
<mgrwt>
<rscale>  2 0.95774541E+02</rscale>
<asrwt>0</asrwt>
<pdfrwt beam="1">  1       21 0.36540392E-01 0.95774541E+02</pdfrwt>
<pdfrwt beam="2">  1       21 0.18272617E-01 0.95774541E+02</pdfrwt>
<totfact> 0.20255954E+05</totfact>
</mgrwt>
</event>
<event>
 5    1  0.1855960E+000  0.8311649E+02  0.7546771E-02  0.1320433E+00
         21   -1    0    0  503  502  0.00000000000E+00  0.00000000000E+00  0.10286406185E+04  0.10286406185E+04  0.00000000000E+00 0.  1.
         21   -1    0    0  501  503 -0.00000000000E+00 -0.00000000000E+00 -0.75768478283E+01  0.75768478283E+01  0.00000000000E+00 0. -1.
         24    1    1    2    0    0 -0.37401813788E+01  0.40712660299E+02  0.66509924269E+03  0.67118978557E+03  0.80419002446E+02 0.  1.
          1    1    1    2  501    0 -0.20313628211E+02  0.78874632250E+01  0.53970333487E+02  0.58203543397E+02  0.00000000000E+00 0. -1.
         -2    1    1    2    0  502  0.24053809590E+02 -0.48600123524E+02  0.30199419449E+03  0.30682413736E+03  0.00000000000E+00 0.  1.
<mgrwt>
<rscale>  2 0.83116488E+02</rscale>
<asrwt>0</asrwt>
<pdfrwt beam="1">  1       21 0.15825229E+00 0.83116488E+02</pdfrwt>
<pdfrwt beam="2">  1       21 0.11656697E-02 0.83116488E+02</pdfrwt>
<totfact> 0.78003807E+05</totfact>
</mgrwt>
</event>
<event>
 5    1  0.1855960E+000  0.7159978E+02  0.7546771E-02  0.1354736E+00
         21   -1    0    0  503  502  0.00000000000E+00  0.00000000000E+00  0.13312919393E+03  0.13312919393E+03  0.00000000000E+00 0.  1.
         21   -1    0    0  501  503 -0.00000000000E+00 -0.00000000000E+00 -0.40587454222E+02  0.40587454222E+02  0.00000000000E+00 0. -1.
         24    1    1    2    0    0 -0.36536861577E+02 -0.29368234363E+02  0.50874464003E+02  0.10607951021E+03  0.80419002446E+02 0. -1.
          1    1    1    2  501    0  0.12173901432E+02  0.21150563732E+02  0.88767857014E+01  0.25968202607E+02  0.00000000000E+00 0. -1.
         -2    1    1    2    0  502  0.24362960145E+02  0.82176706319E+01  0.32790489999E+02  0.41668935336E+02  0.00000000000E+00 0.  1.
<mgrwt>
<rscale>  2 0.71599780E+02</rscale>
<asrwt>0</asrwt>
<pdfrwt beam="1">  1       21 0.20481414E-01 0.71599780E+02</pdfrwt>
<pdfrwt beam="2">  1       21 0.62442238E-02 0.71599780E+02</pdfrwt>
<totfact> 0.38859725E+06</totfact>
</mgrwt>
</event>
<event>
 5    1  0.1855960E+000  0.6573793E+02  0.7546771E-02  0.1375217E+00
         21   -1    0    0  503  502  0.00000000000E+00  0.00000000000E+00  0.11994035727E+04  0.11994035727E+04  0.00000000000E+00 0.  1.
         21   -1    0    0  501  503 -0.00000000000E+00 -0.00000000000E+00 -0.88840578334E+01  0.88840578334E+01  0.00000000000E+00 0. -1.
         24    1    1    2    0    0 -0.25485289881E+02  0.62935373988E+00  0.39416610374E+03  0.40309307781E+03  0.80419002446E+02 0. -1.
          1    1    1    2  501    0  0.14164648905E+02  0.19450566885E+02  0.29830857772E+02  0.38325473333E+02  0.00000000000E+00 0. -1.
         -2    1    1    2    0  502  0.11320640976E+02 -0.20079920625E+02  0.76652255331E+03  0.76686907934E+03  0.00000000000E+00 0.  1.
<mgrwt>
<rscale>  2 0.65737927E+02</rscale>
<asrwt>0</asrwt>
<pdfrwt beam="1">  1       21 0.18452350E+00 0.65737927E+02</pdfrwt>
<pdfrwt beam="2">  1       21 0.13667791E-02 0.65737927E+02</pdfrwt>
<totfact> 0.40773187E+05</totfact>
</mgrwt>
</event>
<event>
 5    1  0.2442626E+000  0.7838170E+02  0.7546771E-02  0.1333708E+00
         21   -1    0    0  501  502  0.00000000000E+00  0.00000000000E+00  0.21033880925E+03  0.21033880925E+03  0.00000000000E+00 0. -1.
         21   -1    0    0  502  503 -0.00000000000E+00 -0.00000000000E+00 -0.16579164331E+03  0.16579164331E+03  0.00000000000E+00 0.  1.
         24    1    1    2    0    0 -0.43227533317E+02  0.73373563582E+01  0.15870824566E+03  0.18324295247E+03  0.80419002446E+02 0. -1.
          1    1    1    2  501    0  0.16304553934E+02 -0.27199173371E+02  0.30745245989E+02  0.44169035103E+02  0.00000000000E+00 0. -1.
         -2    1    1    2    0  503  0.26922979383E+02  0.19861817013E+02 -0.14490632572E+03  0.14871846498E+03  0.00000000000E+00 0.  1.
<mgrwt>
<rscale>  2 0.78381699E+02</rscale>
<asrwt>0</asrwt>
<pdfrwt beam="1">  1       21 0.32359817E-01 0.78381699E+02</pdfrwt>
<pdfrwt beam="2">  1       21 0.25506407E-01 0.78381699E+02</pdfrwt>
<totfact> 0.13954513E+05</totfact>
</mgrwt>
</event>
<event>
 5    1  0.1855960E+000  0.1468553E+03  0.7546771E-02  0.1204391E+00
         21   -1    0    0  503  502  0.00000000000E+00  0.00000000000E+00  0.15069012603E+03  0.15069012603E+03  0.00000000000E+00 0.  1.
         21   -1    0    0  501  503 -0.00000000000E+00 -0.00000000000E+00 -0.18895041517E+03  0.18895041517E+03  0.00000000000E+00 0. -1.
         24    1    1    2    0    0  0.17776544825E+02 -0.12998305920E+02 -0.40555598433E+02  0.92719652832E+02  0.80419002446E+02 0.  0.
          1    1    1    2  501    0 -0.60607774285E+02 -0.84413833304E+02 -0.63525471533E+02  0.12179689278E+03  0.00000000000E+00 0. -1.
         -2    1    1    2    0  502  0.42831229460E+02  0.97412139223E+02  0.65820780826E+02  0.12512399560E+03  0.00000000000E+00 0.  1.
<mgrwt>
<rscale>  2 0.14685527E+03</rscale>
<asrwt>0</asrwt>
<pdfrwt beam="1">  1       21 0.23183096E-01 0.14685527E+03</pdfrwt>
<pdfrwt beam="2">  1       21 0.29069295E-01 0.14685527E+03</pdfrwt>
<totfact> 0.20063025E+05</totfact>
</mgrwt>
</event>
<event>
 5    1  0.1855960E+000  0.1157470E+03  0.7546771E-02  0.1250283E+00
         21   -1    0    0  501  502  0.00000000000E+00  0.00000000000E+00  0.67187841273E+03  0.67187841273E+03  0.00000000000E+00 0. -1.
         21   -1    0    0  502  503 -0.00000000000E+00 -0.00000000000E+00 -0.90584838819E+02  0.90584838819E+02  0.00000000000E+00 0.  1.
         24    1    1    2    0    0  0.81527026666E+02  0.51999853640E+02 -0.16946120749E+02  0.12690558624E+03  0.80419002446E+02 0.  1.
          1    1    1    2  501    0 -0.23637419911E+02 -0.40216066303E+02  0.56664707254E+03  0.56856394928E+03  0.00000000000E+00 0. -1.
         -2    1    1    2    0  503 -0.57889606755E+02 -0.11783787338E+02  0.31592622118E+02  0.66993716023E+02  0.00000000000E+00 0.  1.
<mgrwt>
<rscale>  2 0.11574704E+03</rscale>
<asrwt>0</asrwt>
<pdfrwt beam="1">  1       21 0.10336591E+00 0.11574704E+03</pdfrwt>
<pdfrwt beam="2">  1       21 0.13936129E-01 0.11574704E+03</pdfrwt>
<totfact> 0.35642762E+04</totfact>
</mgrwt>
</event>
<event>
 5    1  0.1855960E+000  0.9480540E+02  0.7546771E-02  0.1291615E+00
         21   -1    0    0  503  502  0.00000000000E+00  0.00000000000E+00  0.11868038145E+03  0.11868038145E+03  0.00000000000E+00 0.  1.
         21   -1    0    0  501  503 -0.00000000000E+00 -0.00000000000E+00 -0.34595912789E+03  0.34595912789E+03  0.00000000000E+00 0. -1.
         24    1    1    2    0    0  0.14307314997E+02 -0.59083231320E+01 -0.22921147408E+03  0.24340238977E+03  0.80419002446E+02 0.  0.
          1    1    1    2  501    0  0.25927505148E+02  0.44796759251E+02 -0.95645981863E+02  0.10875265058E+03  0.00000000000E+00 0. -1.
         -2    1    1    2    0  502 -0.40234820145E+02 -0.38888436119E+02  0.97578709502E+02  0.11248446899E+03  0.00000000000E+00 0.  1.
<mgrwt>
<rscale>  2 0.94805401E+02</rscale>
<asrwt>0</asrwt>
<pdfrwt beam="1">  1       21 0.18258521E-01 0.94805401E+02</pdfrwt>
<pdfrwt beam="2">  1       21 0.53224480E-01 0.94805401E+02</pdfrwt>
<totfact> 0.95301294E+04</totfact>
</mgrwt>
</event>
<event>
 5    1  0.1855960E+000  0.1355981E+03  0.7546771E-02  0.1219378E+00
         21   -1    0    0  503  502  0.00000000000E+00  0.00000000000E+00  0.16778183353E+03  0.16778183353E+03  0.00000000000E+00 0.  1.
         21   -1    0    0  501  503 -0.00000000000E+00 -0.00000000000E+00 -0.33124654305E+03  0.33124654305E+03  0.00000000000E+00 0. -1.
         24    1    1    2    0    0  0.62053335518E+02 -0.37667693446E+02  0.84905968074E+02  0.13764341956E+03  0.80419002446E+02 0. -1.
          1    1    1    2  501    0 -0.96569386246E+02  0.67023192438E+02 -0.28163005933E+03  0.30517739924E+03  0.00000000000E+00 0. -1.
         -2    1    1    2    0  502  0.34516050728E+02 -0.29355498992E+02  0.33259381742E+02  0.56207557791E+02  0.00000000000E+00 0.  1.
<mgrwt>
<rscale>  2 0.13559806E+03</rscale>
<asrwt>0</asrwt>
<pdfrwt beam="1">  1       21 0.25812590E-01 0.13559806E+03</pdfrwt>
<pdfrwt beam="2">  1       21 0.50961007E-01 0.13559806E+03</pdfrwt>
<totfact> 0.53638130E+04</totfact>
</mgrwt>
</event>
<event>
 5    1  0.1855960E+000  0.6786236E+02  0.7546771E-02  0.1367517E+00
         21   -1    0    0  501  502  0.00000000000E+00  0.00000000000E+00  0.46232214809E+03  0.46232214809E+03  0.00000000000E+00 0. -1.
         21   -1    0    0  502  503 -0.00000000000E+00 -0.00000000000E+00 -0.16891073765E+02  0.16891073765E+02  0.00000000000E+00 0. -1.
         24    1    1    2    0    0  0.30455513943E+01  0.43911756837E+02  0.16877492665E+03  0.19206694039E+03  0.80419002446E+02 0. -1.
          1    1    1    2  501    0 -0.70439354472E+00 -0.21928603467E+02  0.25584627516E+03  0.25678527281E+03  0.00000000000E+00 0. -1.
         -2    1    1    2    0  503 -0.23411578496E+01 -0.21983153370E+02  0.20809872522E+02  0.30361008655E+02  0.00000000000E+00 0.  1.
<mgrwt>
<rscale>  2 0.67862357E+02</rscale>
<asrwt>0</asrwt>
<pdfrwt beam="1">  1       21 0.71126475E-01 0.67862357E+02</pdfrwt>
<pdfrwt beam="2">  1       21 0.25986271E-02 0.67862357E+02</pdfrwt>
<totfact> 0.14149837E+06</totfact>
</mgrwt>
</event>
<event>
 5    1  0.1855960E+000  0.7781165E+02  0.7546771E-02  0.1335379E+00
         21   -1    0    0  501  502  0.00000000000E+00  0.00000000000E+00  0.84503969721E+03  0.84503969721E+03  0.00000000000E+00 0.  1.
         21   -1    0    0  502  503 -0.00000000000E+00 -0.00000000000E+00 -0.13765672750E+02  0.13765672750E+02  0.00000000000E+00 0.  1.
         24    1    1    2    0    0  0.42068764005E+02  0.18995493203E+02  0.68441933220E+03  0.69067188151E+03  0.80419002446E+02 0.  1.
          1    1    1    2  501    0 -0.18393082725E+02  0.13412393557E+02  0.11404427682E+03  0.11629400186E+03  0.00000000000E+00 0. -1.
         -2    1    1    2    0  503 -0.23675681280E+02 -0.32407886760E+02  0.32810415436E+02  0.51839486585E+02  0.00000000000E+00 0.  1.
<mgrwt>
<rscale>  2 0.77811652E+02</rscale>
<asrwt>0</asrwt>
<pdfrwt beam="1">  1       21 0.13000607E+00 0.77811652E+02</pdfrwt>
<pdfrwt beam="2">  1       21 0.21177965E-02 0.77811652E+02</pdfrwt>
<totfact> 0.49706646E+05</totfact>
</mgrwt>
</event>
<event>
 5    1  0.1855960E+000  0.7993879E+02  0.7546771E-02  0.1329225E+00
         21   -1    0    0  503  502  0.00000000000E+00  0.00000000000E+00  0.49110205236E+03  0.49110205236E+03  0.00000000000E+00 0. -1.
         21   -1    0    0  501  503 -0.00000000000E+00 -0.00000000000E+00 -0.25952359127E+02  0.25952359127E+02  0.00000000000E+00 0.  1.
         24    1    1    2    0    0 -0.38245455671E+02  0.42311804682E+02  0.89238886529E+02  0.13298044412E+03  0.80419002446E+02 0.  0.
          1    1    1    2  501    0  0.18171631885E+02 -0.35859824639E+02  0.10642823661E+03  0.11376776686E+03  0.00000000000E+00 0. -1.
         -2    1    1    2    0  502  0.20073823786E+02 -0.64519800431E+01  0.26948257010E+03  0.27030620051E+03  0.00000000000E+00 0.  1.
<mgrwt>
<rscale>  2 0.79938789E+02</rscale>
<asrwt>0</asrwt>
<pdfrwt beam="1">  1       21 0.75554155E-01 0.79938789E+02</pdfrwt>
<pdfrwt beam="2">  1       21 0.39926710E-02 0.79938789E+02</pdfrwt>
<totfact> 0.62071506E+05</totfact>
</mgrwt>
</event>
<event>
 5    1  0.1855960E+000  0.7266984E+02  0.7546771E-02  0.1351242E+00
         21   -1    0    0  501  502  0.00000000000E+00  0.00000000000E+00  0.24832017155E+02  0.24832017155E+02  0.00000000000E+00 0. -1.
         21   -1    0    0  502  503 -0.00000000000E+00 -0.00000000000E+00 -0.26071392030E+03  0.26071392030E+03  0.00000000000E+00 0. -1.
         24    1    1    2    0    0 -0.19383939918E+02  0.24263938642E+02 -0.17043958894E+03  0.19100090386E+03  0.80419002446E+02 0. -1.
          1    1    1    2  501    0  0.33000397701E+02 -0.20331294426E+01 -0.12162042837E+02  0.35228896516E+02  0.00000000000E+00 0. -1.
         -2    1    1    2    0  503 -0.13616457782E+02 -0.22230809199E+02 -0.53280271374E+02  0.59316137079E+02  0.00000000000E+00 0.  1.
<mgrwt>
<rscale>  2 0.72669845E+02</rscale>
<asrwt>0</asrwt>
<pdfrwt beam="1">  1       21 0.38203105E-02 0.72669845E+02</pdfrwt>
<pdfrwt beam="2">  1       21 0.40109832E-01 0.72669845E+02</pdfrwt>
<totfact> 0.24607775E+06</totfact>
</mgrwt>
</event>
<event>
 5    1  0.1855960E+000  0.1109996E+03  0.7546771E-02  0.1258730E+00
         21   -1    0    0  501  502  0.00000000000E+00  0.00000000000E+00  0.42798555141E+02  0.42798555141E+02  0.00000000000E+00 0.  1.
         21   -1    0    0  502  503 -0.00000000000E+00 -0.00000000000E+00 -0.47574244754E+03  0.47574244754E+03  0.00000000000E+00 0.  1.
         24    1    1    2    0    0  0.63588327844E+02 -0.14791268862E+02 -0.80383953715E+02  0.13111465609E+03  0.80419002446E+02 0.  1.
          1    1    1    2  501    0 -0.23704466018E+01 -0.37700411012E+02 -0.15461677739E+02  0.40816705968E+02  0.00000000000E+00 0. -1.
         -2    1    1    2    0  503 -0.61217881243E+02  0.52491679874E+02 -0.33709826094E+03  0.34660964062E+03  0.00000000000E+00 0.  1.
<mgrwt>
<rscale>  2 0.11099962E+03</rscale>
<asrwt>0</asrwt>
<pdfrwt beam="1">  1       21 0.65843927E-02 0.11099962E+03</pdfrwt>
<pdfrwt beam="2">  1       21 0.73191150E-01 0.11099962E+03</pdfrwt>
<totfact> 0.28770494E+05</totfact>
</mgrwt>
</event>
<event>
 5    1  0.1855960E+000  0.7686063E+02  0.7546771E-02  0.1338204E+00
         21   -1    0    0  501  502  0.00000000000E+00  0.00000000000E+00  0.13381624126E+03  0.13381624126E+03  0.00000000000E+00 0. -1.
         21   -1    0    0  502  503 -0.00000000000E+00 -0.00000000000E+00 -0.46458019655E+02  0.46458019655E+02  0.00000000000E+00 0.  1.
         24    1    1    2    0    0  0.26860351592E+02 -0.18271160187E+02  0.31779876898E+02  0.92371479972E+02  0.80419002446E+02 0.  1.
          1    1    1    2  501    0 -0.17714722917E+02 -0.20534645950E+02  0.30448147321E+02  0.40774658400E+02  0.00000000000E+00 0. -1.
         -2    1    1    2    0  503 -0.91456286749E+01  0.38805806137E+02  0.25130197386E+02  0.47128122544E+02  0.00000000000E+00 0.  1.
<mgrwt>
<rscale>  2 0.76860630E+02</rscale>
<asrwt>0</asrwt>
<pdfrwt beam="1">  1       21 0.20587114E-01 0.76860630E+02</pdfrwt>
<pdfrwt beam="2">  1       21 0.71473877E-02 0.76860630E+02</pdfrwt>
<totfact> 0.30814698E+06</totfact>
</mgrwt>
</event>
<event>
 5    1  0.1855960E+000  0.7750622E+02  0.7546771E-02  0.1336281E+00
         21   -1    0    0  503  502  0.00000000000E+00  0.00000000000E+00  0.65506297632E+02  0.65506297632E+02  0.00000000000E+00 0. -1.
         21   -1    0    0  501  503 -0.00000000000E+00 -0.00000000000E+00 -0.27406951355E+03  0.27406951355E+03  0.00000000000E+00 0. -1.
         24    1    1    2    0    0 -0.29259036403E+02  0.33400587774E+02 -0.92025334679E+02  0.13002910694E+03  0.80419002446E+02 0. -1.
          1    1    1    2  501    0 -0.75846701111E+01 -0.23936052218E+02 -0.15407318169E+03  0.15610575624E+03  0.00000000000E+00 0. -1.
         -2    1    1    2    0  502  0.36843706514E+02 -0.94645355559E+01  0.37535300449E+02  0.53440947997E+02  0.00000000000E+00 0.  1.
<mgrwt>
<rscale>  2 0.77506224E+02</rscale>
<asrwt>0</asrwt>
<pdfrwt beam="1">  1       21 0.10077892E-01 0.77506224E+02</pdfrwt>
<pdfrwt beam="2">  1       21 0.42164539E-01 0.77506224E+02</pdfrwt>
<totfact> 0.43927993E+05</totfact>
</mgrwt>
</event>
<event>
 5    1  0.1855960E+000  0.9864427E+02  0.7546771E-02  0.1283173E+00
         21   -1    0    0  503  502  0.00000000000E+00  0.00000000000E+00  0.19357374288E+03  0.19357374288E+03  0.00000000000E+00 0. -1.
         21   -1    0    0  501  503 -0.00000000000E+00 -0.00000000000E+00 -0.53642347071E+02  0.53642347071E+02  0.00000000000E+00 0.  1.
         24    1    1    2    0    0  0.78063238331E+02 -0.25473293997E+02  0.87043746529E+02  0.14417554456E+03  0.80419002446E+02 0.  1.
          1    1    1    2  501    0 -0.55050507712E+02  0.20942052951E+02  0.19117196366E+02  0.61924108213E+02  0.00000000000E+00 0. -1.
         -2    1    1    2    0  502 -0.23012730619E+02  0.45312410461E+01  0.33770452914E+02  0.41116437175E+02  0.00000000000E+00 0.  1.
<mgrwt>
<rscale>  2 0.98644273E+02</rscale>
<asrwt>0</asrwt>
<pdfrwt beam="1">  1       21 0.29780575E-01 0.98644273E+02</pdfrwt>
<pdfrwt beam="2">  1       21 0.82526689E-02 0.98644273E+02</pdfrwt>
<totfact> 0.12221210E+06</totfact>
</mgrwt>
</event>
<event>
 5    1  0.1855960E+000  0.1219991E+03  0.7546771E-02  0.1239835E+00
         21   -1    0    0  501  502  0.00000000000E+00  0.00000000000E+00  0.26694287282E+02  0.26694287282E+02  0.00000000000E+00 0.  1.
         21   -1    0    0  502  503 -0.00000000000E+00 -0.00000000000E+00 -0.65029144416E+03  0.65029144416E+03  0.00000000000E+00 0. -1.
         24    1    1    2    0    0 -0.17336738784E+02 -0.62534701736E+02 -0.19415135339E+03  0.21993889017E+03  0.80419002446E+02 0.  0.
          1    1    1    2  501    0 -0.32200694653E+02  0.81490339441E+02 -0.15991557320E+03  0.18234733535E+03  0.00000000000E+00 0. -1.
         -2    1    1    2    0  503  0.49537433436E+02 -0.18955637705E+02 -0.26953023028E+03  0.27469950591E+03  0.00000000000E+00 0.  1.
<mgrwt>
<rscale>  2 0.12199909E+03</rscale>
<asrwt>0</asrwt>
<pdfrwt beam="1">  1       21 0.41068137E-02 0.12199909E+03</pdfrwt>
<pdfrwt beam="2">  1       21 0.10004483E+00 0.12199909E+03</pdfrwt>
<totfact> 0.31301121E+05</totfact>
</mgrwt>
</event>
<event>
 5    1  0.1855960E+000  0.8514808E+02  0.7546771E-02  0.1315046E+00
         21   -1    0    0  503  502  0.00000000000E+00  0.00000000000E+00  0.11402690038E+03  0.11402690038E+03  0.00000000000E+00 0. -1.
         21   -1    0    0  501  503 -0.00000000000E+00 -0.00000000000E+00 -0.19101829887E+03  0.19101829887E+03  0.00000000000E+00 0. -1.
         24    1    1    2    0    0  0.11431270135E+02 -0.24209372695E+01  0.38769686762E+02  0.90037988872E+02  0.80419002446E+02 0. -1.
          1    1    1    2  501    0 -0.49550834510E+02 -0.62382930061E+01 -0.15304475124E+03  0.16098725845E+03  0.00000000000E+00 0. -1.
         -2    1    1    2    0  502  0.38119564375E+02  0.86592302755E+01  0.37283665989E+02  0.54019951931E+02  0.00000000000E+00 0.  1.
<mgrwt>
<rscale>  2 0.85148077E+02</rscale>
<asrwt>0</asrwt>
<pdfrwt beam="1">  1       21 0.17542600E-01 0.85148077E+02</pdfrwt>
<pdfrwt beam="2">  1       21 0.29387431E-01 0.85148077E+02</pdfrwt>
<totfact> 0.33279971E+05</totfact>
</mgrwt>
</event>
<event>
 5    1  0.1855960E+000  0.1508294E+03  0.7546771E-02  0.1199457E+00
         21   -1    0    0  501  502  0.00000000000E+00  0.00000000000E+00  0.43440823873E+02  0.43440823873E+02  0.00000000000E+00 0.  1.
         21   -1    0    0  502  503 -0.00000000000E+00 -0.00000000000E+00 -0.10315158992E+04  0.10315158992E+04  0.00000000000E+00 0.  1.
         24    1    1    2    0    0  0.10880994563E+03  0.87012634693E+02 -0.29632952231E+03  0.33717829795E+03  0.80419002446E+02 0.  1.
          1    1    1    2  501    0 -0.72338441015E+02 -0.45156941552E+02 -0.61613735094E+02  0.10520575921E+03  0.00000000000E+00 0. -1.
         -2    1    1    2    0  503 -0.36471504613E+02 -0.41855693141E+02 -0.63013181789E+03  0.63257266588E+03  0.00000000000E+00 0.  1.
<mgrwt>
<rscale>  2 0.15082944E+03</rscale>
<asrwt>0</asrwt>
<pdfrwt beam="1">  1       21 0.66832039E-02 0.15082944E+03</pdfrwt>
<pdfrwt beam="2">  1       21 0.15869475E+00 0.15082944E+03</pdfrwt>
<totfact> 0.43271370E+04</totfact>
</mgrwt>
</event>
<event>
 5    1  0.1855960E+000  0.8056932E+02  0.7546771E-02  0.1327444E+00
         21   -1    0    0  503  502  0.00000000000E+00  0.00000000000E+00  0.64030059622E+03  0.64030059622E+03  0.00000000000E+00 0.  1.
         21   -1    0    0  501  503 -0.00000000000E+00 -0.00000000000E+00 -0.55104825147E+02  0.55104825147E+02  0.00000000000E+00 0. -1.
         24    1    1    2    0    0 -0.56212424358E+02  0.11441911319E+02  0.17443367751E+03  0.20046216050E+03  0.80419002446E+02 0.  0.
          1    1    1    2  501    0  0.15674462073E+02 -0.14957599815E+02 -0.38320326064E+02  0.44021198793E+02  0.00000000000E+00 0. -1.
         -2    1    1    2    0  502  0.40537962285E+02  0.35156884962E+01  0.44908241962E+03  0.45092206208E+03  0.00000000000E+00 0.  1.
<mgrwt>
<rscale>  2 0.80569317E+02</rscale>
<asrwt>0</asrwt>
<pdfrwt beam="1">  1       21 0.98507779E-01 0.80569317E+02</pdfrwt>
<pdfrwt beam="2">  1       21 0.84776659E-02 0.80569317E+02</pdfrwt>
<totfact> 0.97366348E+04</totfact>
</mgrwt>
</event>
<event>
 5    1  0.1855960E+000  0.1257253E+03  0.7546771E-02  0.1233940E+00
         21   -1    0    0  501  502  0.00000000000E+00  0.00000000000E+00  0.52139412159E+03  0.52139412159E+03  0.00000000000E+00 0. -1.
         21   -1    0    0  502  503 -0.00000000000E+00 -0.00000000000E+00 -0.52308155867E+02  0.52308155867E+02  0.00000000000E+00 0.  1.
         24    1    1    2    0    0  0.90029077766E+01 -0.65056272343E+02  0.45603219290E+02  0.11340300033E+03  0.80419002446E+02 0.  1.
          1    1    1    2  501    0 -0.18723127501E+02 -0.38920997391E+02  0.27731758090E+03  0.28066072083E+03  0.00000000000E+00 0. -1.
         -2    1    1    2    0  503  0.97202197249E+01  0.10397726973E+03  0.14616516553E+03  0.17963855629E+03  0.00000000000E+00 0.  1.
<mgrwt>
<rscale>  2 0.12572525E+03</rscale>
<asrwt>0</asrwt>
<pdfrwt beam="1">  1       21 0.80214477E-01 0.12572525E+03</pdfrwt>
<pdfrwt beam="2">  1       21 0.80474089E-02 0.12572525E+03</pdfrwt>
<totfact> 0.16598192E+05</totfact>
</mgrwt>
</event>
<event>
 5    1  0.1855960E+000  0.7604234E+02  0.7546771E-02  0.1340673E+00
         21   -1    0    0  501  502  0.00000000000E+00  0.00000000000E+00  0.30761775346E+03  0.30761775346E+03  0.00000000000E+00 0. -1.
         21   -1    0    0  502  503 -0.00000000000E+00 -0.00000000000E+00 -0.12552142955E+03  0.12552142955E+03  0.00000000000E+00 0.  1.
         24    1    1    2    0    0 -0.21027513340E+02  0.29195693212E+02 -0.46429904479E+02  0.99586629643E+02  0.80419002446E+02 0. -1.
          1    1    1    2  501    0  0.13060584480E+01 -0.40985951517E+02  0.27694185788E+03  0.27996133064E+03  0.00000000000E+00 0. -1.
         -2    1    1    2    0  503  0.19721454892E+02  0.11790258305E+02 -0.48415629487E+02  0.53591222720E+02  0.00000000000E+00 0.  1.
<mgrwt>
<rscale>  2 0.76042343E+02</rscale>
<asrwt>0</asrwt>
<pdfrwt beam="1">  1       21 0.47325808E-01 0.76042343E+02</pdfrwt>
<pdfrwt beam="2">  1       21 0.19310989E-01 0.76042343E+02</pdfrwt>
<totfact> 0.11049124E+05</totfact>
</mgrwt>
</event>
<event>
 5    1  0.1855960E+000  0.8860721E+02  0.7546771E-02  0.1306260E+00
         21   -1    0    0  503  502  0.00000000000E+00  0.00000000000E+00  0.33879152378E+02  0.33879152378E+02  0.00000000000E+00 0.  1.
         21   -1    0    0  501  503 -0.00000000000E+00 -0.00000000000E+00 -0.24301980347E+03  0.24301980347E+03  0.00000000000E+00 0.  1.
         24    1    1    2    0    0  0.65537981028E+02  0.18837181633E+02 -0.13473867745E+03  0.17109001585E+03  0.80419002446E+02 0.  1.
          1    1    1    2  501    0 -0.23033866933E+02 -0.18051414313E+02 -0.46555131932E+02  0.54989025212E+02  0.00000000000E+00 0. -1.
         -2    1    1    2    0  502 -0.42504114095E+02 -0.78576731946E+00 -0.27846841705E+02  0.50819914779E+02  0.00000000000E+00 0.  1.
<mgrwt>
<rscale>  2 0.88607214E+02</rscale>
<asrwt>0</asrwt>
<pdfrwt beam="1">  1       21 0.52121775E-02 0.88607214E+02</pdfrwt>
<pdfrwt beam="2">  1       21 0.37387660E-01 0.88607214E+02</pdfrwt>
<totfact> 0.17060591E+06</totfact>
</mgrwt>
</event>
<event>
 5    1  0.1855960E+000  0.1187711E+03  0.7546771E-02  0.1245138E+00
         21   -1    0    0  501  502  0.00000000000E+00  0.00000000000E+00  0.41686360135E+03  0.41686360135E+03  0.00000000000E+00 0. -1.
         21   -1    0    0  502  503 -0.00000000000E+00 -0.00000000000E+00 -0.38609053077E+02  0.38609053077E+02  0.00000000000E+00 0. -1.
         24    1    1    2    0    0 -0.84357710789E+02  0.52463005150E+02  0.26297957937E+03  0.29239368222E+03  0.80419002446E+02 0. -1.
          1    1    1    2  501    0  0.65203211960E+02 -0.13893923548E+02  0.93471435191E+02  0.11481031817E+03  0.00000000000E+00 0. -1.
         -2    1    1    2    0  503  0.19154498829E+02 -0.38569081602E+02  0.21803533714E+02  0.48268654046E+02  0.00000000000E+00 0.  1.
<mgrwt>
<rscale>  2 0.11877112E+03</rscale>
<asrwt>0</asrwt>
<pdfrwt beam="1">  1       21 0.64132859E-01 0.11877112E+03</pdfrwt>
<pdfrwt beam="2">  1       21 0.59398546E-02 0.11877112E+03</pdfrwt>
<totfact> 0.45540178E+05</totfact>
</mgrwt>
</event>
<event>
 5    1  0.1855960E+000  0.8308988E+02  0.7546771E-02  0.1320505E+00
         21   -1    0    0  501  502  0.00000000000E+00  0.00000000000E+00  0.23843871231E+03  0.23843871231E+03  0.00000000000E+00 0. -1.
         21   -1    0    0  502  503 -0.00000000000E+00 -0.00000000000E+00 -0.54706575474E+02  0.54706575474E+02  0.00000000000E+00 0.  1.
         24    1    1    2    0    0 -0.48748138743E+02  0.21871515428E+02  0.88034877098E+01  0.96950820359E+02  0.80419002446E+02 0.  1.
          1    1    1    2  501    0  0.37288704919E+02  0.75585579590E+01  0.15321373960E+03  0.15786712550E+03  0.00000000000E+00 0. -1.
         -2    1    1    2    0  503  0.11459433824E+02 -0.29430073387E+02  0.21714909534E+02  0.38327341928E+02  0.00000000000E+00 0.  1.
<mgrwt>
<rscale>  2 0.83089882E+02</rscale>
<asrwt>0</asrwt>
<pdfrwt beam="1">  1       21 0.36682878E-01 0.83089882E+02</pdfrwt>
<pdfrwt beam="2">  1       21 0.84163963E-02 0.83089882E+02</pdfrwt>
<totfact> 0.78760449E+05</totfact>
</mgrwt>
</event>
<event>
 5    1  0.1855960E+000  0.9498262E+02  0.7546771E-02  0.1291215E+00
         21   -1    0    0  503  502  0.00000000000E+00  0.00000000000E+00  0.71579042452E+02  0.71579042452E+02  0.00000000000E+00 0.  1.
         21   -1    0    0  501  503 -0.00000000000E+00 -0.00000000000E+00 -0.54645210451E+03  0.54645210451E+03  0.00000000000E+00 0. -1.
         24    1    1    2    0    0 -0.11698398398E+02  0.21734654680E+02 -0.11462725838E+03  0.14218253078E+03  0.80419002446E+02 0.  1.
          1    1    1    2  501    0 -0.15126356587E+02  0.37707846165E+02 -0.39828410737E+03  0.40035099414E+03  0.00000000000E+00 0. -1.
         -2    1    1    2    0  502  0.26824754985E+02 -0.59442500845E+02  0.38038303694E+02  0.75497622046E+02  0.00000000000E+00 0.  1.
<mgrwt>
<rscale>  2 0.94982623E+02</rscale>
<asrwt>0</asrwt>
<pdfrwt beam="1">  1       21 0.11012161E-01 0.94982623E+02</pdfrwt>
<pdfrwt beam="2">  1       21 0.84069553E-01 0.94982623E+02</pdfrwt>
<totfact> 0.87930337E+04</totfact>
</mgrwt>
</event>
<event>
 5    1  0.1855960E+000  0.6171758E+02  0.7546771E-02  0.1390762E+00
         21   -1    0    0  503  502  0.00000000000E+00  0.00000000000E+00  0.13814612033E+02  0.13814612033E+02  0.00000000000E+00 0. -1.
         21   -1    0    0  501  503 -0.00000000000E+00 -0.00000000000E+00 -0.37432548989E+03  0.37432548989E+03  0.00000000000E+00 0. -1.
         24    1    1    2    0    0 -0.52272835044E+01 -0.29442509357E+01 -0.13267948581E+03  0.15526446798E+03  0.80419002446E+02 0. -1.
          1    1    1    2  501    0  0.17338799164E+02 -0.13777033032E+02 -0.17064813509E+03  0.17207912891E+03  0.00000000000E+00 0. -1.
         -2    1    1    2    0  502 -0.12111515659E+02  0.16721283968E+02 -0.57183256955E+02  0.60796505040E+02  0.00000000000E+00 0.  1.
<mgrwt>
<rscale>  2 0.61717583E+02</rscale>
<asrwt>0</asrwt>
<pdfrwt beam="1">  1       21 0.21253249E-02 0.61717583E+02</pdfrwt>
<pdfrwt beam="2">  1       21 0.57588539E-01 0.61717583E+02</pdfrwt>
<totfact> 0.30262870E+06</totfact>
</mgrwt>
</event>
<event>
 5    1  0.1855960E+000  0.7059027E+02  0.7546771E-02  0.1358097E+00
         21   -1    0    0  501  502  0.00000000000E+00  0.00000000000E+00  0.17107223165E+03  0.17107223165E+03  0.00000000000E+00 0. -1.
         21   -1    0    0  502  503 -0.00000000000E+00 -0.00000000000E+00 -0.24664849664E+03  0.24664849664E+03  0.00000000000E+00 0.  1.
         24    1    1    2    0    0 -0.12847397355E+02 -0.37244974489E+02 -0.11953969655E+02  0.90345764086E+02  0.80419002446E+02 0. -1.
          1    1    1    2  501    0 -0.94201993557E+01  0.23850349052E+02  0.12975239076E+03  0.13226209667E+03  0.00000000000E+00 0. -1.
         -2    1    1    2    0  503  0.22267596711E+02  0.13394625436E+02 -0.19337468610E+03  0.19511286754E+03  0.00000000000E+00 0.  1.
<mgrwt>
<rscale>  2 0.70590273E+02</rscale>
<asrwt>0</asrwt>
<pdfrwt beam="1">  1       21 0.26318805E-01 0.70590273E+02</pdfrwt>
<pdfrwt beam="2">  1       21 0.37945922E-01 0.70590273E+02</pdfrwt>
<totfact> 0.97120511E+04</totfact>
</mgrwt>
</event>
<event>
 5    1  0.1855960E+000  0.8204497E+02  0.7546771E-02  0.1323346E+00
         21   -1    0    0  501  502  0.00000000000E+00  0.00000000000E+00  0.24169225079E+02  0.24169225079E+02  0.00000000000E+00 0. -1.
         21   -1    0    0  502  503 -0.00000000000E+00 -0.00000000000E+00 -0.63766604275E+03  0.63766604275E+03  0.00000000000E+00 0.  1.
         24    1    1    2    0    0  0.41005761827E+02  0.19177151691E+02 -0.30538462392E+03  0.31902385511E+03  0.80419002446E+02 0.  0.
          1    1    1    2  501    0 -0.36493217411E+02  0.13431051036E+02 -0.65214247141E+01  0.39429392960E+02  0.00000000000E+00 0. -1.
         -2    1    1    2    0  503 -0.45125444163E+01 -0.32608202727E+02 -0.30159076904E+03  0.30338201975E+03  0.00000000000E+00 0.  1.
<mgrwt>
<rscale>  2 0.82044965E+02</rscale>
<asrwt>0</asrwt>
<pdfrwt beam="1">  1       21 0.37183422E-02 0.82044965E+02</pdfrwt>
<pdfrwt beam="2">  1       21 0.98102473E-01 0.82044965E+02</pdfrwt>
<totfact> 0.38920997E+05</totfact>
</mgrwt>
</event>
<event>
 5    1  0.1855960E+000  0.1012119E+03  0.7546771E-02  0.1277768E+00
         21   -1    0    0  501  502  0.00000000000E+00  0.00000000000E+00  0.11701405559E+04  0.11701405559E+04  0.00000000000E+00 0. -1.
         21   -1    0    0  502  503 -0.00000000000E+00 -0.00000000000E+00 -0.47922206014E+02  0.47922206014E+02  0.00000000000E+00 0.  1.
         24    1    1    2    0    0  0.30715739076E+02  0.20552197043E+02  0.20919555094E+03  0.22714718558E+03  0.80419002446E+02 0. -1.
          1    1    1    2  501    0 -0.98906150451E+01 -0.64517507592E+02  0.93518299578E+03  0.93745803567E+03  0.00000000000E+00 0. -1.
         -2    1    1    2    0  503 -0.20825124031E+02  0.43965310549E+02 -0.22160196880E+02  0.53457540613E+02  0.00000000000E+00 0.  1.
<mgrwt>
<rscale>  2 0.10121195E+03</rscale>
<asrwt>0</asrwt>
<pdfrwt beam="1">  1       21 0.18002160E+00 0.10121195E+03</pdfrwt>
<pdfrwt beam="2">  1       21 0.73726480E-02 0.10121195E+03</pdfrwt>
<totfact> 0.27146076E+04</totfact>
</mgrwt>
</event>
<event>
 5    1  0.1855960E+000  0.8339413E+02  0.7546771E-02  0.1319686E+00
         21   -1    0    0  501  502  0.00000000000E+00  0.00000000000E+00  0.10854115749E+03  0.10854115749E+03  0.00000000000E+00 0. -1.
         21   -1    0    0  502  503 -0.00000000000E+00 -0.00000000000E+00 -0.19166625499E+03  0.19166625499E+03  0.00000000000E+00 0. -1.
         24    1    1    2    0    0  0.40551195846E+02  0.48248333816E+02 -0.13053006609E+03  0.16576373339E+03  0.80419002446E+02 0. -1.
          1    1    1    2  501    0 -0.10337621639E+02 -0.23086734102E+02  0.79664850517E+02  0.83584401180E+02  0.00000000000E+00 0. -1.
         -2    1    1    2    0  503 -0.30213574207E+02 -0.25161599714E+02 -0.32259881929E+02  0.50859277901E+02  0.00000000000E+00 0.  1.
<mgrwt>
<rscale>  2 0.83394130E+02</rscale>
<asrwt>0</asrwt>
<pdfrwt beam="1">  1       21 0.16698640E-01 0.83394130E+02</pdfrwt>
<pdfrwt beam="2">  1       21 0.29487116E-01 0.83394130E+02</pdfrwt>
<totfact> 0.36143787E+05</totfact>
</mgrwt>
</event>
<event>
 5    1  0.1855960E+000  0.1739575E+03  0.7546771E-02  0.1173783E+00
         21   -1    0    0  501  502  0.00000000000E+00  0.00000000000E+00  0.11467017308E+03  0.11467017308E+03  0.00000000000E+00 0. -1.
         21   -1    0    0  502  503 -0.00000000000E+00 -0.00000000000E+00 -0.33897456063E+03  0.33897456063E+03  0.00000000000E+00 0. -1.
         24    1    1    2    0    0  0.20747215250E+02 -0.12563453661E+03 -0.83161531270E+02  0.17203935587E+03  0.80419002446E+02 0. -1.
          1    1    1    2  501    0 -0.37691504357E+02  0.15710787783E+03 -0.29315168318E+02  0.16420387897E+03  0.00000000000E+00 0. -1.
         -2    1    1    2    0  503  0.16944289107E+02 -0.31473341215E+02 -0.11182768797E+03  0.11740149887E+03  0.00000000000E+00 0.  1.
<mgrwt>
<rscale>  2 0.17395749E+03</rscale>
<asrwt>0</asrwt>
<pdfrwt beam="1">  1       21 0.17641565E-01 0.17395749E+03</pdfrwt>
<pdfrwt beam="2">  1       21 0.52149933E-01 0.17395749E+03</pdfrwt>
<totfact> 0.10239788E+05</totfact>
</mgrwt>
</event>
<event>
 5    1  0.1855960E+000  0.9189783E+02  0.7546771E-02  0.1298320E+00
         21   -1    0    0  503  502  0.00000000000E+00  0.00000000000E+00  0.99274993083E+02  0.99274993083E+02  0.00000000000E+00 0.  1.
         21   -1    0    0  501  503 -0.00000000000E+00 -0.00000000000E+00 -0.36470539780E+03  0.36470539780E+03  0.00000000000E+00 0. -1.
         24    1    1    2    0    0 -0.41938923207E+02  0.40893059145E+01 -0.13188096654E+03  0.16011058988E+03  0.80419002446E+02 0. -1.
          1    1    1    2  501    0  0.62448136301E+02  0.15821637121E+02 -0.21136809867E+03  0.22096734389E+03  0.00000000000E+00 0. -1.
         -2    1    1    2    0  502 -0.20509213095E+02 -0.19910943036E+02  0.77818660493E+02  0.82902457113E+02  0.00000000000E+00 0.  1.
<mgrwt>
<rscale>  2 0.91897826E+02</rscale>
<asrwt>0</asrwt>
<pdfrwt beam="1">  1       21 0.15273076E-01 0.91897826E+02</pdfrwt>
<pdfrwt beam="2">  1       21 0.56108524E-01 0.91897826E+02</pdfrwt>
<totfact> 0.11804947E+05</totfact>
</mgrwt>
</event>
<event>
 5    1  0.1855960E+000  0.2325669E+03  0.7546771E-02  0.1124846E+00
         21   -1    0    0  503  502  0.00000000000E+00  0.00000000000E+00  0.50705705877E+02  0.50705705877E+02  0.00000000000E+00 0. -1.
         21   -1    0    0  501  503 -0.00000000000E+00 -0.00000000000E+00 -0.11462603456E+04  0.11462603456E+04  0.00000000000E+00 0.  1.
         24    1    1    2    0    0  0.13572414676E+03 -0.76709247077E+02 -0.56379964164E+03  0.59045965524E+03  0.80419002446E+02 0.  1.
          1    1    1    2  501    0 -0.39449924031E+01 -0.82752286056E+02 -0.18555728506E+03  0.20321173650E+03  0.00000000000E+00 0. -1.
         -2    1    1    2    0  502 -0.13177915436E+03  0.15946153313E+03 -0.34619771307E+03  0.40329465978E+03  0.00000000000E+00 0.  1.
<mgrwt>
<rscale>  2 0.23256691E+03</rscale>
<asrwt>0</asrwt>
<pdfrwt beam="1">  1       21 0.78008777E-02 0.23256691E+03</pdfrwt>
<pdfrwt beam="2">  1       21 0.17634775E+00 0.23256691E+03</pdfrwt>
<totfact> 0.23540070E+04</totfact>
</mgrwt>
</event>
<event>
 5    1  0.1855960E+000  0.7231772E+02  0.7546771E-02  0.1352384E+00
         21   -1    0    0  501  502  0.00000000000E+00  0.00000000000E+00  0.16397736391E+02  0.16397736391E+02  0.00000000000E+00 0.  1.
         21   -1    0    0  502  503 -0.00000000000E+00 -0.00000000000E+00 -0.39584980405E+03  0.39584980405E+03  0.00000000000E+00 0. -1.
         24    1    1    2    0    0  0.34443383545E+02 -0.28094692039E+02 -0.31656876777E+03  0.32963412910E+03  0.80419002446E+02 0. -1.
          1    1    1    2  501    0 -0.26605598462E+02  0.33761668397E+01 -0.24720427650E+02  0.36474044405E+02  0.00000000000E+00 0. -1.
         -2    1    1    2    0  503 -0.78377850837E+01  0.24718525200E+02 -0.38162872244E+02  0.46139366933E+02  0.00000000000E+00 0.  1.
<mgrwt>
<rscale>  2 0.72317724E+02</rscale>
<asrwt>0</asrwt>
<pdfrwt beam="1">  1       21 0.25227286E-02 0.72317724E+02</pdfrwt>
<pdfrwt beam="2">  1       21 0.60899973E-01 0.72317724E+02</pdfrwt>
<totfact> 0.20662910E+06</totfact>
</mgrwt>
</event>
<event>
 5    1  0.1855960E+000  0.1017165E+03  0.7546771E-02  0.1276727E+00
         21   -1    0    0  503  502  0.00000000000E+00  0.00000000000E+00  0.11747826432E+03  0.11747826432E+03  0.00000000000E+00 0.  1.
         21   -1    0    0  501  503 -0.00000000000E+00 -0.00000000000E+00 -0.18710599967E+03  0.18710599967E+03  0.00000000000E+00 0. -1.
         24    1    1    2    0    0  0.51985447631E+01  0.57569020276E+02  0.10344129644E+02  0.99576271951E+02  0.80419002446E+02 0.  1.
          1    1    1    2  501    0 -0.45706170233E+02 -0.37847021525E+02 -0.12681647572E+03  0.14001381914E+03  0.00000000000E+00 0. -1.
         -2    1    1    2    0  502  0.40507625470E+02 -0.19721998751E+02  0.46844610728E+02  0.64994172894E+02  0.00000000000E+00 0.  1.
<mgrwt>
<rscale>  2 0.10171646E+03</rscale>
<asrwt>0</asrwt>
<pdfrwt beam="1">  1       21 0.18073579E-01 0.10171646E+03</pdfrwt>
<pdfrwt beam="2">  1       21 0.28785538E-01 0.10171646E+03</pdfrwt>
<totfact> 0.32719375E+05</totfact>
</mgrwt>
</event>
<event>
 5    1  0.1855960E+000  0.8412495E+02  0.7546771E-02  0.1317737E+00
         21   -1    0    0  501  502  0.00000000000E+00  0.00000000000E+00  0.24200000053E+03  0.24200000053E+03  0.00000000000E+00 0. -1.
         21   -1    0    0  502  503 -0.00000000000E+00 -0.00000000000E+00 -0.86096672676E+02  0.86096672676E+02  0.00000000000E+00 0.  1.
         24    1    1    2    0    0 -0.24497403975E+02 -0.37379550517E+02  0.17999122416E+02  0.93747202414E+02  0.80419002446E+02 0.  0.
          1    1    1    2  501    0  0.85343716659E+01  0.53136151900E+02  0.17933544667E+03  0.18723645097E+03  0.00000000000E+00 0. -1.
         -2    1    1    2    0  503  0.15963032309E+02 -0.15756601383E+02 -0.41431241229E+02  0.47113019829E+02  0.00000000000E+00 0.  1.
<mgrwt>
<rscale>  2 0.84124947E+02</rscale>
<asrwt>0</asrwt>
<pdfrwt beam="1">  1       21 0.37230769E-01 0.84124947E+02</pdfrwt>
<pdfrwt beam="2">  1       21 0.13245642E-01 0.84124947E+02</pdfrwt>
<totfact> 0.34824958E+05</totfact>
</mgrwt>
</event>
<event>
 5    1  0.1855960E+000  0.1181285E+03  0.7546771E-02  0.1246217E+00
         21   -1    0    0  501  502  0.00000000000E+00  0.00000000000E+00  0.14950781346E+03  0.14950781346E+03  0.00000000000E+00 0. -1.
         21   -1    0    0  502  503 -0.00000000000E+00 -0.00000000000E+00 -0.21127855125E+03  0.21127855125E+03  0.00000000000E+00 0. -1.
         24    1    1    2    0    0 -0.96802058290E+02 -0.36626239600E+02 -0.11284369412E+03  0.17295385273E+03  0.80419002446E+02 0. -1.
          1    1    1    2  501    0  0.49159203208E+02  0.28598458624E+02  0.10253077564E+03  0.11724785306E+03  0.00000000000E+00 0. -1.
         -2    1    1    2    0  503  0.47642855082E+02  0.80277809759E+01 -0.51457819308E+02  0.70584658926E+02  0.00000000000E+00 0.  1.
<mgrwt>
<rscale>  2 0.11812854E+03</rscale>
<asrwt>0</asrwt>
<pdfrwt beam="1">  1       21 0.23001202E-01 0.11812854E+03</pdfrwt>
<pdfrwt beam="2">  1       21 0.32504392E-01 0.11812854E+03</pdfrwt>
<totfact> 0.16535119E+05</totfact>
</mgrwt>
</event>
<event>
 5    1  0.1855960E+000  0.6974387E+02  0.7546771E-02  0.1360966E+00
         21   -1    0    0  503  502  0.00000000000E+00  0.00000000000E+00  0.69509264574E+02  0.69509264574E+02  0.00000000000E+00 0. -1.
         21   -1    0    0  501  503 -0.00000000000E+00 -0.00000000000E+00 -0.11698906198E+03  0.11698906198E+03  0.00000000000E+00 0. -1.
         24    1    1    2    0    0 -0.31061253667E+02  0.16069877264E+01 -0.15891993978E+02  0.87676423946E+02  0.80419002446E+02 0. -1.
          1    1    1    2  501    0  0.11041164130E+02  0.20595186103E+02 -0.55707140349E+02  0.60409887285E+02  0.00000000000E+00 0. -1.
         -2    1    1    2    0  502  0.20020089537E+02 -0.22202173829E+02  0.24119336920E+02  0.38412015325E+02  0.00000000000E+00 0.  1.
<mgrwt>
<rscale>  2 0.69743869E+02</rscale>
<asrwt>0</asrwt>
<pdfrwt beam="1">  1       21 0.10693733E-01 0.69743869E+02</pdfrwt>
<pdfrwt beam="2">  1       21 0.17998317E-01 0.69743869E+02</pdfrwt>
<totfact> 0.19653164E+06</totfact>
</mgrwt>
</event>
<event>
 5    1  0.1855960E+000  0.8999928E+02  0.7546771E-02  0.1302853E+00
         21   -1    0    0  501  502  0.00000000000E+00  0.00000000000E+00  0.64317029783E+02  0.64317029783E+02  0.00000000000E+00 0.  1.
         21   -1    0    0  502  503 -0.00000000000E+00 -0.00000000000E+00 -0.66985321457E+03  0.66985321457E+03  0.00000000000E+00 0.  1.
         24    1    1    2    0    0 -0.39577626895E+02  0.17887651957E+02 -0.12729769195E+02  0.92280114983E+02  0.80419002446E+02 0.  1.
          1    1    1    2  501    0 -0.59278194623E+01  0.25226938920E+02  0.15610284366E+02  0.30252577887E+02  0.00000000000E+00 0. -1.
         -2    1    1    2    0  503  0.45505446357E+02 -0.43114590876E+02 -0.60841669996E+03  0.61163755148E+03  0.00000000000E+00 0.  1.
<mgrwt>
<rscale>  2 0.89999276E+02</rscale>
<asrwt>0</asrwt>
<pdfrwt beam="1">  1       21 0.98949281E-02 0.89999276E+02</pdfrwt>
<pdfrwt beam="2">  1       21 0.10305434E+00 0.89999276E+02</pdfrwt>
<totfact> 0.66799977E+04</totfact>
</mgrwt>
</event>
<event>
 5    1  0.1855960E+000  0.6689965E+02  0.7546771E-02  0.1370965E+00
         21   -1    0    0  503  502  0.00000000000E+00  0.00000000000E+00  0.25392376608E+02  0.25392376608E+02  0.00000000000E+00 0. -1.
         21   -1    0    0  501  503 -0.00000000000E+00 -0.00000000000E+00 -0.38737679364E+03  0.38737679364E+03  0.00000000000E+00 0. -1.
         24    1    1    2    0    0  0.10606092165E+02 -0.13621340933E+01 -0.10230316448E+03  0.13056606763E+03  0.80419002446E+02 0. -1.
          1    1    1    2  501    0 -0.23029785895E+02  0.19846113258E+02 -0.25809084131E+03  0.25987520393E+03  0.00000000000E+00 0. -1.
         -2    1    1    2    0  502  0.12423693730E+02 -0.18483979164E+02 -0.15904112388E+01  0.22327898682E+02  0.00000000000E+00 0.  1.
<mgrwt>
<rscale>  2 0.66899653E+02</rscale>
<asrwt>0</asrwt>
<pdfrwt beam="1">  1       21 0.39065195E-02 0.66899653E+02</pdfrwt>
<pdfrwt beam="2">  1       21 0.59596429E-01 0.66899653E+02</pdfrwt>
<totfact> 0.10626572E+06</totfact>
</mgrwt>
</event>
<event>
 5    1  0.1855960E+000  0.8794677E+02  0.7546771E-02  0.1307901E+00
         21   -1    0    0  503  502  0.00000000000E+00  0.00000000000E+00  0.68368570196E+03  0.68368570196E+03  0.00000000000E+00 0. -1.
         21   -1    0    0  501  503 -0.00000000000E+00 -0.00000000000E+00 -0.24039687486E+02  0.24039687486E+02  0.00000000000E+00 0. -1.
         24    1    1    2    0    0 -0.63308675384E+02 -0.14400401805E+02  0.56390760821E+03  0.57330128772E+03  0.80419002446E+02 0. -1.
          1    1    1    2  501    0  0.36004601031E+02  0.24362225003E+02  0.11003852235E+02  0.44843439504E+02  0.00000000000E+00 0. -1.
         -2    1    1    2    0  502  0.27304074353E+02 -0.99618231978E+01  0.84734554034E+02  0.89580662227E+02  0.00000000000E+00 0.  1.
<mgrwt>
<rscale>  2 0.87946767E+02</rscale>
<asrwt>0</asrwt>
<pdfrwt beam="1">  1       21 0.10518240E+00 0.87946767E+02</pdfrwt>
<pdfrwt beam="2">  1       21 0.36984140E-02 0.87946767E+02</pdfrwt>
<totfact> 0.33366633E+05</totfact>
</mgrwt>
</event>
<event>
 5    1  0.1855960E+000  0.6956777E+02  0.7546771E-02  0.1361569E+00
         21   -1    0    0  501  502  0.00000000000E+00  0.00000000000E+00  0.60282100276E+03  0.60282100276E+03  0.00000000000E+00 0. -1.
         21   -1    0    0  502  503 -0.00000000000E+00 -0.00000000000E+00 -0.59369068005E+02  0.59369068005E+02  0.00000000000E+00 0. -1.
         24    1    1    2    0    0  0.79049763518E+01  0.46523469195E+01 -0.28482494985E+02  0.85805602719E+02  0.80419002446E+02 0. -1.
          1    1    1    2  501    0  0.49774306689E+01  0.25197319167E+02  0.43033344720E+03  0.43109924088E+03  0.00000000000E+00 0. -1.
         -2    1    1    2    0  503 -0.12882407021E+02 -0.29849666086E+02  0.14160098253E+03  0.14528522716E+03  0.00000000000E+00 0.  1.
<mgrwt>
<rscale>  2 0.69567770E+02</rscale>
<asrwt>0</asrwt>
<pdfrwt beam="1">  1       21 0.92741689E-01 0.69567770E+02</pdfrwt>
<pdfrwt beam="2">  1       21 0.91337032E-02 0.69567770E+02</pdfrwt>
<totfact> 0.99032887E+04</totfact>
</mgrwt>
</event>
<event>
 5    1  0.1855960E+000  0.1062301E+03  0.7546771E-02  0.1267715E+00
         21   -1    0    0  501  502  0.00000000000E+00  0.00000000000E+00  0.24474356044E+03  0.24474356044E+03  0.00000000000E+00 0. -1.
         21   -1    0    0  502  503 -0.00000000000E+00 -0.00000000000E+00 -0.28408932449E+03  0.28408932449E+03  0.00000000000E+00 0.  1.
         24    1    1    2    0    0 -0.17475446329E+02  0.18546596178E+02 -0.10461146535E+03  0.13438802808E+03  0.80419002446E+02 0.  0.
          1    1    1    2  501    0  0.43650120540E+02  0.42967046486E+02  0.21868121136E+03  0.22709683466E+03  0.00000000000E+00 0. -1.
         -2    1    1    2    0  503 -0.26174674211E+02 -0.61513642664E+02 -0.15341551006E+03  0.16734802219E+03  0.00000000000E+00 0.  1.
<mgrwt>
<rscale>  2 0.10623011E+03</rscale>
<asrwt>0</asrwt>
<pdfrwt beam="1">  1       21 0.37652855E-01 0.10623011E+03</pdfrwt>
<pdfrwt beam="2">  1       21 0.43706050E-01 0.10623011E+03</pdfrwt>
<totfact> 0.36007027E+04</totfact>
</mgrwt>
</event>
<event>
 5    1  0.1855960E+000  0.1065845E+03  0.7546771E-02  0.1267029E+00
         21   -1    0    0  501  502  0.00000000000E+00  0.00000000000E+00  0.30148467190E+02  0.30148467190E+02  0.00000000000E+00 0. -1.
         21   -1    0    0  502  503 -0.00000000000E+00 -0.00000000000E+00 -0.45689839009E+03  0.45689839009E+03  0.00000000000E+00 0.  1.
         24    1    1    2    0    0 -0.80644208153E+00  0.19215829770E+01 -0.16335003236E+03  0.18208457336E+03  0.80419002446E+02 0.  1.
          1    1    1    2  501    0  0.62790164431E+02  0.21636445776E+02 -0.54883991862E+02  0.86156793684E+02  0.00000000000E+00 0. -1.
         -2    1    1    2    0  503 -0.61983722350E+02 -0.23558028753E+02 -0.20851589868E+03  0.21880549023E+03  0.00000000000E+00 0.  1.
<mgrwt>
<rscale>  2 0.10658450E+03</rscale>
<asrwt>0</asrwt>
<pdfrwt beam="1">  1       21 0.46382255E-02 0.10658450E+03</pdfrwt>
<pdfrwt beam="2">  1       21 0.70292063E-01 0.10658450E+03</pdfrwt>
<totfact> 0.56660209E+05</totfact>
</mgrwt>
</event>
<event>
 5    1  0.1855960E+000  0.6803680E+02  0.7546771E-02  0.1366899E+00
         21   -1    0    0  503  502  0.00000000000E+00  0.00000000000E+00  0.25470949697E+03  0.25470949697E+03  0.00000000000E+00 0.  1.
         21   -1    0    0  501  503 -0.00000000000E+00 -0.00000000000E+00 -0.41935493979E+02  0.41935493979E+02  0.00000000000E+00 0. -1.
         24    1    1    2    0    0  0.11926658654E+02 -0.11097720942E+02  0.11929722830E+03  0.14479105370E+03  0.80419002446E+02 0. -1.
          1    1    1    2  501    0 -0.22799293149E+02 -0.13940883802E+02 -0.21113088387E+02  0.34057576404E+02  0.00000000000E+00 0. -1.
         -2    1    1    2    0  502  0.10872634494E+02  0.25038604744E+02  0.11458986308E+03  0.11779636085E+03  0.00000000000E+00 0.  1.
<mgrwt>
<rscale>  2 0.68036803E+02</rscale>
<asrwt>0</asrwt>
<pdfrwt beam="1">  1       21 0.39186076E-01 0.68036803E+02</pdfrwt>
<pdfrwt beam="2">  1       21 0.64516146E-02 0.68036803E+02</pdfrwt>
<totfact> 0.10805643E+06</totfact>
</mgrwt>
</event>
<event>
 5    1  0.1855960E+000  0.9713869E+02  0.7546771E-02  0.1286431E+00
         21   -1    0    0  501  502  0.00000000000E+00  0.00000000000E+00  0.63240059206E+03  0.63240059206E+03  0.00000000000E+00 0.  1.
         21   -1    0    0  502  503 -0.00000000000E+00 -0.00000000000E+00 -0.17797487713E+02  0.17797487713E+02  0.00000000000E+00 0.  1.
         24    1    1    2    0    0  0.74587279592E+01 -0.55908418974E+02  0.40589379549E+03  0.41761031250E+03  0.80419002446E+02 0.  1.
          1    1    1    2  501    0 -0.36085031624E+02  0.33992713255E+01  0.12188151166E+03  0.12715654697E+03  0.00000000000E+00 0. -1.
         -2    1    1    2    0  503  0.28626303665E+02  0.52509147649E+02  0.86827797193E+02  0.10543122030E+03  0.00000000000E+00 0.  1.
<mgrwt>
<rscale>  2 0.97138695E+02</rscale>
<asrwt>0</asrwt>
<pdfrwt beam="1">  1       21 0.97292381E-01 0.97138695E+02</pdfrwt>
<pdfrwt beam="2">  1       21 0.27380755E-02 0.97138695E+02</pdfrwt>
<totfact> 0.65213178E+05</totfact>
</mgrwt>
</event>
<event>
 5    1  0.1855960E+000  0.7056259E+02  0.7546771E-02  0.1358190E+00
         21   -1    0    0  503  502  0.00000000000E+00  0.00000000000E+00  0.23489864012E+03  0.23489864012E+03  0.00000000000E+00 0. -1.
         21   -1    0    0  501  503 -0.00000000000E+00 -0.00000000000E+00 -0.22623210943E+02  0.22623210943E+02  0.00000000000E+00 0.  1.
         24    1    1    2    0    0  0.14567270083E+02 -0.45367479440E+02  0.11610127595E+03  0.14905413708E+03  0.80419002446E+02 0.  1.
          1    1    1    2  501    0 -0.63088912039E+01  0.19141129050E+02  0.24648883630E+02  0.31839478541E+02  0.00000000000E+00 0. -1.
         -2    1    1    2    0  502 -0.82583788794E+01  0.26226350390E+02  0.71525269591E+02  0.76628235439E+02  0.00000000000E+00 0.  1.
<mgrwt>
<rscale>  2 0.70562589E+02</rscale>
<asrwt>0</asrwt>
<pdfrwt beam="1">  1       21 0.36138251E-01 0.70562589E+02</pdfrwt>
<pdfrwt beam="2">  1       21 0.34804941E-02 0.70562589E+02</pdfrwt>
<totfact> 0.35044817E+06</totfact>
</mgrwt>
</event>
<event>
 5    1  0.1855960E+000  0.8744511E+02  0.7546771E-02  0.1309159E+00
         21   -1    0    0  503  502  0.00000000000E+00  0.00000000000E+00  0.86677637379E+02  0.86677637379E+02  0.00000000000E+00 0. -1.
         21   -1    0    0  501  503 -0.00000000000E+00 -0.00000000000E+00 -0.10508734466E+03  0.10508734466E+03  0.00000000000E+00 0. -1.
         24    1    1    2    0    0  0.97536846582E+01 -0.54321495570E+02 -0.97754760246E+01  0.98024155856E+02  0.80419002446E+02 0. -1.
          1    1    1    2  501    0  0.12739576237E+02  0.53339794650E+02 -0.30164511443E+02  0.62588563225E+02  0.00000000000E+00 0. -1.
         -2    1    1    2    0  502 -0.22493260895E+02  0.98170092003E+00  0.21530280187E+02  0.31152262957E+02  0.00000000000E+00 0.  1.
<mgrwt>
<rscale>  2 0.87445113E+02</rscale>
<asrwt>0</asrwt>
<pdfrwt beam="1">  1       21 0.13335021E-01 0.87445113E+02</pdfrwt>
<pdfrwt beam="2">  1       21 0.16167284E-01 0.87445113E+02</pdfrwt>
<totfact> 0.16361267E+06</totfact>
</mgrwt>
</event>
<event>
 5    1  0.1855960E+000  0.6621989E+02  0.7546771E-02  0.1373441E+00
         21   -1    0    0  501  502  0.00000000000E+00  0.00000000000E+00  0.79087322301E+02  0.79087322301E+02  0.00000000000E+00 0. -1.
         21   -1    0    0  502  503 -0.00000000000E+00 -0.00000000000E+00 -0.67827413092E+02  0.67827413092E+02  0.00000000000E+00 0.  1.
         24    1    1    2    0    0  0.10890885052E+02 -0.35523592613E+02  0.30494527473E+02  0.93689215866E+02  0.80419002446E+02 0.  0.
          1    1    1    2  501    0 -0.16413864910E+02  0.13820487015E+02  0.30016772736E+01  0.21666353848E+02  0.00000000000E+00 0. -1.
         -2    1    1    2    0  503  0.55229798579E+01  0.21703105598E+02 -0.22236295538E+02  0.31559165679E+02  0.00000000000E+00 0.  1.
<mgrwt>
<rscale>  2 0.66219893E+02</rscale>
<asrwt>0</asrwt>
<pdfrwt beam="1">  1       21 0.12167280E-01 0.66219893E+02</pdfrwt>
<pdfrwt beam="2">  1       21 0.10434987E-01 0.66219893E+02</pdfrwt>
<totfact> 0.40848288E+06</totfact>
</mgrwt>
</event>
<event>
 5    1  0.1855960E+000  0.8376736E+02  0.7546771E-02  0.1318688E+00
         21   -1    0    0  503  502  0.00000000000E+00  0.00000000000E+00  0.19240043473E+03  0.19240043473E+03  0.00000000000E+00 0. -1.
         21   -1    0    0  501  503 -0.00000000000E+00 -0.00000000000E+00 -0.37777786502E+02  0.37777786502E+02  0.00000000000E+00 0.  1.
         24    1    1    2    0    0 -0.22001122926E+02  0.12215404211E+02  0.94104247665E+02  0.12631742118E+03  0.80419002446E+02 0.  0.
          1    1    1    2  501    0  0.51313032823E+02 -0.15918478831E+02  0.30672333212E+02  0.61864507841E+02  0.00000000000E+00 0. -1.
         -2    1    1    2    0  502 -0.29311909897E+02  0.37030746197E+01  0.29846067354E+02  0.41996292216E+02  0.00000000000E+00 0.  1.
<mgrwt>
<rscale>  2 0.83767356E+02</rscale>
<asrwt>0</asrwt>
<pdfrwt beam="1">  1       21 0.29600066E-01 0.83767356E+02</pdfrwt>
<pdfrwt beam="2">  1       21 0.58119673E-02 0.83767356E+02</pdfrwt>
<totfact> 0.22275810E+06</totfact>
</mgrwt>
</event>
<event>
 5    1  0.1855960E+000  0.8074854E+02  0.7546771E-02  0.1326941E+00
         21   -1    0    0  503  502  0.00000000000E+00  0.00000000000E+00  0.54497294141E+02  0.54497294141E+02  0.00000000000E+00 0.  1.
         21   -1    0    0  501  503 -0.00000000000E+00 -0.00000000000E+00 -0.16906520179E+03  0.16906520179E+03  0.00000000000E+00 0.  1.
         24    1    1    2    0    0 -0.25895498037E+02  0.54068968922E+02 -0.83355245262E+02  0.13041987228E+03  0.80419002446E+02 0.  1.
          1    1    1    2  501    0  0.17080511813E+02 -0.21546381807E+02 -0.48136255439E+02  0.55435453822E+02  0.00000000000E+00 0. -1.
         -2    1    1    2    0  502  0.88149862235E+01 -0.32522587115E+02  0.16923593050E+02  0.37707169829E+02  0.00000000000E+00 0.  1.
<mgrwt>
<rscale>  2 0.80748539E+02</rscale>
<asrwt>0</asrwt>
<pdfrwt beam="1">  1       21 0.83841994E-02 0.80748539E+02</pdfrwt>
<pdfrwt beam="2">  1       21 0.26010030E-01 0.80748539E+02</pdfrwt>
<totfact> 0.15282910E+06</totfact>
</mgrwt>
</event>
<event>
 5    1  0.1855960E+000  0.9651103E+02  0.7546771E-02  0.1287809E+00
         21   -1    0    0  501  502  0.00000000000E+00  0.00000000000E+00  0.24939033003E+03  0.24939033003E+03  0.00000000000E+00 0. -1.
         21   -1    0    0  502  503 -0.00000000000E+00 -0.00000000000E+00 -0.47485774091E+02  0.47485774091E+02  0.00000000000E+00 0. -1.
         24    1    1    2    0    0  0.45024684728E+02 -0.63375150341E+02  0.13300593122E+03  0.17378557365E+03  0.80419002446E+02 0. -1.
          1    1    1    2  501    0 -0.42742575201E+02  0.42866135376E+02  0.79474156498E+02  0.99902827027E+02  0.00000000000E+00 0. -1.
         -2    1    1    2    0  503 -0.22821095265E+01  0.20509014965E+02 -0.10575531775E+02  0.23187703445E+02  0.00000000000E+00 0.  1.
<mgrwt>
<rscale>  2 0.96511029E+02</rscale>
<asrwt>0</asrwt>
<pdfrwt beam="1">  1       21 0.38367742E-01 0.96511029E+02</pdfrwt>
<pdfrwt beam="2">  1       21 0.73055038E-02 0.96511029E+02</pdfrwt>
<totfact> 0.92005750E+05</totfact>
</mgrwt>
</event>
<event>
 5    1  0.1855960E+000  0.9357075E+02  0.7546771E-02  0.1294428E+00
         21   -1    0    0  503  502  0.00000000000E+00  0.00000000000E+00  0.17510553055E+02  0.17510553055E+02  0.00000000000E+00 0.  1.
         21   -1    0    0  501  503 -0.00000000000E+00 -0.00000000000E+00 -0.12862792304E+04  0.12862792304E+04  0.00000000000E+00 0. -1.
         24    1    1    2    0    0  0.33980633490E+02 -0.31372108735E+02 -0.66599579977E+03  0.67242584269E+03  0.80419002446E+02 0.  0.
          1    1    1    2  501    0 -0.57352439355E+02  0.27474829822E+01 -0.58920751885E+03  0.59199860745E+03  0.00000000000E+00 0. -1.
         -2    1    1    2    0  502  0.23371805865E+02  0.28624625753E+02 -0.13565358729E+02  0.39365333307E+02  0.00000000000E+00 0.  1.
<mgrwt>
<rscale>  2 0.93570747E+02</rscale>
<asrwt>0</asrwt>
<pdfrwt beam="1">  1       21 0.26939318E-02 0.93570747E+02</pdfrwt>
<pdfrwt beam="2">  1       21 0.19788907E+00 0.93570747E+02</pdfrwt>
<totfact> 0.11178720E+05</totfact>
</mgrwt>
</event>
<event>
 5    1  0.1855960E+000  0.6949632E+02  0.7546771E-02  0.1361814E+00
         21   -1    0    0  501  502  0.00000000000E+00  0.00000000000E+00  0.19493421921E+02  0.19493421921E+02  0.00000000000E+00 0.  1.
         21   -1    0    0  502  503 -0.00000000000E+00 -0.00000000000E+00 -0.24803649108E+03  0.24803649108E+03  0.00000000000E+00 0.  1.
         24    1    1    2    0    0  0.26914793177E+02  0.24574971742E+02 -0.14142433055E+03  0.16672250164E+03  0.80419002446E+02 0.  1.
          1    1    1    2  501    0 -0.20453000294E+02  0.44778701904E+01 -0.37348666514E+02  0.42817046055E+02  0.00000000000E+00 0. -1.
         -2    1    1    2    0  503 -0.64617928836E+01 -0.29052841933E+02 -0.49770072097E+02  0.57990365305E+02  0.00000000000E+00 0.  1.
<mgrwt>
<rscale>  2 0.69496316E+02</rscale>
<asrwt>0</asrwt>
<pdfrwt beam="1">  1       21 0.29989882E-02 0.69496316E+02</pdfrwt>
<pdfrwt beam="2">  1       21 0.38159457E-01 0.69496316E+02</pdfrwt>
<totfact> 0.40085589E+06</totfact>
</mgrwt>
</event>
<event>
 5    1  0.1855960E+000  0.8771470E+02  0.7546771E-02  0.1308482E+00
         21   -1    0    0  501  502  0.00000000000E+00  0.00000000000E+00  0.39422640546E+02  0.39422640546E+02  0.00000000000E+00 0. -1.
         21   -1    0    0  502  503 -0.00000000000E+00 -0.00000000000E+00 -0.20330022589E+03  0.20330022589E+03  0.00000000000E+00 0. -1.
         24    1    1    2    0    0  0.16326888299E+02  0.51788013659E+02 -0.76659749541E+02  0.12366284322E+03  0.80419002446E+02 0. -1.
          1    1    1    2  501    0 -0.36777410553E+02 -0.24090294348E+02 -0.33576128756E+02  0.55319767091E+02  0.00000000000E+00 0. -1.
         -2    1    1    2    0  503  0.20450522255E+02 -0.27697719311E+02 -0.53641707051E+02  0.63740256125E+02  0.00000000000E+00 0.  1.
<mgrwt>
<rscale>  2 0.87714698E+02</rscale>
<asrwt>0</asrwt>
<pdfrwt beam="1">  1       21 0.60650218E-02 0.87714698E+02</pdfrwt>
<pdfrwt beam="2">  1       21 0.31276957E-01 0.87714698E+02</pdfrwt>
<totfact> 0.18703448E+06</totfact>
</mgrwt>
</event>
<event>
 5    1  0.1855960E+000  0.1118988E+03  0.7546771E-02  0.1257094E+00
         21   -1    0    0  501  502  0.00000000000E+00  0.00000000000E+00  0.64608790139E+03  0.64608790139E+03  0.00000000000E+00 0.  1.
         21   -1    0    0  502  503 -0.00000000000E+00 -0.00000000000E+00 -0.51399053755E+02  0.51399053755E+02  0.00000000000E+00 0.  1.
         24    1    1    2    0    0 -0.60619637813E+02 -0.52291294127E+02  0.52074548724E+03  0.53296547577E+03  0.80419002446E+02 0.  1.
          1    1    1    2  501    0  0.38775536369E+02  0.71433452676E+02  0.97635623610E+02  0.12703934579E+03  0.00000000000E+00 0. -1.
         -2    1    1    2    0  503  0.21844101445E+02 -0.19142158549E+02 -0.23692263212E+02  0.37482133583E+02  0.00000000000E+00 0.  1.
<mgrwt>
<rscale>  2 0.11189877E+03</rscale>
<asrwt>0</asrwt>
<pdfrwt beam="1">  1       21 0.99398133E-01 0.11189877E+03</pdfrwt>
<pdfrwt beam="2">  1       21 0.79075472E-02 0.11189877E+03</pdfrwt>
<totfact> 0.10556909E+05</totfact>
</mgrwt>
</event>
<event>
 5    1  0.1855960E+000  0.7341554E+02  0.7546771E-02  0.1348849E+00
         21   -1    0    0  503  502  0.00000000000E+00  0.00000000000E+00  0.94728266289E+02  0.94728266289E+02  0.00000000000E+00 0. -1.
         21   -1    0    0  501  503 -0.00000000000E+00 -0.00000000000E+00 -0.72928128222E+02  0.72928128222E+02  0.00000000000E+00 0.  1.
         24    1    1    2    0    0 -0.38486916560E+00 -0.45313267356E+02  0.33258101561E+02  0.98116041485E+02  0.80419002446E+02 0. -1.
          1    1    1    2  501    0  0.14856927089E+02  0.16009339634E+02 -0.25839365235E+02  0.33833415934E+02  0.00000000000E+00 0. -1.
         -2    1    1    2    0  502 -0.14472057923E+02  0.29303927723E+02  0.14381401741E+02  0.35706937093E+02  0.00000000000E+00 0.  1.
<mgrwt>
<rscale>  2 0.73415541E+02</rscale>
<asrwt>0</asrwt>
<pdfrwt beam="1">  1       21 0.14573579E-01 0.73415541E+02</pdfrwt>
<pdfrwt beam="2">  1       21 0.11219712E-01 0.73415541E+02</pdfrwt>
<totfact> 0.26429992E+06</totfact>
</mgrwt>
</event>
<event>
 5    1  0.1855960E+000  0.7662423E+02  0.7546771E-02  0.1338914E+00
         21   -1    0    0  503  502  0.00000000000E+00  0.00000000000E+00  0.10622102207E+02  0.10622102207E+02  0.00000000000E+00 0. -1.
         21   -1    0    0  501  503 -0.00000000000E+00 -0.00000000000E+00 -0.10025340549E+04  0.10025340549E+04  0.00000000000E+00 0. -1.
         24    1    1    2    0    0 -0.34691131081E+02  0.27598913928E+02 -0.26262336644E+03  0.27821470698E+03  0.80419002446E+02 0. -1.
          1    1    1    2  501    0  0.33420618907E+02  0.36998882678E+00 -0.64993078412E+03  0.65078959642E+03  0.00000000000E+00 0. -1.
         -2    1    1    2    0  502  0.12705121736E+01 -0.27968902755E+02 -0.79357802093E+02  0.84151853666E+02  0.00000000000E+00 0.  1.
<mgrwt>
<rscale>  2 0.76624230E+02</rscale>
<asrwt>0</asrwt>
<pdfrwt beam="1">  1       21 0.16341695E-02 0.76624230E+02</pdfrwt>
<pdfrwt beam="2">  1       21 0.15423602E+00 0.76624230E+02</pdfrwt>
<totfact> 0.49029106E+05</totfact>
</mgrwt>
</event>
<event>
 5    1  0.1855960E+000  0.7103517E+02  0.7546771E-02  0.1356608E+00
         21   -1    0    0  503  502  0.00000000000E+00  0.00000000000E+00  0.64067616140E+02  0.64067616140E+02  0.00000000000E+00 0.  1.
         21   -1    0    0  501  503 -0.00000000000E+00 -0.00000000000E+00 -0.90297978546E+03  0.90297978546E+03  0.00000000000E+00 0. -1.
         24    1    1    2    0    0 -0.23534089286E+02  0.19989337621E+01 -0.38300557484E+02  0.92152036074E+02  0.80419002446E+02 0.  0.
          1    1    1    2  501    0 -0.30472459808E+01 -0.23727583536E+02 -0.82961028906E+03  0.82995512870E+03  0.00000000000E+00 0. -1.
         -2    1    1    2    0  502  0.26581335267E+02  0.21728649774E+02  0.28998677226E+02  0.44940236831E+02  0.00000000000E+00 0.  1.
<mgrwt>
<rscale>  2 0.71035171E+02</rscale>
<asrwt>0</asrwt>
<pdfrwt beam="1">  1       21 0.98565566E-02 0.71035171E+02</pdfrwt>
<pdfrwt beam="2">  1       21 0.13891996E+00 0.71035171E+02</pdfrwt>
<totfact> 0.33490577E+04</totfact>
</mgrwt>
</event>
<event>
 5    1  0.1855960E+000  0.6732201E+02  0.7546771E-02  0.1369444E+00
         21   -1    0    0  501  502  0.00000000000E+00  0.00000000000E+00  0.44813830611E+02  0.44813830611E+02  0.00000000000E+00 0. -1.
         21   -1    0    0  502  503 -0.00000000000E+00 -0.00000000000E+00 -0.45303504975E+03  0.45303504975E+03  0.00000000000E+00 0.  1.
         24    1    1    2    0    0 -0.90869095309E+01  0.13019815533E+02 -0.99060960894E+02  0.12857829307E+03  0.80419002446E+02 0. -1.
          1    1    1    2  501    0  0.28052926818E+02  0.25026803818E+01  0.22904792916E+02  0.36302336711E+02  0.00000000000E+00 0. -1.
         -2    1    1    2    0  503 -0.18966017287E+02 -0.15522495915E+02 -0.33206505116E+03  0.33296825058E+03  0.00000000000E+00 0.  1.
<mgrwt>
<rscale>  2 0.67322009E+02</rscale>
<asrwt>0</asrwt>
<pdfrwt beam="1">  1       21 0.68944354E-02 0.67322009E+02</pdfrwt>
<pdfrwt beam="2">  1       21 0.69697701E-01 0.67322009E+02</pdfrwt>
<totfact> 0.29857251E+05</totfact>
</mgrwt>
</event>
<event>
 5    1  0.1855960E+000  0.1049104E+03  0.7546771E-02  0.1270296E+00
         21   -1    0    0  503  502  0.00000000000E+00  0.00000000000E+00  0.24616616575E+02  0.24616616575E+02  0.00000000000E+00 0. -1.
         21   -1    0    0  501  503 -0.00000000000E+00 -0.00000000000E+00 -0.48427740838E+03  0.48427740838E+03  0.00000000000E+00 0. -1.
         24    1    1    2    0    0  0.70570742515E+02  0.42604044350E+02 -0.30713478327E+03  0.32801573948E+03  0.80419002446E+02 0. -1.
          1    1    1    2  501    0 -0.10280841024E+02 -0.31782890631E+02 -0.74777768291E+02  0.81899709765E+02  0.00000000000E+00 0. -1.
         -2    1    1    2    0  502 -0.60289901491E+02 -0.10821153719E+02 -0.77748240242E+02  0.98978575714E+02  0.00000000000E+00 0.  1.
<mgrwt>
<rscale>  2 0.10491039E+03</rscale>
<asrwt>0</asrwt>
<pdfrwt beam="1">  1       21 0.37871718E-02 0.10491039E+03</pdfrwt>
<pdfrwt beam="2">  1       21 0.74504216E-01 0.10491039E+03</pdfrwt>
<totfact> 0.69831120E+05</totfact>
</mgrwt>
</event>
<event>
 5    1  0.1855960E+000  0.8390425E+02  0.7546771E-02  0.1318323E+00
         21   -1    0    0  503  502  0.00000000000E+00  0.00000000000E+00  0.46020603380E+03  0.46020603380E+03  0.00000000000E+00 0. -1.
         21   -1    0    0  501  503 -0.00000000000E+00 -0.00000000000E+00 -0.35943068808E+02  0.35943068808E+02  0.00000000000E+00 0. -1.
         24    1    1    2    0    0 -0.46697087362E+02  0.42331773514E+02  0.38478047635E+03  0.39811534503E+03  0.80419002446E+02 0. -1.
          1    1    1    2  501    0  0.14450529116E+02 -0.25372015096E+02 -0.14739282098E+02  0.32707848882E+02  0.00000000000E+00 0. -1.
         -2    1    1    2    0  502  0.32246558245E+02 -0.16959758418E+02  0.54221770739E+02  0.65325908691E+02  0.00000000000E+00 0.  1.
<mgrwt>
<rscale>  2 0.83904248E+02</rscale>
<asrwt>0</asrwt>
<pdfrwt beam="1">  1       21 0.70800924E-01 0.83904248E+02</pdfrwt>
<pdfrwt beam="2">  1       21 0.55297032E-02 0.83904248E+02</pdfrwt>
<totfact> 0.41679551E+05</totfact>
</mgrwt>
</event>
<event>
 5    1  0.1855960E+000  0.7571313E+02  0.7546771E-02  0.1341677E+00
         21   -1    0    0  501  502  0.00000000000E+00  0.00000000000E+00  0.12021317821E+04  0.12021317821E+04  0.00000000000E+00 0.  1.
         21   -1    0    0  502  503 -0.00000000000E+00 -0.00000000000E+00 -0.13583545526E+02  0.13583545526E+02  0.00000000000E+00 0.  1.
         24    1    1    2    0    0  0.13357386055E+02  0.19732340406E+02  0.10681955027E+04  0.10714833797E+04  0.80419002446E+02 0.  1.
          1    1    1    2  501    0  0.20812813927E+02  0.92210865022E+01  0.82525820768E+02  0.85607901231E+02  0.00000000000E+00 0. -1.
         -2    1    1    2    0  503 -0.34170199982E+02 -0.28953426908E+02  0.37826913112E+02  0.58624046706E+02  0.00000000000E+00 0.  1.
<mgrwt>
<rscale>  2 0.75713135E+02</rscale>
<asrwt>0</asrwt>
<pdfrwt beam="1">  1       21 0.18494327E+00 0.75713135E+02</pdfrwt>
<pdfrwt beam="2">  1       21 0.20897772E-02 0.75713135E+02</pdfrwt>
<totfact> 0.20582602E+05</totfact>
</mgrwt>
</event>
<event>
 5    1  0.1855960E+000  0.8915203E+02  0.7546771E-02  0.1304918E+00
         21   -1    0    0  501  502  0.00000000000E+00  0.00000000000E+00  0.38883112025E+03  0.38883112025E+03  0.00000000000E+00 0. -1.
         21   -1    0    0  502  503 -0.00000000000E+00 -0.00000000000E+00 -0.73269797581E+02  0.73269797581E+02  0.00000000000E+00 0. -1.
         24    1    1    2    0    0 -0.40163044420E+02  0.37344803915E+02 -0.23622435206E+02  0.10016456417E+03  0.80419002446E+02 0. -1.
          1    1    1    2  501    0  0.24462396316E+02  0.13368334103E+02  0.28399069984E+03  0.28535563563E+03  0.00000000000E+00 0. -1.
         -2    1    1    2    0  503  0.15700648104E+02 -0.50713138018E+02  0.55193058038E+02  0.76580718030E+02  0.00000000000E+00 0.  1.
<mgrwt>
<rscale>  2 0.89152034E+02</rscale>
<asrwt>0</asrwt>
<pdfrwt beam="1">  1       21 0.59820171E-01 0.89152034E+02</pdfrwt>
<pdfrwt beam="2">  1       21 0.11272277E-01 0.89152034E+02</pdfrwt>
<totfact> 0.17681377E+05</totfact>
</mgrwt>
</event>
<event>
 5    1  0.1855960E+000  0.6861218E+02  0.7546771E-02  0.1364877E+00
         21   -1    0    0  501  502  0.00000000000E+00  0.00000000000E+00  0.25661283941E+03  0.25661283941E+03  0.00000000000E+00 0.  1.
         21   -1    0    0  502  503 -0.00000000000E+00 -0.00000000000E+00 -0.26824061829E+02  0.26824061829E+02  0.00000000000E+00 0.  1.
         24    1    1    2    0    0 -0.94841830899E+00 -0.42144106810E+02  0.78203682951E+02  0.11983345617E+03  0.80419002446E+02 0.  1.
          1    1    1    2  501    0 -0.92477143996E+01  0.21370841319E+02  0.12963020699E+03  0.13170506310E+03  0.00000000000E+00 0. -1.
         -2    1    1    2    0  503  0.10196132709E+02  0.20773265491E+02  0.21954887638E+02  0.31898381974E+02  0.00000000000E+00 0.  1.
<mgrwt>
<rscale>  2 0.68612176E+02</rscale>
<asrwt>0</asrwt>
<pdfrwt beam="1">  1       21 0.39478897E-01 0.68612176E+02</pdfrwt>
<pdfrwt beam="2">  1       21 0.41267789E-02 0.68612176E+02</pdfrwt>
<totfact> 0.22310878E+06</totfact>
</mgrwt>
</event>
<event>
 5    1  0.1855960E+000  0.1136639E+03  0.7546771E-02  0.1253932E+00
         21   -1    0    0  503  502  0.00000000000E+00  0.00000000000E+00  0.43956986989E+02  0.43956986989E+02  0.00000000000E+00 0. -1.
         21   -1    0    0  501  503 -0.00000000000E+00 -0.00000000000E+00 -0.38796512468E+03  0.38796512468E+03  0.00000000000E+00 0.  1.
         24    1    1    2    0    0  0.46537648812E+02 -0.19701718964E+02 -0.19196575256E+03  0.21417744185E+03  0.80419002446E+02 0.  1.
          1    1    1    2  501    0 -0.76731411376E+02 -0.22950695270E+02 -0.14413494381E+03  0.16489186133E+03  0.00000000000E+00 0. -1.
         -2    1    1    2    0  502  0.30193762564E+02  0.42652414233E+02 -0.79074413279E+01  0.52852808497E+02  0.00000000000E+00 0.  1.
<mgrwt>
<rscale>  2 0.11366388E+03</rscale>
<asrwt>0</asrwt>
<pdfrwt beam="1">  1       21 0.67626134E-02 0.11366388E+03</pdfrwt>
<pdfrwt beam="2">  1       21 0.59686942E-01 0.11366388E+03</pdfrwt>
<totfact> 0.42608366E+05</totfact>
</mgrwt>
</event>
<event>
 5    1  0.1855960E+000  0.1268325E+03  0.7546771E-02  0.1232233E+00
         21   -1    0    0  503  502  0.00000000000E+00  0.00000000000E+00  0.10994690377E+03  0.10994690377E+03  0.00000000000E+00 0.  1.
         21   -1    0    0  501  503 -0.00000000000E+00 -0.00000000000E+00 -0.97610846173E+03  0.97610846173E+03  0.00000000000E+00 0.  1.
         24    1    1    2    0    0 -0.42386286516E+02  0.12867093949E+02 -0.65110552798E+03  0.65754679218E+03  0.80419002446E+02 0.  1.
          1    1    1    2  501    0 -0.59208633062E+02 -0.11117312089E+02 -0.29382849438E+03  0.29994072909E+03  0.00000000000E+00 0. -1.
         -2    1    1    2    0  502  0.10159491958E+03 -0.17497818602E+01  0.78772464399E+02  0.12856784422E+03  0.00000000000E+00 0.  1.
<mgrwt>
<rscale>  2 0.12683247E+03</rscale>
<asrwt>0</asrwt>
<pdfrwt beam="1">  1       21 0.16914908E-01 0.12683247E+03</pdfrwt>
<pdfrwt beam="2">  1       21 0.15017053E+00 0.12683247E+03</pdfrwt>
<totfact> 0.99304903E+03</totfact>
</mgrwt>
</event>
<event>
 5    1  0.1855960E+000  0.8812559E+02  0.7546771E-02  0.1307455E+00
         21   -1    0    0  501  502  0.00000000000E+00  0.00000000000E+00  0.16021917864E+03  0.16021917864E+03  0.00000000000E+00 0. -1.
         21   -1    0    0  502  503 -0.00000000000E+00 -0.00000000000E+00 -0.35405314603E+03  0.35405314603E+03  0.00000000000E+00 0. -1.
         24    1    1    2    0    0  0.39649587480E+02  0.51037349394E+02 -0.16693470820E+03  0.19624299625E+03  0.80419002446E+02 0. -1.
          1    1    1    2  501    0 -0.41592270947E+02 -0.28407290494E+02  0.14041765996E+03  0.14917778114E+03  0.00000000000E+00 0. -1.
         -2    1    1    2    0  503  0.19426834671E+01 -0.22630058900E+02 -0.16731691915E+03  0.16885154728E+03  0.00000000000E+00 0.  1.
<mgrwt>
<rscale>  2 0.88125590E+02</rscale>
<asrwt>0</asrwt>
<pdfrwt beam="1">  1       21 0.24649105E-01 0.88125590E+02</pdfrwt>
<pdfrwt beam="2">  1       21 0.54469714E-01 0.88125590E+02</pdfrwt>
<totfact> 0.52496935E+04</totfact>
</mgrwt>
</event>
<event>
 5    1  0.1855960E+000  0.7291110E+02  0.7546771E-02  0.1350464E+00
         21   -1    0    0  503  502  0.00000000000E+00  0.00000000000E+00  0.14108513173E+04  0.14108513173E+04  0.00000000000E+00 0. -1.
         21   -1    0    0  501  503 -0.00000000000E+00 -0.00000000000E+00 -0.55202688050E+01  0.55202688050E+01  0.00000000000E+00 0.  1.
         24    1    1    2    0    0  0.67620975405E+01 -0.20070893773E+02  0.65612959799E+03  0.66137873571E+03  0.80419002446E+02 0.  0.
          1    1    1    2  501    0  0.19022131066E+02 -0.11244050201E+02  0.50596172548E+02  0.55210893959E+02  0.00000000000E+00 0. -1.
         -2    1    1    2    0  502 -0.25784228607E+02  0.31314943974E+02  0.69860527801E+03  0.69978195648E+03  0.00000000000E+00 0.  1.
<mgrwt>
<rscale>  2 0.72911097E+02</rscale>
<asrwt>0</asrwt>
<pdfrwt beam="1">  1       21 0.21705376E+00 0.72911097E+02</pdfrwt>
<pdfrwt beam="2">  1       21 0.84927325E-03 0.72911097E+02</pdfrwt>
<totfact> 0.54080364E+05</totfact>
</mgrwt>
</event>
<event>
 5    1  0.1855960E+000  0.1357073E+03  0.7546771E-02  0.1219225E+00
         21   -1    0    0  503  502  0.00000000000E+00  0.00000000000E+00  0.10108687686E+04  0.10108687686E+04  0.00000000000E+00 0. -1.
         21   -1    0    0  501  503 -0.00000000000E+00 -0.00000000000E+00 -0.21305173801E+02  0.21305173801E+02  0.00000000000E+00 0.  1.
         24    1    1    2    0    0  0.11227688020E+03  0.10187015420E+02  0.61754953020E+03  0.63288585963E+03  0.80419002446E+02 0.  1.
          1    1    1    2  501    0 -0.10887646751E+03 -0.29917383800E+02  0.23386675504E+03  0.25969750508E+03  0.00000000000E+00 0. -1.
         -2    1    1    2    0  502 -0.34004126904E+01  0.19730368380E+02  0.13814730953E+03  0.13959057766E+03  0.00000000000E+00 0.  1.
<mgrwt>
<rscale>  2 0.13570734E+03</rscale>
<asrwt>0</asrwt>
<pdfrwt beam="1">  1       21 0.15551823E+00 0.13570734E+03</pdfrwt>
<pdfrwt beam="2">  1       21 0.32777198E-02 0.13570734E+03</pdfrwt>
<totfact> 0.15224271E+05</totfact>
</mgrwt>
</event>
<event>
 5    1  0.1855960E+000  0.1101943E+03  0.7546771E-02  0.1260210E+00
         21   -1    0    0  501  502  0.00000000000E+00  0.00000000000E+00  0.65040008333E+03  0.65040008333E+03  0.00000000000E+00 0. -1.
         21   -1    0    0  502  503 -0.00000000000E+00 -0.00000000000E+00 -0.84006754839E+03  0.84006754839E+03  0.00000000000E+00 0.  1.
         24    1    1    2    0    0  0.41529297495E+00 -0.92308994315E+02 -0.34430454801E+03  0.36542298865E+03  0.80419002446E+02 0.  1.
          1    1    1    2  501    0 -0.16103944390E+02  0.58741587634E+02  0.63768020183E+03  0.64058250908E+03  0.00000000000E+00 0. -1.
         -2    1    1    2    0  503  0.15688651415E+02  0.33567406681E+02 -0.48304311888E+03  0.48446213399E+03  0.00000000000E+00 0.  1.
<mgrwt>
<rscale>  2 0.11019432E+03</rscale>
<asrwt>0</asrwt>
<pdfrwt beam="1">  1       21 0.10006155E+00 0.11019432E+03</pdfrwt>
<pdfrwt beam="2">  1       21 0.12924116E+00 0.11019432E+03</pdfrwt>
<totfact> 0.40614564E+02</totfact>
</mgrwt>
</event>
<event>
 5    1  0.1855960E+000  0.7779205E+02  0.7546771E-02  0.1335437E+00
         21   -1    0    0  503  502  0.00000000000E+00  0.00000000000E+00  0.12418056556E+03  0.12418056556E+03  0.00000000000E+00 0.  1.
         21   -1    0    0  501  503 -0.00000000000E+00 -0.00000000000E+00 -0.54407589248E+03  0.54407589248E+03  0.00000000000E+00 0. -1.
         24    1    1    2    0    0  0.17910525369E+02 -0.47551488379E+02 -0.11615227467E+03  0.15013493208E+03  0.80419002446E+02 0.  0.
          1    1    1    2  501    0  0.42983047694E+01  0.34356181300E+02 -0.40863298970E+03  0.41009723590E+03  0.00000000000E+00 0. -1.
         -2    1    1    2    0  502 -0.22208830139E+02  0.13195307079E+02  0.10488993745E+03  0.10802429006E+03  0.00000000000E+00 0.  1.
<mgrwt>
<rscale>  2 0.77792053E+02</rscale>
<asrwt>0</asrwt>
<pdfrwt beam="1">  1       21 0.19104702E-01 0.77792053E+02</pdfrwt>
<pdfrwt beam="2">  1       21 0.83703984E-01 0.77792053E+02</pdfrwt>
<totfact> 0.33774283E+04</totfact>
</mgrwt>
</event>
<event>
 5    1  0.1855960E+000  0.8181508E+02  0.7546771E-02  0.1323978E+00
         21   -1    0    0  503  502  0.00000000000E+00  0.00000000000E+00  0.10657115709E+03  0.10657115709E+03  0.00000000000E+00 0. -1.
         21   -1    0    0  501  503 -0.00000000000E+00 -0.00000000000E+00 -0.67771667949E+02  0.67771667949E+02  0.00000000000E+00 0. -1.
         24    1    1    2    0    0  0.18399093562E+02  0.11874266670E+02  0.42536898319E+02  0.93574187284E+02  0.80419002446E+02 0. -1.
          1    1    1    2  501    0 -0.48243130998E+02 -0.14361891223E+02 -0.62200899103E+01  0.50718370700E+02  0.00000000000E+00 0. -1.
         -2    1    1    2    0  502  0.29844037436E+02  0.24876245531E+01  0.24826807320E+01  0.30050267054E+02  0.00000000000E+00 0.  1.
<mgrwt>
<rscale>  2 0.81815078E+02</rscale>
<asrwt>0</asrwt>
<pdfrwt beam="1">  1       21 0.16395563E-01 0.81815078E+02</pdfrwt>
<pdfrwt beam="2">  1       21 0.10426410E-01 0.81815078E+02</pdfrwt>
<totfact> 0.24468520E+06</totfact>
</mgrwt>
</event>
<event>
 5    1  0.1855960E+000  0.6297199E+02  0.7546771E-02  0.1385767E+00
         21   -1    0    0  501  502  0.00000000000E+00  0.00000000000E+00  0.43931314293E+01  0.43931314293E+01  0.00000000000E+00 0.  1.
         21   -1    0    0  502  503 -0.00000000000E+00 -0.00000000000E+00 -0.11110154719E+04  0.11110154719E+04  0.00000000000E+00 0.  1.
         24    1    1    2    0    0 -0.11474731864E+01 -0.10583138791E+02 -0.47549547794E+03  0.48236550977E+03  0.80419002446E+02 0.  1.
          1    1    1    2  501    0 -0.20378445486E+02 -0.95395342522E+00 -0.16177669713E+03  0.16305793695E+03  0.00000000000E+00 0. -1.
         -2    1    1    2    0  503  0.21525918673E+02  0.11537092216E+02 -0.46935016545E+03  0.46998515666E+03  0.00000000000E+00 0.  1.
<mgrwt>
<rscale>  2 0.62971995E+02</rscale>
<asrwt>0</asrwt>
<pdfrwt beam="1">  1       21 0.67586611E-03 0.62971995E+02</pdfrwt>
<pdfrwt beam="2">  1       21 0.17092552E+00 0.62971995E+02</pdfrwt>
<totfact> 0.14867571E+06</totfact>
</mgrwt>
</event>
<event>
 5    1  0.1855960E+000  0.1119853E+03  0.7546771E-02  0.1256937E+00
         21   -1    0    0  501  502  0.00000000000E+00  0.00000000000E+00  0.69939106650E+02  0.69939106650E+02  0.00000000000E+00 0. -1.
         21   -1    0    0  502  503 -0.00000000000E+00 -0.00000000000E+00 -0.43377264004E+03  0.43377264004E+03  0.00000000000E+00 0. -1.
         24    1    1    2    0    0 -0.15647025510E+02 -0.79644767754E+02 -0.52307987756E+02  0.12566407591E+03  0.80419002446E+02 0. -1.
          1    1    1    2  501    0 -0.26333248102E+02  0.55130894418E+02  0.16520965108E+01  0.61119431426E+02  0.00000000000E+00 0. -1.
         -2    1    1    2    0  503  0.41980273612E+02  0.24513873335E+02 -0.31317764215E+03  0.31692823935E+03  0.00000000000E+00 0.  1.
<mgrwt>
<rscale>  2 0.11198528E+03</rscale>
<asrwt>0</asrwt>
<pdfrwt beam="1">  1       21 0.10759863E-01 0.11198528E+03</pdfrwt>
<pdfrwt beam="2">  1       21 0.66734251E-01 0.11198528E+03</pdfrwt>
<totfact> 0.15073215E+05</totfact>
</mgrwt>
</event>
<event>
 5    1  0.1855960E+000  0.1225712E+03  0.7546771E-02  0.1238915E+00
         21   -1    0    0  501  502  0.00000000000E+00  0.00000000000E+00  0.13961184047E+04  0.13961184047E+04  0.00000000000E+00 0.  1.
         21   -1    0    0  502  503 -0.00000000000E+00 -0.00000000000E+00 -0.26734526653E+02  0.26734526653E+02  0.00000000000E+00 0.  1.
         24    1    1    2    0    0 -0.86496154211E+02 -0.18971422218E+02  0.16725231050E+03  0.20562599757E+03  0.80419002446E+02 0.  1.
          1    1    1    2  501    0 -0.15148470639E+02  0.18456822374E+02  0.85960730612E+03  0.85993886480E+03  0.00000000000E+00 0. -1.
         -2    1    1    2    0  503  0.10164462485E+03  0.51459984323E+00  0.34252426147E+03  0.35728806903E+03  0.00000000000E+00 0.  1.
<mgrwt>
<rscale>  2 0.12257119E+03</rscale>
<asrwt>0</asrwt>
<pdfrwt beam="1">  1       21 0.21478739E+00 0.12257119E+03</pdfrwt>
<pdfrwt beam="2">  1       21 0.41130052E-02 0.12257119E+03</pdfrwt>
<totfact> 0.42839837E+04</totfact>
</mgrwt>
</event>
<event>
 5    1  0.1855960E+000  0.9515034E+02  0.7546771E-02  0.1290838E+00
         21   -1    0    0  503  502  0.00000000000E+00  0.00000000000E+00  0.38347223356E+02  0.38347223356E+02  0.00000000000E+00 0. -1.
         21   -1    0    0  501  503 -0.00000000000E+00 -0.00000000000E+00 -0.36648090380E+03  0.36648090380E+03  0.00000000000E+00 0.  1.
         24    1    1    2    0    0  0.55340509334E+02  0.61046403061E+00 -0.14703492246E+03  0.17649200836E+03  0.80419002446E+02 0. -1.
          1    1    1    2  501    0  0.11612227270E+02 -0.19866492909E+02 -0.15049434475E+03  0.15224345360E+03  0.00000000000E+00 0. -1.
         -2    1    1    2    0  502 -0.66952736603E+02  0.19256028879E+02 -0.30604413242E+02  0.76092665196E+02  0.00000000000E+00 0.  1.
<mgrwt>
<rscale>  2 0.95150338E+02</rscale>
<asrwt>0</asrwt>
<pdfrwt beam="1">  1       21 0.58995730E-02 0.95150338E+02</pdfrwt>
<pdfrwt beam="2">  1       21 0.56381676E-01 0.95150338E+02</pdfrwt>
<totfact> 0.60566286E+05</totfact>
</mgrwt>
</event>
<event>
 5    1  0.1855960E+000  0.8577937E+02  0.7546771E-02  0.1313407E+00
         21   -1    0    0  503  502  0.00000000000E+00  0.00000000000E+00  0.10325397058E+02  0.10325397058E+02  0.00000000000E+00 0. -1.
         21   -1    0    0  501  503 -0.00000000000E+00 -0.00000000000E+00 -0.85505411523E+03  0.85505411523E+03  0.00000000000E+00 0.  1.
         24    1    1    2    0    0 -0.45771238004E+02  0.38316222492E+01 -0.28123546794E+03  0.29609169516E+03  0.80419002446E+02 0. -1.
          1    1    1    2  501    0  0.22971169536E+02  0.30224753748E+02 -0.33541648387E+03  0.33755803652E+03  0.00000000000E+00 0. -1.
         -2    1    1    2    0  502  0.22800068468E+02 -0.34056375997E+02 -0.22807676637E+03  0.23172978062E+03  0.00000000000E+00 0.  1.
<mgrwt>
<rscale>  2 0.85779374E+02</rscale>
<asrwt>0</asrwt>
<pdfrwt beam="1">  1       21 0.15885216E-02 0.85779374E+02</pdfrwt>
<pdfrwt beam="2">  1       21 0.13154687E+00 0.85779374E+02</pdfrwt>
<totfact> 0.76234623E+05</totfact>
</mgrwt>
</event>
<event>
 5    1  0.1855960E+000  0.7457479E+02  0.7546771E-02  0.1345193E+00
         21   -1    0    0  501  502  0.00000000000E+00  0.00000000000E+00  0.16531607073E+02  0.16531607073E+02  0.00000000000E+00 0.  1.
         21   -1    0    0  502  503 -0.00000000000E+00 -0.00000000000E+00 -0.34059818804E+03  0.34059818804E+03  0.00000000000E+00 0. -1.
         24    1    1    2    0    0  0.42165905654E+02 -0.19620684317E+02 -0.20889898347E+03  0.22862400596E+03  0.80419002446E+02 0.  1.
          1    1    1    2  501    0 -0.70796570627E+01  0.19943955217E+02 -0.33571919582E+02  0.39685723859E+02  0.00000000000E+00 0. -1.
         -2    1    1    2    0  503 -0.35086248591E+02 -0.32327090062E+00 -0.81595677915E+02  0.88820065293E+02  0.00000000000E+00 0.  1.
<mgrwt>
<rscale>  2 0.74574793E+02</rscale>
<asrwt>0</asrwt>
<pdfrwt beam="1">  1       21 0.25433245E-02 0.74574793E+02</pdfrwt>
<pdfrwt beam="2">  1       21 0.52399714E-01 0.74574793E+02</pdfrwt>
<totfact> 0.27871476E+06</totfact>
</mgrwt>
</event>
<event>
 5    1  0.1855960E+000  0.6440818E+02  0.7546771E-02  0.1380212E+00
         21   -1    0    0  503  502  0.00000000000E+00  0.00000000000E+00  0.47999047429E+03  0.47999047429E+03  0.00000000000E+00 0.  1.
         21   -1    0    0  501  503 -0.00000000000E+00 -0.00000000000E+00 -0.14129421535E+02  0.14129421535E+02  0.00000000000E+00 0. -1.
         24    1    1    2    0    0  0.47708513711E+01  0.11543317883E+01  0.31501558674E+03  0.32515554639E+03  0.80419002446E+02 0.  0.
          1    1    1    2  501    0  0.10612610216E+02 -0.20767048992E+02  0.90842383047E+01  0.25028407960E+02  0.00000000000E+00 0. -1.
         -2    1    1    2    0  502 -0.15383461587E+02  0.19612717203E+02  0.14176122771E+03  0.14393594148E+03  0.00000000000E+00 0.  1.
<mgrwt>
<rscale>  2 0.64408181E+02</rscale>
<asrwt>0</asrwt>
<pdfrwt beam="1">  1       21 0.73844676E-01 0.64408181E+02</pdfrwt>
<pdfrwt beam="2">  1       21 0.21737575E-02 0.64408181E+02</pdfrwt>
<totfact> 0.17329040E+06</totfact>
</mgrwt>
</event>
<event>
 5    1  0.1855960E+000  0.7160567E+02  0.7546771E-02  0.1354716E+00
         21   -1    0    0  501  502  0.00000000000E+00  0.00000000000E+00  0.13474111544E+03  0.13474111544E+03  0.00000000000E+00 0. -1.
         21   -1    0    0  502  503 -0.00000000000E+00 -0.00000000000E+00 -0.45223809964E+02  0.45223809964E+02  0.00000000000E+00 0. -1.
         24    1    1    2    0    0  0.13100560090E+02 -0.44435852965E+02  0.45680456677E+02  0.10344123829E+03  0.80419002446E+02 0. -1.
          1    1    1    2  501    0  0.12505297395E+01  0.30073657431E+02  0.47163262905E+02  0.55949638638E+02  0.00000000000E+00 0. -1.
         -2    1    1    2    0  503 -0.14351089830E+02  0.14362195534E+02 -0.33264141022E+01  0.20574048475E+02  0.00000000000E+00 0.  1.
<mgrwt>
<rscale>  2 0.71605667E+02</rscale>
<asrwt>0</asrwt>
<pdfrwt beam="1">  1       21 0.20729402E-01 0.71605667E+02</pdfrwt>
<pdfrwt beam="2">  1       21 0.69575093E-02 0.71605667E+02</pdfrwt>
<totfact> 0.31705764E+06</totfact>
</mgrwt>
</event>
<event>
 5    1  0.1855960E+000  0.7811059E+02  0.7546771E-02  0.1334500E+00
         21   -1    0    0  503  502  0.00000000000E+00  0.00000000000E+00  0.46222316538E+02  0.46222316538E+02  0.00000000000E+00 0. -1.
         21   -1    0    0  501  503 -0.00000000000E+00 -0.00000000000E+00 -0.13366535245E+03  0.13366535245E+03  0.00000000000E+00 0.  1.
         24    1    1    2    0    0 -0.52395264271E+02 -0.22095131829E+02 -0.57637874354E+02  0.11411747931E+03  0.80419002446E+02 0.  1.
          1    1    1    2  501    0  0.22786805946E+02  0.15005474059E+02 -0.19842570000E+02  0.33736187709E+02  0.00000000000E+00 0. -1.
         -2    1    1    2    0  502  0.29608458325E+02  0.70896577707E+01 -0.99625915553E+01  0.32034001969E+02  0.00000000000E+00 0.  1.
<mgrwt>
<rscale>  2 0.78110588E+02</rscale>
<asrwt>0</asrwt>
<pdfrwt beam="1">  1       21 0.71111257E-02 0.78110588E+02</pdfrwt>
<pdfrwt beam="2">  1       21 0.20563900E-01 0.78110588E+02</pdfrwt>
<totfact> 0.31172324E+06</totfact>
</mgrwt>
</event>
<event>
 5    1  0.1855960E+000  0.9552351E+02  0.7546771E-02  0.1290001E+00
         21   -1    0    0  501  502  0.00000000000E+00  0.00000000000E+00  0.22431411751E+03  0.22431411751E+03  0.00000000000E+00 0. -1.
         21   -1    0    0  502  503 -0.00000000000E+00 -0.00000000000E+00 -0.88239353040E+02  0.88239353040E+02  0.00000000000E+00 0. -1.
         24    1    1    2    0    0  0.77809287406E+02 -0.40034588970E+01 -0.21788269223E+02  0.11407128263E+03  0.80419002446E+02 0. -1.
          1    1    1    2  501    0 -0.38701078777E+02 -0.47751062988E+01  0.15325345369E+03  0.15813663778E+03  0.00000000000E+00 0. -1.
         -2    1    1    2    0  503 -0.39108208630E+02  0.87785651958E+01  0.46095800039E+01  0.40345550150E+02  0.00000000000E+00 0.  1.
<mgrwt>
<rscale>  2 0.95523508E+02</rscale>
<asrwt>0</asrwt>
<pdfrwt beam="1">  1       21 0.34509864E-01 0.95523508E+02</pdfrwt>
<pdfrwt beam="2">  1       21 0.13575285E-01 0.95523508E+02</pdfrwt>
<totfact> 0.38614270E+05</totfact>
</mgrwt>
</event>
<event>
 5    1  0.1855960E+000  0.1838789E+03  0.7546771E-02  0.1164101E+00
         21   -1    0    0  501  502  0.00000000000E+00  0.00000000000E+00  0.59992744497E+02  0.59992744497E+02  0.00000000000E+00 0. -1.
         21   -1    0    0  502  503 -0.00000000000E+00 -0.00000000000E+00 -0.11039733864E+04  0.11039733864E+04  0.00000000000E+00 0.  1.
         24    1    1    2    0    0 -0.38179918534E+02 -0.12381250246E+03 -0.12335163678E+03  0.19613792136E+03  0.80419002446E+02 0. -1.
          1    1    1    2  501    0  0.11073070522E+02 -0.43950973637E+02 -0.17078083629E+02  0.48435130999E+02  0.00000000000E+00 0. -1.
         -2    1    1    2    0  503  0.27106848012E+02  0.16776347610E+03 -0.90355092146E+03  0.91939307850E+03  0.00000000000E+00 0.  1.
<mgrwt>
<rscale>  2 0.18387891E+03</rscale>
<asrwt>0</asrwt>
<pdfrwt beam="1">  1       21 0.92296541E-02 0.18387891E+03</pdfrwt>
<pdfrwt beam="2">  1       21 0.16984204E+00 0.18387891E+03</pdfrwt>
<totfact> 0.20116730E+04</totfact>
</mgrwt>
</event>
<event>
 5    1  0.1855960E+000  0.7518907E+02  0.7546771E-02  0.1343287E+00
         21   -1    0    0  503  502  0.00000000000E+00  0.00000000000E+00  0.15764295466E+03  0.15764295466E+03  0.00000000000E+00 0. -1.
         21   -1    0    0  501  503 -0.00000000000E+00 -0.00000000000E+00 -0.51950138442E+02  0.51950138442E+02  0.00000000000E+00 0. -1.
         24    1    1    2    0    0  0.14703173424E+02 -0.33296687972E+02  0.71039268635E+02  0.11330775076E+03  0.80419002446E+02 0. -1.
          1    1    1    2  501    0 -0.32750160244E+02  0.13801821379E+02 -0.16087056381E+02  0.39010981177E+02  0.00000000000E+00 0. -1.
         -2    1    1    2    0  502  0.18046986820E+02  0.19494866593E+02  0.50740603967E+02  0.57274361172E+02  0.00000000000E+00 0.  1.
<mgrwt>
<rscale>  2 0.75189065E+02</rscale>
<asrwt>0</asrwt>
<pdfrwt beam="1">  1       21 0.24252762E-01 0.75189065E+02</pdfrwt>
<pdfrwt beam="2">  1       21 0.79923291E-02 0.75189065E+02</pdfrwt>
<totfact> 0.18839620E+06</totfact>
</mgrwt>
</event>
<event>
 5    1  0.1855960E+000  0.8002583E+02  0.7546771E-02  0.1328978E+00
         21   -1    0    0  503  502  0.00000000000E+00  0.00000000000E+00  0.14020846044E+03  0.14020846044E+03  0.00000000000E+00 0.  1.
         21   -1    0    0  501  503 -0.00000000000E+00 -0.00000000000E+00 -0.19472000246E+03  0.19472000246E+03  0.00000000000E+00 0. -1.
         24    1    1    2    0    0 -0.38042217312E+02  0.16055731072E+02 -0.62683028604E+02  0.11000624904E+03  0.80419002446E+02 0.  0.
          1    1    1    2  501    0  0.22021504838E+02  0.20282223085E+02 -0.10279369948E+03  0.10706474630E+03  0.00000000000E+00 0. -1.
         -2    1    1    2    0  502  0.16020712474E+02 -0.36337954157E+02  0.11096518606E+03  0.11785746755E+03  0.00000000000E+00 0.  1.
<mgrwt>
<rscale>  2 0.80025831E+02</rscale>
<asrwt>0</asrwt>
<pdfrwt beam="1">  1       21 0.21570532E-01 0.80025831E+02</pdfrwt>
<pdfrwt beam="2">  1       21 0.29956923E-01 0.80025831E+02</pdfrwt>
<totfact> 0.22043025E+05</totfact>
</mgrwt>
</event>
<event>
 5    1  0.1855960E+000  0.6795028E+02  0.7546771E-02  0.1367205E+00
         21   -1    0    0  501  502  0.00000000000E+00  0.00000000000E+00  0.34624374941E+02  0.34624374941E+02  0.00000000000E+00 0.  1.
         21   -1    0    0  502  503 -0.00000000000E+00 -0.00000000000E+00 -0.13352328402E+03  0.13352328402E+03  0.00000000000E+00 0. -1.
         24    1    1    2    0    0  0.21637812832E+02 -0.35428166700E+02 -0.63434386489E+02  0.11051917157E+03  0.80419002446E+02 0.  0.
          1    1    1    2  501    0 -0.17152136520E+02  0.10588099171E+02 -0.14801079110E+02  0.25007510353E+02  0.00000000000E+00 0. -1.
         -2    1    1    2    0  503 -0.44856763120E+01  0.24840067529E+02 -0.20663443483E+02  0.32620977045E+02  0.00000000000E+00 0.  1.
<mgrwt>
<rscale>  2 0.67950278E+02</rscale>
<asrwt>0</asrwt>
<pdfrwt beam="1">  1       21 0.53268268E-02 0.67950278E+02</pdfrwt>
<pdfrwt beam="2">  1       21 0.20542044E-01 0.67950278E+02</pdfrwt>
<totfact> 0.50160373E+06</totfact>
</mgrwt>
</event>
<event>
 5    1  0.1855960E+000  0.1149355E+03  0.7546771E-02  0.1251694E+00
         21   -1    0    0  501  502  0.00000000000E+00  0.00000000000E+00  0.44454629512E+03  0.44454629512E+03  0.00000000000E+00 0. -1.
         21   -1    0    0  502  503 -0.00000000000E+00 -0.00000000000E+00 -0.11587355394E+03  0.11587355394E+03  0.00000000000E+00 0.  1.
         24    1    1    2    0    0 -0.15943184595E+02  0.94610218092E+02  0.20284744964E+03  0.23836858493E+03  0.80419002446E+02 0.  1.
          1    1    1    2  501    0 -0.13813669336E+02 -0.42313666380E+02  0.21218157389E+03  0.21680010176E+03  0.00000000000E+00 0. -1.
         -2    1    1    2    0  503  0.29756853931E+02 -0.52296551712E+02 -0.86356282352E+02  0.10525116236E+03  0.00000000000E+00 0.  1.
<mgrwt>
<rscale>  2 0.11493549E+03</rscale>
<asrwt>0</asrwt>
<pdfrwt beam="1">  1       21 0.68391737E-01 0.11493549E+03</pdfrwt>
<pdfrwt beam="2">  1       21 0.17826701E-01 0.11493549E+03</pdfrwt>
<totfact> 0.57943453E+04</totfact>
</mgrwt>
</event>
<event>
 5    1  0.1855960E+000  0.7674201E+02  0.7546771E-02  0.1338560E+00
         21   -1    0    0  501  502  0.00000000000E+00  0.00000000000E+00  0.13462360276E+03  0.13462360276E+03  0.00000000000E+00 0.  1.
         21   -1    0    0  502  503 -0.00000000000E+00 -0.00000000000E+00 -0.76422542753E+02  0.76422542753E+02  0.00000000000E+00 0.  1.
         24    1    1    2    0    0 -0.21396332739E+02 -0.47587747658E+02  0.87728909110E+02  0.12994604353E+03  0.80419002446E+02 0.  1.
          1    1    1    2  501    0 -0.31541126390E+01  0.21759748767E+02  0.13057745008E+02  0.25572246628E+02  0.00000000000E+00 0. -1.
         -2    1    1    2    0  503  0.24550445378E+02  0.25827998892E+02 -0.42585594107E+02  0.55527855356E+02  0.00000000000E+00 0.  1.
<mgrwt>
<rscale>  2 0.76742009E+02</rscale>
<asrwt>0</asrwt>
<pdfrwt beam="1">  1       21 0.20711324E-01 0.76742009E+02</pdfrwt>
<pdfrwt beam="2">  1       21 0.11757314E-01 0.76742009E+02</pdfrwt>
<totfact> 0.12975890E+06</totfact>
</mgrwt>
</event>
<event>
 5    1  0.1855960E+000  0.1035427E+03  0.7546771E-02  0.1273018E+00
         21   -1    0    0  503  502  0.00000000000E+00  0.00000000000E+00  0.17874776493E+02  0.17874776493E+02  0.00000000000E+00 0. -1.
         21   -1    0    0  501  503 -0.00000000000E+00 -0.00000000000E+00 -0.13821033033E+04  0.13821033033E+04  0.00000000000E+00 0. -1.
         24    1    1    2    0    0  0.59383102420E+02 -0.18555467571E+02 -0.31907590477E+03  0.33488402051E+03  0.80419002446E+02 0. -1.
          1    1    1    2  501    0 -0.80763759862E+02  0.68980008214E+01 -0.10358638866E+04  0.10390304899E+04  0.00000000000E+00 0. -1.
         -2    1    1    2    0  502  0.21380657442E+02  0.11657466750E+02 -0.92887354061E+01  0.26063569386E+02  0.00000000000E+00 0.  1.
<mgrwt>
<rscale>  2 0.10354266E+03</rscale>
<asrwt>0</asrwt>
<pdfrwt beam="1">  1       21 0.27499653E-02 0.10354266E+03</pdfrwt>
<pdfrwt beam="2">  1       21 0.21263130E+00 0.10354266E+03</pdfrwt>
<totfact> 0.87081083E+04</totfact>
</mgrwt>
</event>
<event>
 5    1  0.1855960E+000  0.9903361E+02  0.7546771E-02  0.1282341E+00
         21   -1    0    0  501  502  0.00000000000E+00  0.00000000000E+00  0.86648081914E+02  0.86648081914E+02  0.00000000000E+00 0. -1.
         21   -1    0    0  502  503 -0.00000000000E+00 -0.00000000000E+00 -0.12508821035E+03  0.12508821035E+03  0.00000000000E+00 0. -1.
         24    1    1    2    0    0  0.49907598034E+02 -0.43247993110E+02 -0.42590818557E+02  0.11243820983E+03  0.80419002446E+02 0. -1.
          1    1    1    2  501    0 -0.42592501675E+02 -0.70574466280E+01  0.17744175668E+02  0.46677451965E+02  0.00000000000E+00 0. -1.
         -2    1    1    2    0  503 -0.73150963583E+01  0.50305439738E+02 -0.13593485550E+02  0.52620630473E+02  0.00000000000E+00 0.  1.
<mgrwt>
<rscale>  2 0.99033613E+02</rscale>
<asrwt>0</asrwt>
<pdfrwt beam="1">  1       21 0.13330474E-01 0.99033613E+02</pdfrwt>
<pdfrwt beam="2">  1       21 0.19244340E-01 0.99033613E+02</pdfrwt>
<totfact> 0.11981967E+06</totfact>
</mgrwt>
</event>
<event>
 5    1  0.1855960E+000  0.9114524E+02  0.7546771E-02  0.1300102E+00
         21   -1    0    0  501  502  0.00000000000E+00  0.00000000000E+00  0.18186940947E+03  0.18186940947E+03  0.00000000000E+00 0. -1.
         21   -1    0    0  502  503 -0.00000000000E+00 -0.00000000000E+00 -0.11048859922E+03  0.11048859922E+03  0.00000000000E+00 0. -1.
         24    1    1    2    0    0  0.59404788765E+01  0.45681221048E+01 -0.37071506628E+02  0.88868833608E+02  0.80419002446E+02 0. -1.
          1    1    1    2  501    0 -0.12954579784E+02  0.47372057999E+02  0.13577436492E+03  0.14438355580E+03  0.00000000000E+00 0. -1.
         -2    1    1    2    0  503  0.70141009075E+01 -0.51940180104E+02 -0.27322048051E+02  0.59105619280E+02  0.00000000000E+00 0.  1.
<mgrwt>
<rscale>  2 0.91145237E+02</rscale>
<asrwt>0</asrwt>
<pdfrwt beam="1">  1       21 0.27979909E-01 0.91145237E+02</pdfrwt>
<pdfrwt beam="2">  1       21 0.16998246E-01 0.91145237E+02</pdfrwt>
<totfact> 0.38647963E+05</totfact>
</mgrwt>
</event>
<event>
 5    1  0.1855960E+000  0.7552987E+02  0.7546771E-02  0.1342238E+00
         21   -1    0    0  503  502  0.00000000000E+00  0.00000000000E+00  0.18628932090E+02  0.18628932090E+02  0.00000000000E+00 0. -1.
         21   -1    0    0  501  503 -0.00000000000E+00 -0.00000000000E+00 -0.66049934714E+03  0.66049934714E+03  0.00000000000E+00 0.  1.
         24    1    1    2    0    0 -0.51849771107E+01  0.52303032023E+02 -0.59482196052E+03  0.60253039078E+03  0.80419002446E+02 0.  1.
          1    1    1    2  501    0 -0.57397923736E+01 -0.23284202186E+02 -0.36831898273E+02  0.43950972894E+02  0.00000000000E+00 0. -1.
         -2    1    1    2    0  502  0.10924769484E+02 -0.29018829837E+02 -0.10216556259E+02  0.32646915554E+02  0.00000000000E+00 0.  1.
<mgrwt>
<rscale>  2 0.75529869E+02</rscale>
<asrwt>0</asrwt>
<pdfrwt beam="1">  1       21 0.28659895E-02 0.75529869E+02</pdfrwt>
<pdfrwt beam="2">  1       21 0.10161528E+00 0.75529869E+02</pdfrwt>
<totfact> 0.54846712E+05</totfact>
</mgrwt>
</event>
<event>
 5    1  0.1855960E+000  0.7887421E+02  0.7546771E-02  0.1332277E+00
         21   -1    0    0  503  502  0.00000000000E+00  0.00000000000E+00  0.21738391687E+02  0.21738391687E+02  0.00000000000E+00 0.  1.
         21   -1    0    0  501  503 -0.00000000000E+00 -0.00000000000E+00 -0.43058554343E+03  0.43058554343E+03  0.00000000000E+00 0.  1.
         24    1    1    2    0    0  0.37340288175E+02 -0.67378666557E+01 -0.31844006202E+03  0.33062211817E+03  0.80419002446E+02 0.  1.
          1    1    1    2  501    0 -0.38061418623E+02 -0.19372070891E+02 -0.84857832298E+02  0.94998949576E+02  0.00000000000E+00 0. -1.
         -2    1    1    2    0  502  0.72113044855E+00  0.26109937547E+02 -0.55492574205E+01  0.26702867370E+02  0.00000000000E+00 0.  1.
<mgrwt>
<rscale>  2 0.78874213E+02</rscale>
<asrwt>0</asrwt>
<pdfrwt beam="1">  1       21 0.33443687E-02 0.78874213E+02</pdfrwt>
<pdfrwt beam="2">  1       21 0.66243915E-01 0.78874213E+02</pdfrwt>
<totfact> 0.11002243E+06</totfact>
</mgrwt>
</event>
<event>
 5    1  0.1855960E+000  0.8523669E+02  0.7546771E-02  0.1314815E+00
         21   -1    0    0  503  502  0.00000000000E+00  0.00000000000E+00  0.32963603281E+02  0.32963603281E+02  0.00000000000E+00 0. -1.
         21   -1    0    0  501  503 -0.00000000000E+00 -0.00000000000E+00 -0.42608606453E+03  0.42608606453E+03  0.00000000000E+00 0. -1.
         24    1    1    2    0    0  0.19338851836E+02 -0.47782664614E+02 -0.20010470760E+03  0.22173471579E+03  0.80419002446E+02 0. -1.
          1    1    1    2  501    0 -0.38253571331E+02  0.36793911876E+02 -0.20542168438E+03  0.21216784885E+03  0.00000000000E+00 0. -1.
         -2    1    1    2    0  502  0.18914719495E+02  0.10988752738E+02  0.12403930734E+02  0.25147103172E+02  0.00000000000E+00 0.  1.
<mgrwt>
<rscale>  2 0.85236689E+02</rscale>
<asrwt>0</asrwt>
<pdfrwt beam="1">  1       21 0.50713236E-02 0.85236689E+02</pdfrwt>
<pdfrwt beam="2">  1       21 0.65551701E-01 0.85236689E+02</pdfrwt>
<totfact> 0.56779493E+05</totfact>
</mgrwt>
</event>
<event>
 5    1  0.1855960E+000  0.7524236E+02  0.7546771E-02  0.1343122E+00
         21   -1    0    0  501  502  0.00000000000E+00  0.00000000000E+00  0.10456211504E+03  0.10456211504E+03  0.00000000000E+00 0.  1.
         21   -1    0    0  502  503 -0.00000000000E+00 -0.00000000000E+00 -0.89184582346E+02  0.89184582346E+02  0.00000000000E+00 0.  1.
         24    1    1    2    0    0  0.54668402195E+01 -0.15077501709E+02 -0.35098231953E+02  0.89198202002E+02  0.80419002446E+02 0.  0.
          1    1    1    2  501    0 -0.81909395492E+01 -0.26027996020E+02  0.56663057900E+02  0.62890779913E+02  0.00000000000E+00 0. -1.
         -2    1    1    2    0  503  0.27240993298E+01  0.41105497728E+02 -0.61872932509E+01  0.41657715473E+02  0.00000000000E+00 0.  1.
<mgrwt>
<rscale>  2 0.75242357E+02</rscale>
<asrwt>0</asrwt>
<pdfrwt beam="1">  1       21 0.16086479E-01 0.75242357E+02</pdfrwt>
<pdfrwt beam="2">  1       21 0.13720705E-01 0.75242357E+02</pdfrwt>
<totfact> 0.15612881E+06</totfact>
</mgrwt>
</event>
<event>
 5    1  0.1855960E+000  0.8396997E+02  0.7546771E-02  0.1318148E+00
         21   -1    0    0  503  502  0.00000000000E+00  0.00000000000E+00  0.43671311227E+03  0.43671311227E+03  0.00000000000E+00 0.  1.
         21   -1    0    0  501  503 -0.00000000000E+00 -0.00000000000E+00 -0.32142887583E+02  0.32142887583E+02  0.00000000000E+00 0. -1.
         24    1    1    2    0    0  0.87314384602E+01  0.42695827301E+00  0.13488331055E+03  0.15728046201E+03  0.80419002446E+02 0.  1.
          1    1    1    2  501    0  0.37745102444E+02  0.10749013334E+02  0.16191553235E+01  0.39279202004E+02  0.00000000000E+00 0. -1.
         -2    1    1    2    0  502 -0.46476540904E+02 -0.11175971607E+02  0.26806775881E+03  0.27229633583E+03  0.00000000000E+00 0.  1.
<mgrwt>
<rscale>  2 0.83969967E+02</rscale>
<asrwt>0</asrwt>
<pdfrwt beam="1">  1       21 0.67186628E-01 0.83969967E+02</pdfrwt>
<pdfrwt beam="2">  1       21 0.49450599E-02 0.83969967E+02</pdfrwt>
<totfact> 0.56176917E+05</totfact>
</mgrwt>
</event>
<event>
 5    1  0.1855960E+000  0.8523048E+02  0.7546771E-02  0.1314831E+00
         21   -1    0    0  501  502  0.00000000000E+00  0.00000000000E+00  0.21312449035E+03  0.21312449035E+03  0.00000000000E+00 0.  1.
         21   -1    0    0  502  503 -0.00000000000E+00 -0.00000000000E+00 -0.11663403671E+03  0.11663403671E+03  0.00000000000E+00 0.  1.
         24    1    1    2    0    0  0.20431846177E+02  0.14851634276E+02  0.69194482398E+02  0.10905559925E+03  0.80419002446E+02 0.  1.
          1    1    1    2  501    0  0.45098101885E+01 -0.46024815402E+02  0.11521201416E+03  0.12414680917E+03  0.00000000000E+00 0. -1.
         -2    1    1    2    0  503 -0.24941656365E+02  0.31173181126E+02 -0.87916042918E+02  0.96556118636E+02  0.00000000000E+00 0.  1.
<mgrwt>
<rscale>  2 0.85230481E+02</rscale>
<asrwt>0</asrwt>
<pdfrwt beam="1">  1       21 0.32788383E-01 0.85230481E+02</pdfrwt>
<pdfrwt beam="2">  1       21 0.17943698E-01 0.85230481E+02</pdfrwt>
<totfact> 0.25906636E+05</totfact>
</mgrwt>
</event>
<event>
 5    1  0.1855960E+000  0.7319249E+02  0.7546771E-02  0.1349561E+00
         21   -1    0    0  501  502  0.00000000000E+00  0.00000000000E+00  0.92180276014E+01  0.92180276014E+01  0.00000000000E+00 0. -1.
         21   -1    0    0  502  503 -0.00000000000E+00 -0.00000000000E+00 -0.88546006195E+03  0.88546006195E+03  0.00000000000E+00 0. -1.
         24    1    1    2    0    0  0.15759155237E+01 -0.44615096964E+02 -0.52634165033E+03  0.53431801319E+03  0.80419002446E+02 0. -1.
          1    1    1    2  501    0 -0.16120455026E+02  0.18710860372E+02 -0.29017344739E+02  0.38104745922E+02  0.00000000000E+00 0. -1.
         -2    1    1    2    0  503  0.14544539502E+02  0.25904236592E+02 -0.32088303928E+03  0.32225533045E+03  0.00000000000E+00 0.  1.
<mgrwt>
<rscale>  2 0.73192494E+02</rscale>
<asrwt>0</asrwt>
<pdfrwt beam="1">  1       21 0.14181579E-02 0.73192494E+02</pdfrwt>
<pdfrwt beam="2">  1       21 0.13622464E+00 0.73192494E+02</pdfrwt>
<totfact> 0.83733995E+05</totfact>
</mgrwt>
</event>
<event>
 5    1  0.1855960E+000  0.7253756E+02  0.7546771E-02  0.1351671E+00
         21   -1    0    0  503  502  0.00000000000E+00  0.00000000000E+00  0.59531275043E+03  0.59531275043E+03  0.00000000000E+00 0.  1.
         21   -1    0    0  501  503 -0.00000000000E+00 -0.00000000000E+00 -0.14444882185E+02  0.14444882185E+02  0.00000000000E+00 0. -1.
         24    1    1    2    0    0 -0.54233952822E+01  0.46209079425E+02  0.16651019066E+03  0.19067656328E+03  0.80419002446E+02 0. -1.
          1    1    1    2  501    0 -0.86685528510E+01 -0.26902505097E+02  0.10301390848E+03  0.10682113054E+03  0.00000000000E+00 0. -1.
         -2    1    1    2    0  502  0.14091948133E+02 -0.19306574328E+02  0.31134376911E+03  0.31225993879E+03  0.00000000000E+00 0.  1.
<mgrwt>
<rscale>  2 0.72537562E+02</rscale>
<asrwt>0</asrwt>
<pdfrwt beam="1">  1       21 0.91586558E-01 0.72537562E+02</pdfrwt>
<pdfrwt beam="2">  1       21 0.22222900E-02 0.72537562E+02</pdfrwt>
<totfact> 0.10451753E+06</totfact>
</mgrwt>
</event>
<event>
 5    1  0.1855960E+000  0.9803982E+02  0.7546771E-02  0.1284473E+00
         21   -1    0    0  503  502  0.00000000000E+00  0.00000000000E+00  0.37420991528E+03  0.37420991528E+03  0.00000000000E+00 0.  1.
         21   -1    0    0  501  503 -0.00000000000E+00 -0.00000000000E+00 -0.33990546726E+02  0.33990546726E+02  0.00000000000E+00 0.  1.
         24    1    1    2    0    0  0.69014399660E+02 -0.42040845113E+02  0.10726675093E+03  0.15653687051E+03  0.80419002446E+02 0.  1.
          1    1    1    2  501    0 -0.36017633904E+02  0.30239874996E+02  0.65809913094E+02  0.80886739663E+02  0.00000000000E+00 0. -1.
         -2    1    1    2    0  502 -0.32996765756E+02  0.11800970117E+02  0.16714270453E+03  0.17077685184E+03  0.00000000000E+00 0.  1.
<mgrwt>
<rscale>  2 0.98039819E+02</rscale>
<asrwt>0</asrwt>
<pdfrwt beam="1">  1       21 0.57570753E-01 0.98039819E+02</pdfrwt>
<pdfrwt beam="2">  1       21 0.52293151E-02 0.98039819E+02</pdfrwt>
<totfact> 0.70976719E+05</totfact>
</mgrwt>
</event>
<event>
 5    1  0.1855960E+000  0.7293274E+02  0.7546771E-02  0.1350395E+00
         21   -1    0    0  503  502  0.00000000000E+00  0.00000000000E+00  0.39518351345E+02  0.39518351345E+02  0.00000000000E+00 0.  1.
         21   -1    0    0  501  503 -0.00000000000E+00 -0.00000000000E+00 -0.16240933904E+03  0.16240933904E+03  0.00000000000E+00 0. -1.
         24    1    1    2    0    0  0.11627244310E+02  0.73715699628E+01 -0.46627606862E+02  0.93972775472E+02  0.80419002446E+02 0.  0.
          1    1    1    2  501    0 -0.17186271573E+02 -0.33452913190E+02 -0.71609022803E+02  0.80884593578E+02  0.00000000000E+00 0. -1.
         -2    1    1    2    0  502  0.55590272638E+01  0.26081343227E+02 -0.46543580338E+01  0.27070321338E+02  0.00000000000E+00 0.  1.
<mgrwt>
<rscale>  2 0.72932737E+02</rscale>
<asrwt>0</asrwt>
<pdfrwt beam="1">  1       21 0.60797464E-02 0.72932737E+02</pdfrwt>
<pdfrwt beam="2">  1       21 0.24986052E-01 0.72932737E+02</pdfrwt>
<totfact> 0.28217185E+06</totfact>
</mgrwt>
</event>
<event>
 5    1  0.1855960E+000  0.1074649E+03  0.7546771E-02  0.1265338E+00
         21   -1    0    0  503  502  0.00000000000E+00  0.00000000000E+00  0.77359986873E+02  0.77359986873E+02  0.00000000000E+00 0.  1.
         21   -1    0    0  501  503 -0.00000000000E+00 -0.00000000000E+00 -0.18991999545E+03  0.18991999545E+03  0.00000000000E+00 0.  1.
         24    1    1    2    0    0 -0.61730294125E+02 -0.68158416501E+02 -0.88896203801E+02  0.15108259316E+03  0.80419002446E+02 0.  1.
          1    1    1    2  501    0  0.18197086110E+02  0.28877360622E+02 -0.42592960845E+02  0.54582013640E+02  0.00000000000E+00 0. -1.
         -2    1    1    2    0  502  0.43533208015E+02  0.39281055879E+02  0.18929156068E+02  0.61615375520E+02  0.00000000000E+00 0.  1.
<mgrwt>
<rscale>  2 0.10746486E+03</rscale>
<asrwt>0</asrwt>
<pdfrwt beam="1">  1       21 0.11901537E-01 0.10746486E+03</pdfrwt>
<pdfrwt beam="2">  1       21 0.29218461E-01 0.10746486E+03</pdfrwt>
<totfact> 0.67148255E+05</totfact>
</mgrwt>
</event>
<event>
 5    1  0.1855960E+000  0.8317307E+02  0.7546771E-02  0.1320280E+00
         21   -1    0    0  503  502  0.00000000000E+00  0.00000000000E+00  0.17674090884E+03  0.17674090884E+03  0.00000000000E+00 0.  1.
         21   -1    0    0  501  503 -0.00000000000E+00 -0.00000000000E+00 -0.39405906649E+02  0.39405906649E+02  0.00000000000E+00 0.  1.
         24    1    1    2    0    0  0.27622979566E+02  0.32600554386E+01  0.66996152468E+02  0.10830215770E+03  0.80419002446E+02 0.  0.
          1    1    1    2  501    0 -0.52373873573E+02  0.97765639346E+01  0.40348292649E+02  0.66832541139E+02  0.00000000000E+00 0. -1.
         -2    1    1    2    0  502  0.24750894007E+02 -0.13036619373E+02  0.29990557074E+02  0.41012116654E+02  0.00000000000E+00 0.  1.
<mgrwt>
<rscale>  2 0.83173073E+02</rscale>
<asrwt>0</asrwt>
<pdfrwt beam="1">  1       21 0.27190909E-01 0.83173073E+02</pdfrwt>
<pdfrwt beam="2">  1       21 0.60624473E-02 0.83173073E+02</pdfrwt>
<totfact> 0.24366776E+06</totfact>
</mgrwt>
</event>
<event>
 5    1  0.1855960E+000  0.9562924E+02  0.7546771E-02  0.1289765E+00
         21   -1    0    0  501  502  0.00000000000E+00  0.00000000000E+00  0.24050044063E+02  0.24050044063E+02  0.00000000000E+00 0. -1.
         21   -1    0    0  502  503 -0.00000000000E+00 -0.00000000000E+00 -0.65576014657E+03  0.65576014657E+03  0.00000000000E+00 0. -1.
         24    1    1    2    0    0  0.70824570019E+02  0.19628025701E+02 -0.13952895000E+03  0.17702237981E+03  0.80419002446E+02 0. -1.
          1    1    1    2  501    0 -0.47060209307E+02  0.59110843908E+01 -0.12089084281E+03  0.12986223506E+03  0.00000000000E+00 0. -1.
         -2    1    1    2    0  503 -0.23764360712E+02 -0.25539110092E+02 -0.37129030970E+03  0.37292557577E+03  0.00000000000E+00 0.  1.
<mgrwt>
<rscale>  2 0.95629236E+02</rscale>
<asrwt>0</asrwt>
<pdfrwt beam="1">  1       21 0.37000076E-02 0.95629236E+02</pdfrwt>
<pdfrwt beam="2">  1       21 0.10088615E+00 0.95629236E+02</pdfrwt>
<totfact> 0.36688173E+05</totfact>
</mgrwt>
</event>
<event>
 5    1  0.1855960E+000  0.8876512E+02  0.7546771E-02  0.1305870E+00
         21   -1    0    0  503  502  0.00000000000E+00  0.00000000000E+00  0.16008487176E+03  0.16008487176E+03  0.00000000000E+00 0. -1.
         21   -1    0    0  501  503 -0.00000000000E+00 -0.00000000000E+00 -0.10289256596E+03  0.10289256596E+03  0.00000000000E+00 0. -1.
         24    1    1    2    0    0  0.52239714554E+02  0.28927739612E+02  0.90744128881E+01  0.10057516005E+03  0.80419002446E+02 0. -1.
          1    1    1    2  501    0 -0.37166653486E+02  0.75235335071E+01 -0.46435103320E+02  0.59951501300E+02  0.00000000000E+00 0. -1.
         -2    1    1    2    0  502 -0.15073061067E+02 -0.36451273119E+02  0.94552996233E+02  0.10245077637E+03  0.00000000000E+00 0.  1.
<mgrwt>
<rscale>  2 0.88765124E+02</rscale>
<asrwt>0</asrwt>
<pdfrwt beam="1">  1       21 0.24628442E-01 0.88765124E+02</pdfrwt>
<pdfrwt beam="2">  1       21 0.15829625E-01 0.88765124E+02</pdfrwt>
<totfact> 0.55842966E+05</totfact>
</mgrwt>
</event>
<event>
 5    1  0.1855960E+000  0.8491054E+02  0.7546771E-02  0.1315667E+00
         21   -1    0    0  503  502  0.00000000000E+00  0.00000000000E+00  0.14450077893E+03  0.14450077893E+03  0.00000000000E+00 0.  1.
         21   -1    0    0  501  503 -0.00000000000E+00 -0.00000000000E+00 -0.13842211048E+03  0.13842211048E+03  0.00000000000E+00 0. -1.
         24    1    1    2    0    0 -0.12934692304E+02  0.59038570066E+02 -0.93227071593E+02  0.13715451816E+03  0.80419002446E+02 0. -1.
          1    1    1    2  501    0  0.23858543126E+02 -0.30907462781E+02 -0.29465556686E+01  0.39155887500E+02  0.00000000000E+00 0. -1.
         -2    1    1    2    0  502 -0.10923850822E+02 -0.28131107285E+02  0.10225229571E+03  0.10661248375E+03  0.00000000000E+00 0.  1.
<mgrwt>
<rscale>  2 0.84910541E+02</rscale>
<asrwt>0</asrwt>
<pdfrwt beam="1">  1       21 0.22230889E-01 0.84910541E+02</pdfrwt>
<pdfrwt beam="2">  1       21 0.21295709E-01 0.84910541E+02</pdfrwt>
<totfact> 0.39427301E+05</totfact>
</mgrwt>
</event>
<event>
 5    1  0.1855960E+000  0.9603974E+02  0.7546771E-02  0.1288851E+00
         21   -1    0    0  503  502  0.00000000000E+00  0.00000000000E+00  0.11010845806E+03  0.11010845806E+03  0.00000000000E+00 0.  1.
         21   -1    0    0  501  503 -0.00000000000E+00 -0.00000000000E+00 -0.42830264745E+03  0.42830264745E+03  0.00000000000E+00 0. -1.
         24    1    1    2    0    0 -0.71117350613E+01  0.78748019958E+02 -0.25599973419E+02  0.11564774972E+03  0.80419002446E+02 0.  1.
          1    1    1    2  501    0  0.75871170049E+01 -0.52202288108E+02 -0.35292683455E+03  0.35684729756E+03  0.00000000000E+00 0. -1.
         -2    1    1    2    0  502 -0.47538194356E+00 -0.26545731850E+02  0.60332618582E+02  0.65916058228E+02  0.00000000000E+00 0.  1.
<mgrwt>
<rscale>  2 0.96039745E+02</rscale>
<asrwt>0</asrwt>
<pdfrwt beam="1">  1       21 0.16939763E-01 0.96039745E+02</pdfrwt>
<pdfrwt beam="2">  1       21 0.65892714E-01 0.96039745E+02</pdfrwt>
<totfact> 0.69660112E+04</totfact>
</mgrwt>
</event>
<event>
 5    1  0.1855960E+000  0.1223856E+03  0.7546771E-02  0.1239213E+00
         21   -1    0    0  503  502  0.00000000000E+00  0.00000000000E+00  0.43195396682E+03  0.43195396682E+03  0.00000000000E+00 0.  1.
         21   -1    0    0  501  503 -0.00000000000E+00 -0.00000000000E+00 -0.12168979649E+03  0.12168979649E+03  0.00000000000E+00 0. -1.
         24    1    1    2    0    0 -0.79960669697E+02  0.72931828058E+02  0.17380692366E+03  0.21997459605E+03  0.80419002446E+02 0. -1.
          1    1    1    2  501    0  0.18211873486E+02 -0.28665869195E+02 -0.89262939821E+02  0.95505375859E+02  0.00000000000E+00 0. -1.
         -2    1    1    2    0  502  0.61748796211E+02 -0.44265958864E+02  0.22572018649E+03  0.23816379141E+03  0.00000000000E+00 0.  1.
<mgrwt>
<rscale>  2 0.12238559E+03</rscale>
<asrwt>0</asrwt>
<pdfrwt beam="1">  1       21 0.66454456E-01 0.12238559E+03</pdfrwt>
<pdfrwt beam="2">  1       21 0.18721507E-01 0.12238559E+03</pdfrwt>
<totfact> 0.56131828E+04</totfact>
</mgrwt>
</event>
<event>
 5    1  0.1855960E+000  0.7589295E+02  0.7546771E-02  0.1341128E+00
         21   -1    0    0  503  502  0.00000000000E+00  0.00000000000E+00  0.11005849140E+02  0.11005849140E+02  0.00000000000E+00 0. -1.
         21   -1    0    0  501  503 -0.00000000000E+00 -0.00000000000E+00 -0.72445568513E+03  0.72445568513E+03  0.00000000000E+00 0. -1.
         24    1    1    2    0    0 -0.18541078587E+02  0.43583941895E+02 -0.24175380305E+03  0.25914368376E+03  0.80419002446E+02 0. -1.
          1    1    1    2  501    0 -0.60615715069E+01 -0.29480480129E+02 -0.35301906140E+03  0.35429973055E+03  0.00000000000E+00 0. -1.
         -2    1    1    2    0  502  0.24602650094E+02 -0.14103461766E+02 -0.11867697154E+03  0.12201811996E+03  0.00000000000E+00 0.  1.
<mgrwt>
<rscale>  2 0.75892949E+02</rscale>
<asrwt>0</asrwt>
<pdfrwt beam="1">  1       21 0.16932072E-02 0.75892949E+02</pdfrwt>
<pdfrwt beam="2">  1       21 0.11145474E+00 0.75892949E+02</pdfrwt>
<totfact> 0.10255364E+06</totfact>
</mgrwt>
</event>
<event>
 5    1  0.1855960E+000  0.1089575E+03  0.7546771E-02  0.1262513E+00
         21   -1    0    0  501  502  0.00000000000E+00  0.00000000000E+00  0.37270313986E+03  0.37270313986E+03  0.00000000000E+00 0.  1.
         21   -1    0    0  502  503 -0.00000000000E+00 -0.00000000000E+00 -0.47537475147E+02  0.47537475147E+02  0.00000000000E+00 0. -1.
         24    1    1    2    0    0 -0.89930609865E+02  0.27226043675E+02  0.11486817868E+03  0.16879184362E+03  0.80419002446E+02 0. -1.
          1    1    1    2  501    0  0.25341451207E+02 -0.11101906177E+02  0.17288532376E+03  0.17508505545E+03  0.00000000000E+00 0. -1.
         -2    1    1    2    0  503  0.64589158658E+02 -0.16124137497E+02  0.37412162275E+02  0.76363715941E+02  0.00000000000E+00 0.  1.
<mgrwt>
<rscale>  2 0.10895747E+03</rscale>
<asrwt>0</asrwt>
<pdfrwt beam="1">  1       21 0.57338943E-01 0.10895747E+03</pdfrwt>
<pdfrwt beam="2">  1       21 0.73134579E-02 0.10895747E+03</pdfrwt>
<totfact> 0.40597558E+05</totfact>
</mgrwt>
</event>
<event>
 5    1  0.1855960E+000  0.9269025E+02  0.7546771E-02  0.1296465E+00
         21   -1    0    0  503  502  0.00000000000E+00  0.00000000000E+00  0.75115787453E+03  0.75115787453E+03  0.00000000000E+00 0. -1.
         21   -1    0    0  501  503 -0.00000000000E+00 -0.00000000000E+00 -0.13472319718E+02  0.13472319718E+02  0.00000000000E+00 0. -1.
         24    1    1    2    0    0  0.66187797575E+02 -0.18345073290E+02  0.40632299399E+03  0.41986064077E+03  0.80419002446E+02 0. -1.
          1    1    1    2  501    0 -0.33799849141E+02  0.30008877726E+02  0.87453799993E+02  0.98443535479E+02  0.00000000000E+00 0. -1.
         -2    1    1    2    0  502 -0.32387948434E+02 -0.11663804437E+02  0.24390876082E+03  0.24632601800E+03  0.00000000000E+00 0.  1.
<mgrwt>
<rscale>  2 0.92690250E+02</rscale>
<asrwt>0</asrwt>
<pdfrwt beam="1">  1       21 0.11556272E+00 0.92690250E+02</pdfrwt>
<pdfrwt beam="2">  1       21 0.20726652E-02 0.92690250E+02</pdfrwt>
<totfact> 0.68248026E+05</totfact>
</mgrwt>
</event>
<event>
 5    1  0.1855960E+000  0.7067035E+02  0.7546771E-02  0.1357828E+00
         21   -1    0    0  501  502  0.00000000000E+00  0.00000000000E+00  0.75539860072E+02  0.75539860072E+02  0.00000000000E+00 0. -1.
         21   -1    0    0  502  503 -0.00000000000E+00 -0.00000000000E+00 -0.24955807980E+03  0.24955807980E+03  0.00000000000E+00 0.  1.
         24    1    1    2    0    0  0.28183776160E+02  0.30475828435E+02 -0.20585998478E+03  0.22487474435E+03  0.80419002446E+02 0.  0.
          1    1    1    2  501    0 -0.22797908404E+02 -0.31804914133E+01  0.57773506515E+02  0.62190338544E+02  0.00000000000E+00 0. -1.
         -2    1    1    2    0  503 -0.53858677559E+01 -0.27295337022E+02 -0.25931741458E+02  0.38032856975E+02  0.00000000000E+00 0.  1.
<mgrwt>
<rscale>  2 0.70670346E+02</rscale>
<asrwt>0</asrwt>
<pdfrwt beam="1">  1       21 0.11621517E-01 0.70670346E+02</pdfrwt>
<pdfrwt beam="2">  1       21 0.38393550E-01 0.70670346E+02</pdfrwt>
<totfact> 0.41268022E+05</totfact>
</mgrwt>
</event>
<event>
 5    1  0.1855960E+000  0.7757708E+02  0.7546771E-02  0.1336071E+00
         21   -1    0    0  503  502  0.00000000000E+00  0.00000000000E+00  0.22286423474E+03  0.22286423474E+03  0.00000000000E+00 0. -1.
         21   -1    0    0  501  503 -0.00000000000E+00 -0.00000000000E+00 -0.31796271264E+02  0.31796271264E+02  0.00000000000E+00 0.  1.
         24    1    1    2    0    0 -0.68988265944E+01 -0.36864015794E+02  0.79347486264E+02  0.11903692284E+03  0.80419002446E+02 0.  0.
          1    1    1    2  501    0 -0.20625673095E+02  0.26680097518E+00  0.77852288817E+01  0.22047661149E+02  0.00000000000E+00 0. -1.
         -2    1    1    2    0  502  0.27524499689E+02  0.36597214819E+02  0.10393524833E+03  0.11357592202E+03  0.00000000000E+00 0.  1.
<mgrwt>
<rscale>  2 0.77577076E+02</rscale>
<asrwt>0</asrwt>
<pdfrwt beam="1">  1       21 0.34286804E-01 0.77577076E+02</pdfrwt>
<pdfrwt beam="2">  1       21 0.48917342E-02 0.77577076E+02</pdfrwt>
<totfact> 0.22317083E+06</totfact>
</mgrwt>
</event>
<event>
 5    1  0.1855960E+000  0.6286508E+02  0.7546771E-02  0.1386187E+00
         21   -1    0    0  501  502  0.00000000000E+00  0.00000000000E+00  0.10176454694E+04  0.10176454694E+04  0.00000000000E+00 0.  1.
         21   -1    0    0  502  503 -0.00000000000E+00 -0.00000000000E+00 -0.40640328027E+01  0.40640328027E+01  0.00000000000E+00 0. -1.
         24    1    1    2    0    0 -0.23250948673E+02  0.14883558800E+02  0.69164490448E+03  0.69685150268E+03  0.80419002446E+02 0.  0.
          1    1    1    2  501    0  0.35370290297E+01 -0.20022007174E+02  0.21783090793E+03  0.21877773149E+03  0.00000000000E+00 0. -1.
         -2    1    1    2    0  503  0.19713919643E+02  0.51384483740E+01  0.10410562422E+03  0.10608026807E+03  0.00000000000E+00 0.  1.
<mgrwt>
<rscale>  2 0.62865078E+02</rscale>
<asrwt>0</asrwt>
<pdfrwt beam="1">  1       21 0.15656064E+00 0.62865078E+02</pdfrwt>
<pdfrwt beam="2">  1       21 0.62523663E-03 0.62865078E+02</pdfrwt>
<totfact> 0.20997353E+06</totfact>
</mgrwt>
</event>
<event>
 5    1  0.1855960E+000  0.7869960E+02  0.7546771E-02  0.1332783E+00
         21   -1    0    0  503  502  0.00000000000E+00  0.00000000000E+00  0.14338112660E+03  0.14338112660E+03  0.00000000000E+00 0.  1.
         21   -1    0    0  501  503 -0.00000000000E+00 -0.00000000000E+00 -0.35695049867E+03  0.35695049867E+03  0.00000000000E+00 0. -1.
         24    1    1    2    0    0 -0.24639691254E+01 -0.37917809497E+01 -0.47415670939E+02  0.93466093059E+02  0.80419002446E+02 0.  0.
          1    1    1    2  501    0  0.20848799043E+02  0.34937898769E+02 -0.28230078272E+03  0.28521756803E+03  0.00000000000E+00 0. -1.
         -2    1    1    2    0  502 -0.18384829917E+02 -0.31146117819E+02  0.11614708159E+03  0.12164796417E+03  0.00000000000E+00 0.  1.
<mgrwt>
<rscale>  2 0.78699601E+02</rscale>
<asrwt>0</asrwt>
<pdfrwt beam="1">  1       21 0.22058635E-01 0.78699601E+02</pdfrwt>
<pdfrwt beam="2">  1       21 0.54915461E-01 0.78699601E+02</pdfrwt>
<totfact> 0.63868525E+04</totfact>
</mgrwt>
</event>
<event>
 5    1  0.1855960E+000  0.9148264E+02  0.7546771E-02  0.1299300E+00
         21   -1    0    0  501  502  0.00000000000E+00  0.00000000000E+00  0.49707355403E+02  0.49707355403E+02  0.00000000000E+00 0. -1.
         21   -1    0    0  502  503 -0.00000000000E+00 -0.00000000000E+00 -0.36406265379E+03  0.36406265379E+03  0.00000000000E+00 0.  1.
         24    1    1    2    0    0 -0.43213296378E+02 -0.26079235618E+01 -0.73108791495E+02  0.11698846780E+03  0.80419002446E+02 0.  1.
          1    1    1    2  501    0 -0.12029343336E+02  0.28269173054E+02  0.14435129343E+02  0.33944428194E+02  0.00000000000E+00 0. -1.
         -2    1    1    2    0  503  0.55242639714E+02 -0.25661249492E+02 -0.25568163624E+03  0.26283711320E+03  0.00000000000E+00 0.  1.
<mgrwt>
<rscale>  2 0.91482637E+02</rscale>
<asrwt>0</asrwt>
<pdfrwt beam="1">  1       21 0.76472858E-02 0.91482637E+02</pdfrwt>
<pdfrwt beam="2">  1       21 0.56009636E-01 0.91482637E+02</pdfrwt>
<totfact> 0.39591981E+05</totfact>
</mgrwt>
</event>
<event>
 5    1  0.1855960E+000  0.7592412E+02  0.7546771E-02  0.1341033E+00
         21   -1    0    0  503  502  0.00000000000E+00  0.00000000000E+00  0.29981533280E+03  0.29981533280E+03  0.00000000000E+00 0. -1.
         21   -1    0    0  501  503 -0.00000000000E+00 -0.00000000000E+00 -0.21742127489E+02  0.21742127489E+02  0.00000000000E+00 0.  1.
         24    1    1    2    0    0  0.34384851692E+02  0.30454363298E+02  0.15152713324E+03  0.17758793409E+03  0.80419002446E+02 0. -1.
          1    1    1    2  501    0  0.13295748645E+01 -0.22637202470E+02  0.16596176344E+02  0.28100600958E+02  0.00000000000E+00 0. -1.
         -2    1    1    2    0  502 -0.35714426556E+02 -0.78171608285E+01  0.10994989573E+03  0.11586892525E+03  0.00000000000E+00 0.  1.
<mgrwt>
<rscale>  2 0.75924124E+02</rscale>
<asrwt>0</asrwt>
<pdfrwt beam="1">  1       21 0.46125433E-01 0.75924124E+02</pdfrwt>
<pdfrwt beam="2">  1       21 0.33449429E-02 0.75924124E+02</pdfrwt>
<totfact> 0.23198960E+06</totfact>
</mgrwt>
</event>
<event>
 5    1  0.1855960E+000  0.1853392E+03  0.7546771E-02  0.1162734E+00
         21   -1    0    0  503  502  0.00000000000E+00  0.00000000000E+00  0.93529496043E+03  0.93529496043E+03  0.00000000000E+00 0.  1.
         21   -1    0    0  501  503 -0.00000000000E+00 -0.00000000000E+00 -0.59670011179E+02  0.59670011179E+02  0.00000000000E+00 0. -1.
         24    1    1    2    0    0  0.74132054025E+02  0.15694718842E+03  0.26248182068E+03  0.32479517165E+03  0.80419002446E+02 0. -1.
          1    1    1    2  501    0 -0.47493883673E+02 -0.13992890990E+03  0.16733140616E+03  0.22323881450E+03  0.00000000000E+00 0. -1.
         -2    1    1    2    0  502 -0.26638170352E+02 -0.17018278524E+02  0.44581172242E+03  0.44693098546E+03  0.00000000000E+00 0.  1.
<mgrwt>
<rscale>  2 0.18533918E+03</rscale>
<asrwt>0</asrwt>
<pdfrwt beam="1">  1       21 0.14389152E+00 0.18533918E+03</pdfrwt>
<pdfrwt beam="2">  1       21 0.91800024E-02 0.18533918E+03</pdfrwt>
<totfact> 0.31581399E+04</totfact>
</mgrwt>
</event>
<event>
 5    1  0.1855960E+000  0.7206142E+02  0.7546771E-02  0.1353220E+00
         21   -1    0    0  503  502  0.00000000000E+00  0.00000000000E+00  0.35201734175E+02  0.35201734175E+02  0.00000000000E+00 0. -1.
         21   -1    0    0  501  503 -0.00000000000E+00 -0.00000000000E+00 -0.19067584054E+03  0.19067584054E+03  0.00000000000E+00 0. -1.
         24    1    1    2    0    0 -0.30235230217E+01  0.15776936566E+01 -0.11014632393E+03  0.13642235681E+03  0.80419002446E+02 0. -1.
          1    1    1    2  501    0  0.32363582440E+02  0.69005951790E+01 -0.48539764478E+02  0.58746305567E+02  0.00000000000E+00 0. -1.
         -2    1    1    2    0  502 -0.29340059418E+02 -0.84782888356E+01  0.32119820414E+01  0.30708912336E+02  0.00000000000E+00 0.  1.
<mgrwt>
<rscale>  2 0.72061419E+02</rscale>
<asrwt>0</asrwt>
<pdfrwt beam="1">  1       21 0.54156514E-02 0.72061419E+02</pdfrwt>
<pdfrwt beam="2">  1       21 0.29334745E-01 0.72061419E+02</pdfrwt>
<totfact> 0.25306108E+06</totfact>
</mgrwt>
</event>
<event>
 5    1  0.1855960E+000  0.1156784E+03  0.7546771E-02  0.1250402E+00
         21   -1    0    0  503  502  0.00000000000E+00  0.00000000000E+00  0.10182947602E+03  0.10182947602E+03  0.00000000000E+00 0. -1.
         21   -1    0    0  501  503 -0.00000000000E+00 -0.00000000000E+00 -0.23638524306E+03  0.23638524306E+03  0.00000000000E+00 0.  1.
         24    1    1    2    0    0 -0.19122296125E+02  0.11564982173E+02 -0.68952129205E+02  0.10826367395E+03  0.80419002446E+02 0.  0.
          1    1    1    2  501    0 -0.63293572119E+02 -0.16234186416E+02 -0.11607001108E+03  0.13319862069E+03  0.00000000000E+00 0. -1.
         -2    1    1    2    0  502  0.82415868244E+02  0.46692042437E+01  0.50466373242E+02  0.96752424439E+02  0.00000000000E+00 0.  1.
<mgrwt>
<rscale>  2 0.11567836E+03</rscale>
<asrwt>0</asrwt>
<pdfrwt beam="1">  1       21 0.15666073E-01 0.11567836E+03</pdfrwt>
<pdfrwt beam="2">  1       21 0.36366960E-01 0.11567836E+03</pdfrwt>
<totfact> 0.26884372E+05</totfact>
</mgrwt>
</event>
<event>
 5    1  0.1855960E+000  0.1044471E+03  0.7546771E-02  0.1271213E+00
         21   -1    0    0  501  502  0.00000000000E+00  0.00000000000E+00  0.37495351488E+02  0.37495351488E+02  0.00000000000E+00 0.  1.
         21   -1    0    0  502  503 -0.00000000000E+00 -0.00000000000E+00 -0.30927965581E+03  0.30927965581E+03  0.00000000000E+00 0.  1.
         24    1    1    2    0    0  0.39408571360E+02 -0.19097030090E+02 -0.94989023135E+02  0.13193885904E+03  0.80419002446E+02 0.  1.
          1    1    1    2  501    0  0.36869405700E+02  0.18024345694E+02 -0.35501676639E+02  0.54264160904E+02  0.00000000000E+00 0. -1.
         -2    1    1    2    0  503 -0.76277977060E+02  0.10726843957E+01 -0.14129360455E+03  0.16057198736E+03  0.00000000000E+00 0.  1.
<mgrwt>
<rscale>  2 0.10444713E+03</rscale>
<asrwt>0</asrwt>
<pdfrwt beam="1">  1       21 0.57685156E-02 0.10444713E+03</pdfrwt>
<pdfrwt beam="2">  1       21 0.47581485E-01 0.10444713E+03</pdfrwt>
<totfact> 0.89241547E+05</totfact>
</mgrwt>
</event>
<event>
 5    1  0.1855960E+000  0.1061377E+03  0.7546771E-02  0.1267894E+00
         21   -1    0    0  503  502  0.00000000000E+00  0.00000000000E+00  0.17267574575E+03  0.17267574575E+03  0.00000000000E+00 0.  1.
         21   -1    0    0  501  503 -0.00000000000E+00 -0.00000000000E+00 -0.14905452496E+03  0.14905452496E+03  0.00000000000E+00 0. -1.
         24    1    1    2    0    0 -0.61656678321E+02  0.41066615545E+02 -0.55387132428E+02  0.12256819851E+03  0.80419002446E+02 0.  1.
          1    1    1    2  501    0  0.19049156537E+02  0.20550807413E+02 -0.45744283643E+02  0.53644622621E+02  0.00000000000E+00 0. -1.
         -2    1    1    2    0  502  0.42607521784E+02 -0.61617422958E+02  0.12475263686E+03  0.14551744957E+03  0.00000000000E+00 0.  1.
<mgrwt>
<rscale>  2 0.10613775E+03</rscale>
<asrwt>0</asrwt>
<pdfrwt beam="1">  1       21 0.26565499E-01 0.10613775E+03</pdfrwt>
<pdfrwt beam="2">  1       21 0.22931465E-01 0.10613775E+03</pdfrwt>
<totfact> 0.24564196E+05</totfact>
</mgrwt>
</event>
<event>
 5    1  0.1855960E+000  0.1167645E+03  0.7546771E-02  0.1248532E+00
         21   -1    0    0  503  502  0.00000000000E+00  0.00000000000E+00  0.10702685701E+03  0.10702685701E+03  0.00000000000E+00 0. -1.
         21   -1    0    0  501  503 -0.00000000000E+00 -0.00000000000E+00 -0.13528701074E+03  0.13528701074E+03  0.00000000000E+00 0.  1.
         24    1    1    2    0    0  0.44787056255E+02 -0.79490306017E+02  0.12627746733E+02  0.12227536588E+03  0.80419002446E+02 0. -1.
          1    1    1    2  501    0  0.16708673436E+02  0.11807328315E+02 -0.13743545153E+02  0.24647064800E+02  0.00000000000E+00 0. -1.
         -2    1    1    2    0  502 -0.61495729690E+02  0.67682977702E+02 -0.27144355308E+02  0.95391437068E+02  0.00000000000E+00 0.  1.
<mgrwt>
<rscale>  2 0.11676448E+03</rscale>
<asrwt>0</asrwt>
<pdfrwt beam="1">  1       21 0.16465670E-01 0.11676448E+03</pdfrwt>
<pdfrwt beam="2">  1       21 0.20813386E-01 0.11676448E+03</pdfrwt>
<totfact> 0.71174410E+05</totfact>
</mgrwt>
</event>
<event>
 5    1  0.1855960E+000  0.7799759E+02  0.7546771E-02  0.1334832E+00
         21   -1    0    0  501  502  0.00000000000E+00  0.00000000000E+00  0.81576608660E+01  0.81576608660E+01  0.00000000000E+00 0. -1.
         21   -1    0    0  502  503 -0.00000000000E+00 -0.00000000000E+00 -0.77904585208E+03  0.77904585208E+03  0.00000000000E+00 0.  1.
         24    1    1    2    0    0  0.12153735246E+02  0.19470586704E+02 -0.47217307322E+03  0.47952209965E+03  0.80419002446E+02 0.  1.
          1    1    1    2  501    0 -0.28501534562E+02 -0.38099159017E+02 -0.16657990384E+03  0.17324187644E+03  0.00000000000E+00 0. -1.
         -2    1    1    2    0  503  0.16347799316E+02  0.18628572314E+02 -0.13213521416E+03  0.13443953685E+03  0.00000000000E+00 0.  1.
<mgrwt>
<rscale>  2 0.77997588E+02</rscale>
<asrwt>0</asrwt>
<pdfrwt beam="1">  1       21 0.12550251E-02 0.77997588E+02</pdfrwt>
<pdfrwt beam="2">  1       21 0.11985317E+00 0.77997588E+02</pdfrwt>
<totfact> 0.13847220E+06</totfact>
</mgrwt>
</event>
<event>
 5    1  0.1855960E+000  0.6739425E+02  0.7546771E-02  0.1369185E+00
         21   -1    0    0  501  502  0.00000000000E+00  0.00000000000E+00  0.93995305190E+02  0.93995305190E+02  0.00000000000E+00 0.  1.
         21   -1    0    0  502  503 -0.00000000000E+00 -0.00000000000E+00 -0.12780804930E+03  0.12780804930E+03  0.00000000000E+00 0.  1.
         24    1    1    2    0    0 -0.27288364203E+02 -0.21449521723E+02 -0.29738410886E+02  0.92500409942E+02  0.80419002446E+02 0.  1.
          1    1    1    2  501    0  0.58782440824E+01  0.24836319067E+02  0.58099809323E+02  0.63458524578E+02  0.00000000000E+00 0. -1.
         -2    1    1    2    0  503  0.21410120120E+02 -0.33867973438E+01 -0.62174142542E+02  0.65844419966E+02  0.00000000000E+00 0.  1.
<mgrwt>
<rscale>  2 0.67394246E+02</rscale>
<asrwt>0</asrwt>
<pdfrwt beam="1">  1       21 0.14460816E-01 0.67394246E+02</pdfrwt>
<pdfrwt beam="2">  1       21 0.19662777E-01 0.67394246E+02</pdfrwt>
<totfact> 0.98788928E+05</totfact>
</mgrwt>
</event>
<event>
 5    1  0.1855960E+000  0.7411930E+02  0.7546771E-02  0.1346620E+00
         21   -1    0    0  503  502  0.00000000000E+00  0.00000000000E+00  0.23355737815E+02  0.23355737815E+02  0.00000000000E+00 0.  1.
         21   -1    0    0  501  503 -0.00000000000E+00 -0.00000000000E+00 -0.75168350520E+03  0.75168350520E+03  0.00000000000E+00 0.  1.
         24    1    1    2    0    0 -0.24190342676E+01 -0.32357569909E+02 -0.60860967230E+03  0.61475671060E+03  0.80419002446E+02 0.  1.
          1    1    1    2  501    0 -0.23745357837E+02  0.24689899663E+02 -0.12742526642E+03  0.13194935273E+03  0.00000000000E+00 0. -1.
         -2    1    1    2    0  502  0.26164392104E+02  0.76676702457E+01  0.77071713319E+01  0.28333179686E+02  0.00000000000E+00 0.  1.
<mgrwt>
<rscale>  2 0.74119296E+02</rscale>
<asrwt>0</asrwt>
<pdfrwt beam="1">  1       21 0.35931910E-02 0.74119296E+02</pdfrwt>
<pdfrwt beam="2">  1       21 0.11564360E+00 0.74119296E+02</pdfrwt>
<totfact> 0.28100136E+05</totfact>
</mgrwt>
</event>
<event>
 5    1  0.1855960E+000  0.7385534E+02  0.7546771E-02  0.1347453E+00
         21   -1    0    0  501  502  0.00000000000E+00  0.00000000000E+00  0.12759675334E+04  0.12759675334E+04  0.00000000000E+00 0. -1.
         21   -1    0    0  502  503 -0.00000000000E+00 -0.00000000000E+00 -0.14855263478E+02  0.14855263478E+02  0.00000000000E+00 0. -1.
         24    1    1    2    0    0 -0.10394681119E+02 -0.48323164069E+01  0.11771690176E+03  0.14302407347E+03  0.80419002446E+02 0. -1.
          1    1    1    2  501    0  0.34918131717E+02  0.17299169668E+02  0.10422676472E+04  0.10429958704E+04  0.00000000000E+00 0. -1.
         -2    1    1    2    0  503 -0.24523450598E+02 -0.12466853261E+02  0.10112772097E+03  0.10480285305E+03  0.00000000000E+00 0.  1.
<mgrwt>
<rscale>  2 0.73855341E+02</rscale>
<asrwt>0</asrwt>
<pdfrwt beam="1">  1       21 0.19630261E+00 0.73855341E+02</pdfrwt>
<pdfrwt beam="2">  1       21 0.22854262E-02 0.73855341E+02</pdfrwt>
<totfact> 0.15169623E+05</totfact>
</mgrwt>
</event>
<event>
 5    1  0.1855960E+000  0.6523408E+02  0.7546771E-02  0.1377093E+00
         21   -1    0    0  501  502  0.00000000000E+00  0.00000000000E+00  0.26635930387E+02  0.26635930387E+02  0.00000000000E+00 0. -1.
         21   -1    0    0  502  503 -0.00000000000E+00 -0.00000000000E+00 -0.27665546729E+03  0.27665546729E+03  0.00000000000E+00 0.  1.
         24    1    1    2    0    0  0.25450602236E+02 -0.40101631686E+01 -0.10003725561E+03  0.13091402914E+03  0.80419002446E+02 0. -1.
          1    1    1    2  501    0 -0.20692228147E+02 -0.15555283803E+02 -0.54566822722E+01  0.26455822447E+02  0.00000000000E+00 0. -1.
         -2    1    1    2    0  503 -0.47583740890E+01  0.19565446972E+02 -0.14452559902E+03  0.14592154608E+03  0.00000000000E+00 0.  1.
<mgrwt>
<rscale>  2 0.65234079E+02</rscale>
<asrwt>0</asrwt>
<pdfrwt beam="1">  1       21 0.40978358E-02 0.65234079E+02</pdfrwt>
<pdfrwt beam="2">  1       21 0.42562376E-01 0.65234079E+02</pdfrwt>
<totfact> 0.19417174E+06</totfact>
</mgrwt>
</event>
<event>
 5    1  0.1855960E+000  0.8080519E+02  0.7546771E-02  0.1326782E+00
         21   -1    0    0  503  502  0.00000000000E+00  0.00000000000E+00  0.23514171853E+03  0.23514171853E+03  0.00000000000E+00 0. -1.
         21   -1    0    0  501  503 -0.00000000000E+00 -0.00000000000E+00 -0.42053214497E+02  0.42053214497E+02  0.00000000000E+00 0.  1.
         24    1    1    2    0    0 -0.15106107297E+02 -0.17662199638E+02  0.15178767592E+03  0.17334030775E+03  0.80419002446E+02 0. -1.
          1    1    1    2  501    0 -0.28133099864E+02 -0.57720996600E+01 -0.12182424426E+02  0.31196152124E+02  0.00000000000E+00 0. -1.
         -2    1    1    2    0  502  0.43239207161E+02  0.23434299298E+02  0.53483252536E+02  0.72658473156E+02  0.00000000000E+00 0.  1.
<mgrwt>
<rscale>  2 0.80805189E+02</rscale>
<asrwt>0</asrwt>
<pdfrwt beam="1">  1       21 0.36175648E-01 0.80805189E+02</pdfrwt>
<pdfrwt beam="2">  1       21 0.64697254E-02 0.80805189E+02</pdfrwt>
<totfact> 0.12633690E+06</totfact>
</mgrwt>
</event>
<event>
 5    1  0.1855960E+000  0.7148262E+02  0.7546771E-02  0.1355123E+00
         21   -1    0    0  501  502  0.00000000000E+00  0.00000000000E+00  0.11404149719E+03  0.11404149719E+03  0.00000000000E+00 0.  1.
         21   -1    0    0  502  503 -0.00000000000E+00 -0.00000000000E+00 -0.45073856278E+02  0.45073856278E+02  0.00000000000E+00 0. -1.
         24    1    1    2    0    0 -0.26136180506E+02  0.70373220420E+01  0.39580498534E+02  0.93629352511E+02  0.80419002446E+02 0.  1.
          1    1    1    2  501    0  0.32258689680E+02  0.14758151374E+02  0.14125685041E+02  0.38183256406E+02  0.00000000000E+00 0. -1.
         -2    1    1    2    0  503 -0.61225091741E+01 -0.21795473416E+02  0.15261457340E+02  0.27302744554E+02  0.00000000000E+00 0.  1.
<mgrwt>
<rscale>  2 0.71482624E+02</rscale>
<asrwt>0</asrwt>
<pdfrwt beam="1">  1       21 0.17544846E-01 0.71482624E+02</pdfrwt>
<pdfrwt beam="2">  1       21 0.69344395E-02 0.71482624E+02</pdfrwt>
<totfact> 0.43115487E+06</totfact>
</mgrwt>
</event>
<event>
 5    1  0.1855960E+000  0.1096030E+03  0.7546771E-02  0.1261307E+00
         21   -1    0    0  501  502  0.00000000000E+00  0.00000000000E+00  0.38197399173E+03  0.38197399173E+03  0.00000000000E+00 0. -1.
         21   -1    0    0  502  503 -0.00000000000E+00 -0.00000000000E+00 -0.32997263543E+02  0.32997263543E+02  0.00000000000E+00 0.  1.
         24    1    1    2    0    0 -0.14695557909E+02  0.70892771421E+02  0.12745079768E+03  0.16719050884E+03  0.80419002446E+02 0. -1.
          1    1    1    2  501    0  0.48465149311E+02 -0.26551538851E+02  0.11141409196E+03  0.12436621246E+03  0.00000000000E+00 0. -1.
         -2    1    1    2    0  503 -0.33769591401E+02 -0.44341232570E+02  0.11011183855E+03  0.12341453398E+03  0.00000000000E+00 0.  1.
<mgrwt>
<rscale>  2 0.10960295E+03</rscale>
<asrwt>0</asrwt>
<pdfrwt beam="1">  1       21 0.58765226E-01 0.10960295E+03</pdfrwt>
<pdfrwt beam="2">  1       21 0.50765024E-02 0.10960295E+03</pdfrwt>
<totfact> 0.71460533E+05</totfact>
</mgrwt>
</event>
<event>
 5    1  0.1855960E+000  0.7221865E+02  0.7546771E-02  0.1352707E+00
         21   -1    0    0  503  502  0.00000000000E+00  0.00000000000E+00  0.44891945659E+02  0.44891945659E+02  0.00000000000E+00 0.  1.
         21   -1    0    0  501  503 -0.00000000000E+00 -0.00000000000E+00 -0.16050213553E+03  0.16050213553E+03  0.00000000000E+00 0. -1.
         24    1    1    2    0    0 -0.11992440226E+02  0.10237485988E+02 -0.11525195307E+03  0.14141730227E+03  0.80419002446E+02 0. -1.
          1    1    1    2  501    0  0.36783302893E+02 -0.46684159444E+01 -0.69565689765E+01  0.37725314194E+02  0.00000000000E+00 0. -1.
         -2    1    1    2    0  502 -0.24790862667E+02 -0.55690700434E+01  0.65983321680E+01  0.26251464727E+02  0.00000000000E+00 0.  1.
<mgrwt>
<rscale>  2 0.72218645E+02</rscale>
<asrwt>0</asrwt>
<pdfrwt beam="1">  1       21 0.69064532E-02 0.72218645E+02</pdfrwt>
<pdfrwt beam="2">  1       21 0.24692636E-01 0.72218645E+02</pdfrwt>
<totfact> 0.23277319E+06</totfact>
</mgrwt>
</event>
<event>
 5    1  0.1855960E+000  0.7766111E+02  0.7546771E-02  0.1335823E+00
         21   -1    0    0  503  502  0.00000000000E+00  0.00000000000E+00  0.13098139685E+03  0.13098139685E+03  0.00000000000E+00 0. -1.
         21   -1    0    0  501  503 -0.00000000000E+00 -0.00000000000E+00 -0.10244441119E+03  0.10244441119E+03  0.00000000000E+00 0.  1.
         24    1    1    2    0    0  0.25300169564E+02  0.38602574776E+02 -0.21754119178E+02  0.95240301422E+02  0.80419002446E+02 0.  1.
          1    1    1    2  501    0 -0.29852711824E+02 -0.69889371354E+01 -0.35343251355E+02  0.46788621072E+02  0.00000000000E+00 0. -1.
         -2    1    1    2    0  502  0.45525422597E+01 -0.31613637640E+02  0.85634356195E+02  0.91396885542E+02  0.00000000000E+00 0.  1.
<mgrwt>
<rscale>  2 0.77661108E+02</rscale>
<asrwt>0</asrwt>
<pdfrwt beam="1">  1       21 0.20150984E-01 0.77661108E+02</pdfrwt>
<pdfrwt beam="2">  1       21 0.15760679E-01 0.77661108E+02</pdfrwt>
<totfact> 0.81381799E+05</totfact>
</mgrwt>
</event>
<event>
 5    1  0.1855960E+000  0.1194150E+03  0.7546771E-02  0.1244065E+00
         21   -1    0    0  501  502  0.00000000000E+00  0.00000000000E+00  0.40413664300E+02  0.40413664300E+02  0.00000000000E+00 0. -1.
         21   -1    0    0  502  503 -0.00000000000E+00 -0.00000000000E+00 -0.57028600514E+03  0.57028600514E+03  0.00000000000E+00 0.  1.
         24    1    1    2    0    0 -0.49530931813E+01  0.32537346507E+02 -0.19498502624E+03  0.21347034562E+03  0.80419002446E+02 0.  1.
          1    1    1    2  501    0 -0.61348138506E+01  0.59207446841E+02 -0.11149003627E+02  0.60559540820E+02  0.00000000000E+00 0. -1.
         -2    1    1    2    0  503  0.11087907032E+02 -0.91744793348E+02 -0.32373831097E+03  0.33666978299E+03  0.00000000000E+00 0.  1.
<mgrwt>
<rscale>  2 0.11941501E+03</rscale>
<asrwt>0</asrwt>
<pdfrwt beam="1">  1       21 0.62174879E-02 0.11941501E+03</pdfrwt>
<pdfrwt beam="2">  1       21 0.87736294E-01 0.11941501E+03</pdfrwt>
<totfact> 0.21127690E+05</totfact>
</mgrwt>
</event>
<event>
 5    1  0.1855960E+000  0.7559497E+02  0.7546771E-02  0.1342038E+00
         21   -1    0    0  501  502  0.00000000000E+00  0.00000000000E+00  0.46226227985E+02  0.46226227985E+02  0.00000000000E+00 0.  1.
         21   -1    0    0  502  503 -0.00000000000E+00 -0.00000000000E+00 -0.50540674067E+03  0.50540674067E+03  0.00000000000E+00 0. -1.
         24    1    1    2    0    0  0.94268566859E+01 -0.11285939079E+02 -0.86058136751E+02  0.11869901812E+03  0.80419002446E+02 0.  0.
          1    1    1    2  501    0  0.13481037774E+01  0.39351554036E+02  0.16109616920E+02  0.42542707320E+02  0.00000000000E+00 0. -1.
         -2    1    1    2    0  503 -0.10774960463E+02 -0.28065614957E+02 -0.38923199285E+03  0.39039124321E+03  0.00000000000E+00 0.  1.
<mgrwt>
<rscale>  2 0.75594971E+02</rscale>
<asrwt>0</asrwt>
<pdfrwt beam="1">  1       21 0.71117275E-02 0.75594971E+02</pdfrwt>
<pdfrwt beam="2">  1       21 0.77754882E-01 0.75594971E+02</pdfrwt>
<totfact> 0.22331746E+05</totfact>
</mgrwt>
</event>
<event>
 5    1  0.1855960E+000  0.6890867E+02  0.7546771E-02  0.1363844E+00
         21   -1    0    0  501  502  0.00000000000E+00  0.00000000000E+00  0.10677475815E+02  0.10677475815E+02  0.00000000000E+00 0.  1.
         21   -1    0    0  502  503 -0.00000000000E+00 -0.00000000000E+00 -0.53871210581E+03  0.53871210581E+03  0.00000000000E+00 0. -1.
         24    1    1    2    0    0  0.26716254677E+02 -0.75048978106E+01 -0.21993116275E+03  0.23581139510E+03  0.80419002446E+02 0.  1.
          1    1    1    2  501    0 -0.19885527515E+02 -0.17705560347E+02 -0.88263346929E+02  0.92191862347E+02  0.00000000000E+00 0. -1.
         -2    1    1    2    0  503 -0.68307271625E+01  0.25210458158E+02 -0.21984012032E+03  0.22138632418E+03  0.00000000000E+00 0.  1.
<mgrwt>
<rscale>  2 0.68908669E+02</rscale>
<asrwt>0</asrwt>
<pdfrwt beam="1">  1       21 0.16426887E-02 0.68908669E+02</pdfrwt>
<pdfrwt beam="2">  1       21 0.82878782E-01 0.68908669E+02</pdfrwt>
<totfact> 0.21059093E+06</totfact>
</mgrwt>
</event>
<event>
 5    1  0.1855960E+000  0.9009528E+02  0.7546771E-02  0.1302621E+00
         21   -1    0    0  503  502  0.00000000000E+00  0.00000000000E+00  0.31324610585E+02  0.31324610585E+02  0.00000000000E+00 0. -1.
         21   -1    0    0  501  503 -0.00000000000E+00 -0.00000000000E+00 -0.54928152203E+03  0.54928152203E+03  0.00000000000E+00 0.  1.
         24    1    1    2    0    0  0.26957245468E+02 -0.31681350297E+02 -0.98746881115E+02  0.13397224908E+03  0.80419002446E+02 0. -1.
          1    1    1    2  501    0 -0.87528675623E+01 -0.26908887000E+02 -0.36084878511E+03  0.36195655348E+03  0.00000000000E+00 0. -1.
         -2    1    1    2    0  502 -0.18204377906E+02  0.58590237297E+02 -0.58361245221E+02  0.84677330055E+02  0.00000000000E+00 0.  1.
<mgrwt>
<rscale>  2 0.90095276E+02</rscale>
<asrwt>0</asrwt>
<pdfrwt beam="1">  1       21 0.48191706E-02 0.90095276E+02</pdfrwt>
<pdfrwt beam="2">  1       21 0.84504855E-01 0.90095276E+02</pdfrwt>
<totfact> 0.35521008E+05</totfact>
</mgrwt>
</event>
<event>
 5    1  0.1855960E+000  0.1146146E+03  0.7546771E-02  0.1252255E+00
         21   -1    0    0  503  502  0.00000000000E+00  0.00000000000E+00  0.27324009682E+03  0.27324009682E+03  0.00000000000E+00 0.  1.
         21   -1    0    0  501  503 -0.00000000000E+00 -0.00000000000E+00 -0.65615439415E+02  0.65615439415E+02  0.00000000000E+00 0. -1.
         24    1    1    2    0    0 -0.16590708536E+02  0.72999791964E+02  0.56491777241E+02  0.12354253554E+03  0.80419002446E+02 0. -1.
          1    1    1    2  501    0 -0.37562614508E+02 -0.16279608329E+02 -0.43540147553E+01  0.41169565222E+02  0.00000000000E+00 0. -1.
         -2    1    1    2    0  502  0.54153323044E+02 -0.56720183634E+02  0.15548689491E+03  0.17414343547E+03  0.00000000000E+00 0.  1.
<mgrwt>
<rscale>  2 0.11461459E+03</rscale>
<asrwt>0</asrwt>
<pdfrwt beam="1">  1       21 0.42036937E-01 0.11461459E+03</pdfrwt>
<pdfrwt beam="2">  1       21 0.10094683E-01 0.11461459E+03</pdfrwt>
<totfact> 0.43956727E+05</totfact>
</mgrwt>
</event>
<event>
 5    1  0.1855960E+000  0.9389095E+02  0.7546771E-02  0.1293694E+00
         21   -1    0    0  503  502  0.00000000000E+00  0.00000000000E+00  0.16295193108E+03  0.16295193108E+03  0.00000000000E+00 0. -1.
         21   -1    0    0  501  503 -0.00000000000E+00 -0.00000000000E+00 -0.12082515584E+03  0.12082515584E+03  0.00000000000E+00 0.  1.
         24    1    1    2    0    0  0.54382005955E+02  0.51877041085E+02  0.11247442464E+02  0.11064515751E+03  0.80419002446E+02 0.  0.
          1    1    1    2  501    0 -0.40591336518E+02 -0.25475138004E+02 -0.60407468047E+02  0.77108374723E+02  0.00000000000E+00 0. -1.
         -2    1    1    2    0  502 -0.13790669437E+02 -0.26401903081E+02  0.91286800822E+02  0.96023554684E+02  0.00000000000E+00 0.  1.
<mgrwt>
<rscale>  2 0.93890946E+02</rscale>
<asrwt>0</asrwt>
<pdfrwt beam="1">  1       21 0.25069528E-01 0.93890946E+02</pdfrwt>
<pdfrwt beam="2">  1       21 0.18588486E-01 0.93890946E+02</pdfrwt>
<totfact> 0.40410748E+05</totfact>
</mgrwt>
</event>
<event>
 5    1  0.1855960E+000  0.8112801E+02  0.7546771E-02  0.1325880E+00
         21   -1    0    0  501  502  0.00000000000E+00  0.00000000000E+00  0.26925915928E+03  0.26925915928E+03  0.00000000000E+00 0.  1.
         21   -1    0    0  502  503 -0.00000000000E+00 -0.00000000000E+00 -0.34908207184E+02  0.34908207184E+02  0.00000000000E+00 0. -1.
         24    1    1    2    0    0  0.27801214959E+02 -0.32527192947E+02  0.44627584526E+02  0.10143846947E+03  0.80419002446E+02 0. -1.
          1    1    1    2  501    0 -0.18417930597E+02 -0.14354082816E+02  0.70945704747E+02  0.74689710691E+02  0.00000000000E+00 0. -1.
         -2    1    1    2    0  503 -0.93832843625E+01  0.46881275763E+02  0.11877766282E+03  0.12803918630E+03  0.00000000000E+00 0.  1.
<mgrwt>
<rscale>  2 0.81128012E+02</rscale>
<asrwt>0</asrwt>
<pdfrwt beam="1">  1       21 0.41424485E-01 0.81128012E+02</pdfrwt>
<pdfrwt beam="2">  1       21 0.53704936E-02 0.81128012E+02</pdfrwt>
<totfact> 0.13224453E+06</totfact>
</mgrwt>
</event>
<event>
 5    1  0.1855960E+000  0.1091586E+03  0.7546771E-02  0.1262136E+00
         21   -1    0    0  501  502  0.00000000000E+00  0.00000000000E+00  0.24495600630E+04  0.24495600630E+04  0.00000000000E+00 0.  1.
         21   -1    0    0  502  503 -0.00000000000E+00 -0.00000000000E+00 -0.80339290403E+01  0.80339290403E+01  0.00000000000E+00 0.  1.
         24    1    1    2    0    0  0.27002190587E+02  0.89870825235E+02  0.12489663523E+04  0.12550657547E+04  0.80419002446E+02 0.  1.
          1    1    1    2  501    0 -0.23462173577E+02 -0.56543471757E+02  0.11291322076E+04  0.11307905111E+04  0.00000000000E+00 0. -1.
         -2    1    1    2    0  503 -0.35400170100E+01 -0.33327353479E+02  0.63427574025E+02  0.71737726177E+02  0.00000000000E+00 0.  1.
<mgrwt>
<rscale>  2 0.10915859E+03</rscale>
<asrwt>0</asrwt>
<pdfrwt beam="1">  1       21 0.37685480E+00 0.10915859E+03</pdfrwt>
<pdfrwt beam="2">  1       21 0.12359910E-02 0.10915859E+03</pdfrwt>
<totfact> 0.36362149E+04</totfact>
</mgrwt>
</event>
<event>
 5    1  0.1855960E+000  0.8441449E+02  0.7546771E-02  0.1316971E+00
         21   -1    0    0  501  502  0.00000000000E+00  0.00000000000E+00  0.37599257125E+03  0.37599257125E+03  0.00000000000E+00 0. -1.
         21   -1    0    0  502  503 -0.00000000000E+00 -0.00000000000E+00 -0.23790159986E+02  0.23790159986E+02  0.00000000000E+00 0.  1.
         24    1    1    2    0    0  0.17817516703E+02  0.19953554304E+02  0.91591035440E+02  0.12478678599E+03  0.80419002446E+02 0.  1.
          1    1    1    2  501    0  0.30535524469E+02 -0.18500098660E+02  0.15136046365E+03  0.15551418540E+03  0.00000000000E+00 0. -1.
         -2    1    1    2    0  503 -0.48353041172E+02 -0.14534556437E+01  0.10925091218E+03  0.11948175984E+03  0.00000000000E+00 0.  1.
<mgrwt>
<rscale>  2 0.84414486E+02</rscale>
<asrwt>0</asrwt>
<pdfrwt beam="1">  1       21 0.57845006E-01 0.84414486E+02</pdfrwt>
<pdfrwt beam="2">  1       21 0.36600249E-02 0.84414486E+02</pdfrwt>
<totfact> 0.12653301E+06</totfact>
</mgrwt>
</event>
<event>
 5    1  0.1855960E+000  0.1965405E+03  0.7546771E-02  0.1152691E+00
         21   -1    0    0  501  502  0.00000000000E+00  0.00000000000E+00  0.11515787504E+04  0.11515787504E+04  0.00000000000E+00 0. -1.
         21   -1    0    0  502  503 -0.00000000000E+00 -0.00000000000E+00 -0.38354898476E+02  0.38354898476E+02  0.00000000000E+00 0. -1.
         24    1    1    2    0    0  0.44971174703E+02 -0.17624404219E+03  0.60019312629E+03  0.63228425076E+03  0.80419002446E+02 0. -1.
          1    1    1    2  501    0 -0.46199722547E+02  0.50459414741E+02  0.32012671710E+03  0.32735558939E+03  0.00000000000E+00 0. -1.
         -2    1    1    2    0  503  0.12285478433E+01  0.12578462745E+03  0.19290400854E+03  0.23029380873E+03  0.00000000000E+00 0.  1.
<mgrwt>
<rscale>  2 0.19654055E+03</rscale>
<asrwt>0</asrwt>
<pdfrwt beam="1">  1       21 0.17716593E+00 0.19654055E+03</pdfrwt>
<pdfrwt beam="2">  1       21 0.59007545E-02 0.19654055E+03</pdfrwt>
<totfact> 0.38505811E+04</totfact>
</mgrwt>
</event>
<event>
 5    1  0.1855960E+000  0.6389698E+02  0.7546771E-02  0.1382169E+00
         21   -1    0    0  501  502  0.00000000000E+00  0.00000000000E+00  0.48106249913E+03  0.48106249913E+03  0.00000000000E+00 0. -1.
         21   -1    0    0  502  503 -0.00000000000E+00 -0.00000000000E+00 -0.26558608218E+02  0.26558608218E+02  0.00000000000E+00 0.  1.
         24    1    1    2    0    0 -0.10499629193E+01  0.66096303880E+01  0.41685075744E+03  0.42458987219E+03  0.80419002446E+02 0. -1.
          1    1    1    2  501    0  0.30893255806E+01 -0.26712679406E+02  0.51800684347E+02  0.58364561786E+02  0.00000000000E+00 0. -1.
         -2    1    1    2    0  503 -0.20393626613E+01  0.20103049018E+02 -0.14147550868E+02  0.24666673376E+02  0.00000000000E+00 0.  1.
<mgrwt>
<rscale>  2 0.63896976E+02</rscale>
<asrwt>0</asrwt>
<pdfrwt beam="1">  1       21 0.74009609E-01 0.63896976E+02</pdfrwt>
<pdfrwt beam="2">  1       21 0.40859401E-02 0.63896976E+02</pdfrwt>
<totfact> 0.62398405E+05</totfact>
</mgrwt>
</event>
<event>
 5    1  0.1855960E+000  0.8609564E+02  0.7546771E-02  0.1312592E+00
         21   -1    0    0  501  502  0.00000000000E+00  0.00000000000E+00  0.28838377874E+02  0.28838377874E+02  0.00000000000E+00 0.  1.
         21   -1    0    0  502  503 -0.00000000000E+00 -0.00000000000E+00 -0.25971842627E+03  0.25971842627E+03  0.00000000000E+00 0. -1.
         24    1    1    2    0    0 -0.40650037273E+02  0.12495785896E+02 -0.13193789900E+03  0.16026039855E+03  0.80419002446E+02 0.  0.
          1    1    1    2  501    0  0.29099209254E+02 -0.41107516594E+02 -0.54673395887E+02  0.74335537379E+02  0.00000000000E+00 0. -1.
         -2    1    1    2    0  503  0.11550828020E+02  0.28611730698E+02 -0.44268753503E+02  0.53960868212E+02  0.00000000000E+00 0.  1.
<mgrwt>
<rscale>  2 0.86095645E+02</rscale>
<asrwt>0</asrwt>
<pdfrwt beam="1">  1       21 0.44366735E-02 0.86095645E+02</pdfrwt>
<pdfrwt beam="2">  1       21 0.39956681E-01 0.86095645E+02</pdfrwt>
<totfact> 0.19537339E+06</totfact>
</mgrwt>
</event>
<event>
 5    1  0.1855960E+000  0.6801460E+02  0.7546771E-02  0.1366978E+00
         21   -1    0    0  503  502  0.00000000000E+00  0.00000000000E+00  0.17756733137E+02  0.17756733137E+02  0.00000000000E+00 0. -1.
         21   -1    0    0  501  503 -0.00000000000E+00 -0.00000000000E+00 -0.26198606047E+03  0.26198606047E+03  0.00000000000E+00 0.  1.
         24    1    1    2    0    0 -0.24977111039E+02 -0.18008215482E+02 -0.14893478485E+03  0.17203760633E+03  0.80419002446E+02 0.  1.
          1    1    1    2  501    0  0.60483527630E+01  0.27907664033E+02 -0.60025969369E+02  0.66472078962E+02  0.00000000000E+00 0. -1.
         -2    1    1    2    0  502  0.18928758276E+02 -0.98994485510E+01 -0.35268573120E+02  0.41233108316E+02  0.00000000000E+00 0.  1.
<mgrwt>
<rscale>  2 0.68014602E+02</rscale>
<asrwt>0</asrwt>
<pdfrwt beam="1">  1       21 0.27318051E-02 0.68014602E+02</pdfrwt>
<pdfrwt beam="2">  1       21 0.40305547E-01 0.68014602E+02</pdfrwt>
<totfact> 0.41794519E+06</totfact>
</mgrwt>
</event>
<event>
 5    1  0.1855960E+000  0.6719818E+02  0.7546771E-02  0.1369889E+00
         21   -1    0    0  503  502  0.00000000000E+00  0.00000000000E+00  0.86044589016E+02  0.86044589016E+02  0.00000000000E+00 0. -1.
         21   -1    0    0  501  503 -0.00000000000E+00 -0.00000000000E+00 -0.57682775960E+02  0.57682775960E+02  0.00000000000E+00 0. -1.
         24    1    1    2    0    0  0.17027169331E+02 -0.34889854936E+02  0.30726334050E+00  0.89300262251E+02  0.80419002446E+02 0. -1.
          1    1    1    2  501    0 -0.19942826092E+02  0.14897544682E+02  0.84841602944E+01  0.26298937735E+02  0.00000000000E+00 0. -1.
         -2    1    1    2    0  502  0.29156567612E+01  0.19992310254E+02  0.19570389421E+02  0.28128164991E+02  0.00000000000E+00 0.  1.
<mgrwt>
<rscale>  2 0.67198183E+02</rscale>
<asrwt>0</asrwt>
<pdfrwt beam="1">  1       21 0.13237629E-01 0.67198183E+02</pdfrwt>
<pdfrwt beam="2">  1       21 0.88742733E-02 0.67198183E+02</pdfrwt>
<totfact> 0.46585955E+06</totfact>
</mgrwt>
</event>
<event>
 5    1  0.1855960E+000  0.9533154E+02  0.7546771E-02  0.1290431E+00
         21   -1    0    0  501  502  0.00000000000E+00  0.00000000000E+00  0.55572289291E+03  0.55572289291E+03  0.00000000000E+00 0. -1.
         21   -1    0    0  502  503 -0.00000000000E+00 -0.00000000000E+00 -0.88715296651E+02  0.88715296651E+02  0.00000000000E+00 0.  1.
         24    1    1    2    0    0 -0.14435166626E+01  0.32511633881E+02  0.33922018322E+02  0.93150466233E+02  0.80419002446E+02 0.  0.
          1    1    1    2  501    0  0.50031477672E+02 -0.18479504576E+02  0.47961173708E+03  0.48256819123E+03  0.00000000000E+00 0. -1.
         -2    1    1    2    0  503 -0.48587961009E+02 -0.14032129305E+02 -0.46526159137E+02  0.68719532099E+02  0.00000000000E+00 0.  1.
<mgrwt>
<rscale>  2 0.95331538E+02</rscale>
<asrwt>0</asrwt>
<pdfrwt beam="1">  1       21 0.85495827E-01 0.95331538E+02</pdfrwt>
<pdfrwt beam="2">  1       21 0.13648508E-01 0.95331538E+02</pdfrwt>
<totfact> 0.58025276E+04</totfact>
</mgrwt>
</event>
<event>
 5    1  0.1855960E+000  0.9972935E+02  0.7546771E-02  0.1280866E+00
         21   -1    0    0  501  502  0.00000000000E+00  0.00000000000E+00  0.46042328499E+02  0.46042328499E+02  0.00000000000E+00 0.  1.
         21   -1    0    0  502  503 -0.00000000000E+00 -0.00000000000E+00 -0.25732629330E+03  0.25732629330E+03  0.00000000000E+00 0.  1.
         24    1    1    2    0    0 -0.21145490894E+02  0.44260051298E+02 -0.64474504161E+02  0.11415017112E+03  0.80419002446E+02 0.  1.
          1    1    1    2  501    0 -0.31147932355E+02  0.71179503779E+01 -0.91166011622E+01  0.33226063931E+02  0.00000000000E+00 0. -1.
         -2    1    1    2    0  503  0.52293423250E+02 -0.51378001676E+02 -0.13769285948E+03  0.15599238674E+03  0.00000000000E+00 0.  1.
<mgrwt>
<rscale>  2 0.99729351E+02</rscale>
<asrwt>0</asrwt>
<pdfrwt beam="1">  1       21 0.70834352E-02 0.99729351E+02</pdfrwt>
<pdfrwt beam="2">  1       21 0.39588660E-01 0.99729351E+02</pdfrwt>
<totfact> 0.91182148E+05</totfact>
</mgrwt>
</event>
<event>
 5    1  0.1855960E+000  0.1141217E+03  0.7546771E-02  0.1253122E+00
         21   -1    0    0  503  502  0.00000000000E+00  0.00000000000E+00  0.33658708450E+02  0.33658708450E+02  0.00000000000E+00 0.  1.
         21   -1    0    0  501  503 -0.00000000000E+00 -0.00000000000E+00 -0.84263329798E+03  0.84263329798E+03  0.00000000000E+00 0.  1.
         24    1    1    2    0    0 -0.25340186177E+02 -0.87823814782E+02 -0.10322752798E+03  0.15961919047E+03  0.80419002446E+02 0.  1.
          1    1    1    2  501    0 -0.88731145286E+01  0.64457302610E+02 -0.59291865667E+03  0.59647800416E+03  0.00000000000E+00 0. -1.
         -2    1    1    2    0  502  0.34213300706E+02  0.23366512172E+02 -0.11282840488E+03  0.12019481180E+03  0.00000000000E+00 0.  1.
<mgrwt>
<rscale>  2 0.11412175E+03</rscale>
<asrwt>0</asrwt>
<pdfrwt beam="1">  1       21 0.51782629E-02 0.11412175E+03</pdfrwt>
<pdfrwt beam="2">  1       21 0.12963589E+00 0.11412175E+03</pdfrwt>
<totfact> 0.11436859E+05</totfact>
</mgrwt>
</event>
<event>
 5    1  0.1855960E+000  0.7405902E+02  0.7546771E-02  0.1346810E+00
         21   -1    0    0  503  502  0.00000000000E+00  0.00000000000E+00  0.20616444271E+03  0.20616444271E+03  0.00000000000E+00 0.  1.
         21   -1    0    0  501  503 -0.00000000000E+00 -0.00000000000E+00 -0.34336667602E+02  0.34336667602E+02  0.00000000000E+00 0. -1.
         24    1    1    2    0    0  0.10238964263E+02 -0.17799052045E+02  0.41521681659E+02  0.92805757607E+02  0.80419002446E+02 0. -1.
          1    1    1    2  501    0  0.22235715279E+02  0.23271004695E+02  0.38618787111E+02  0.50273028668E+02  0.00000000000E+00 0. -1.
         -2    1    1    2    0  502 -0.32474679542E+02 -0.54719526505E+01  0.91687306342E+02  0.97422324041E+02  0.00000000000E+00 0.  1.
<mgrwt>
<rscale>  2 0.74059024E+02</rscale>
<asrwt>0</asrwt>
<pdfrwt beam="1">  1       21 0.31717606E-01 0.74059024E+02</pdfrwt>
<pdfrwt beam="2">  1       21 0.52825644E-02 0.74059024E+02</pdfrwt>
<totfact> 0.22767756E+06</totfact>
</mgrwt>
</event>
<event>
 5    1  0.1855960E+000  0.7290823E+02  0.7546771E-02  0.1350474E+00
         21   -1    0    0  503  502  0.00000000000E+00  0.00000000000E+00  0.11742806396E+04  0.11742806396E+04  0.00000000000E+00 0. -1.
         21   -1    0    0  501  503 -0.00000000000E+00 -0.00000000000E+00 -0.12738165610E+02  0.12738165610E+02  0.00000000000E+00 0. -1.
         24    1    1    2    0    0 -0.25638897206E+02 -0.14998519039E+02  0.14330898774E+03  0.16699398356E+03  0.80419002446E+02 0. -1.
          1    1    1    2  501    0  0.11980849725E+02  0.34362350155E+02  0.56280719747E+03  0.56398249387E+03  0.00000000000E+00 0. -1.
         -2    1    1    2    0  502  0.13658047481E+02 -0.19363831116E+02  0.45542628880E+03  0.45604232780E+03  0.00000000000E+00 0.  1.
<mgrwt>
<rscale>  2 0.72908230E+02</rscale>
<asrwt>0</asrwt>
<pdfrwt beam="1">  1       21 0.18065847E+00 0.72908230E+02</pdfrwt>
<pdfrwt beam="2">  1       21 0.19597187E-02 0.72908230E+02</pdfrwt>
<totfact> 0.24340852E+05</totfact>
</mgrwt>
</event>
<event>
 5    1  0.1855960E+000  0.6671520E+02  0.7546771E-02  0.1371633E+00
         21   -1    0    0  501  502  0.00000000000E+00  0.00000000000E+00  0.28430544564E+03  0.28430544564E+03  0.00000000000E+00 0. -1.
         21   -1    0    0  502  503 -0.00000000000E+00 -0.00000000000E+00 -0.29121143830E+02  0.29121143830E+02  0.00000000000E+00 0.  1.
         24    1    1    2    0    0 -0.95308395524E+01  0.20058176783E+01  0.68525247704E+02  0.10610271313E+03  0.80419002446E+02 0.  1.
          1    1    1    2  501    0 -0.20041845127E+02  0.74414063833E+01  0.17140609760E+03  0.17273418996E+03  0.00000000000E+00 0. -1.
         -2    1    1    2    0  503  0.29572684679E+02 -0.94472240617E+01  0.15252956502E+02  0.34589686377E+02  0.00000000000E+00 0.  1.
<mgrwt>
<rscale>  2 0.66715200E+02</rscale>
<asrwt>0</asrwt>
<pdfrwt beam="1">  1       21 0.43739297E-01 0.66715200E+02</pdfrwt>
<pdfrwt beam="2">  1       21 0.44801762E-02 0.66715200E+02</pdfrwt>
<totfact> 0.15911630E+06</totfact>
</mgrwt>
</event>
<event>
 5    1  0.1855960E+000  0.1275074E+03  0.7546771E-02  0.1231202E+00
         21   -1    0    0  503  502  0.00000000000E+00  0.00000000000E+00  0.83202970829E+02  0.83202970829E+02  0.00000000000E+00 0. -1.
         21   -1    0    0  501  503 -0.00000000000E+00 -0.00000000000E+00 -0.32074337377E+03  0.32074337377E+03  0.00000000000E+00 0. -1.
         24    1    1    2    0    0  0.86387161636E+02 -0.17577613107E+02  0.11966801777E+02  0.11992553722E+03  0.80419002446E+02 0. -1.
          1    1    1    2  501    0 -0.10059920799E+03 -0.13513080013E+02 -0.18816232642E+03  0.21379397808E+03  0.00000000000E+00 0. -1.
         -2    1    1    2    0  502  0.14212046353E+02  0.31090693120E+02 -0.61344878299E+02  0.70226829302E+02  0.00000000000E+00 0.  1.
<mgrwt>
<rscale>  2 0.12750735E+03</rscale>
<asrwt>0</asrwt>
<pdfrwt beam="1">  1       21 0.12800457E-01 0.12750735E+03</pdfrwt>
<pdfrwt beam="2">  1       21 0.49345134E-01 0.12750735E+03</pdfrwt>
<totfact> 0.20836366E+05</totfact>
</mgrwt>
</event>
<event>
 5    1  0.1855960E+000  0.1163667E+03  0.7546771E-02  0.1249214E+00
         21   -1    0    0  503  502  0.00000000000E+00  0.00000000000E+00  0.78507357863E+02  0.78507357863E+02  0.00000000000E+00 0.  1.
         21   -1    0    0  501  503 -0.00000000000E+00 -0.00000000000E+00 -0.19585786645E+03  0.19585786645E+03  0.00000000000E+00 0. -1.
         24    1    1    2    0    0 -0.60770143278E+02  0.13930146455E+02 -0.60570424790E+02  0.11841896642E+03  0.80419002446E+02 0. -1.
          1    1    1    2  501    0 -0.11494853812E+01 -0.56068138097E+02 -0.58487381264E+02  0.81029199635E+02  0.00000000000E+00 0. -1.
         -2    1    1    2    0  502  0.61919628659E+02  0.42137991642E+02  0.17072974702E+01  0.74917058255E+02  0.00000000000E+00 0.  1.
<mgrwt>
<rscale>  2 0.11636674E+03</rscale>
<asrwt>0</asrwt>
<pdfrwt beam="1">  1       21 0.12078055E-01 0.11636674E+03</pdfrwt>
<pdfrwt beam="2">  1       21 0.30131980E-01 0.11636674E+03</pdfrwt>
<totfact> 0.61671469E+05</totfact>
</mgrwt>
</event>
<event>
 5    1  0.1855960E+000  0.9803573E+02  0.7546771E-02  0.1284482E+00
         21   -1    0    0  503  502  0.00000000000E+00  0.00000000000E+00  0.38410372867E+03  0.38410372867E+03  0.00000000000E+00 0. -1.
         21   -1    0    0  501  503 -0.00000000000E+00 -0.00000000000E+00 -0.42353002842E+02  0.42353002842E+02  0.00000000000E+00 0. -1.
         24    1    1    2    0    0 -0.30155857508E+02 -0.75735249291E+02  0.24657183885E+03  0.27186410465E+03  0.80419002446E+02 0. -1.
          1    1    1    2  501    0  0.21414769216E+02  0.50385915843E+02 -0.98863011818E+00  0.54756828300E+02  0.00000000000E+00 0. -1.
         -2    1    1    2    0  502  0.87410882915E+01  0.25349333448E+02  0.96167517100E+02  0.99835798569E+02  0.00000000000E+00 0.  1.
<mgrwt>
<rscale>  2 0.98035733E+02</rscale>
<asrwt>0</asrwt>
<pdfrwt beam="1">  1       21 0.59092879E-01 0.98035733E+02</pdfrwt>
<pdfrwt beam="2">  1       21 0.65158468E-02 0.98035733E+02</pdfrwt>
<totfact> 0.46422691E+05</totfact>
</mgrwt>
</event>
<event>
 5    1  0.1855960E+000  0.9377646E+02  0.7546771E-02  0.1293956E+00
         21   -1    0    0  501  502  0.00000000000E+00  0.00000000000E+00  0.99707192834E+01  0.99707192834E+01  0.00000000000E+00 0. -1.
         21   -1    0    0  502  503 -0.00000000000E+00 -0.00000000000E+00 -0.12507626781E+04  0.12507626781E+04  0.00000000000E+00 0. -1.
         24    1    1    2    0    0 -0.37713082799E+02  0.33504465213E+02 -0.56757346478E+03  0.57545780009E+03  0.80419002446E+02 0.  0.
          1    1    1    2  501    0  0.35374649213E+02 -0.58042045458E+02 -0.19657383063E+03  0.20799402813E+03  0.00000000000E+00 0. -1.
         -2    1    1    2    0  503  0.23384335861E+01  0.24537580245E+02 -0.47664466343E+03  0.47728156920E+03  0.00000000000E+00 0.  1.
<mgrwt>
<rscale>  2 0.93776456E+02</rscale>
<asrwt>0</asrwt>
<pdfrwt beam="1">  1       21 0.15339561E-02 0.93776456E+02</pdfrwt>
<pdfrwt beam="2">  1       21 0.19242512E+00 0.93776456E+02</pdfrwt>
<totfact> 0.29817088E+05</totfact>
</mgrwt>
</event>
<event>
 5    1  0.1855960E+000  0.9672585E+02  0.7546771E-02  0.1287336E+00
         21   -1    0    0  501  502  0.00000000000E+00  0.00000000000E+00  0.16293452522E+03  0.16293452522E+03  0.00000000000E+00 0.  1.
         21   -1    0    0  502  503 -0.00000000000E+00 -0.00000000000E+00 -0.15002188661E+03  0.15002188661E+03  0.00000000000E+00 0.  1.
         24    1    1    2    0    0  0.30894643025E+01 -0.37659738735E+02  0.11786609305E+03  0.14760566574E+03  0.80419002446E+02 0.  1.
          1    1    1    2  501    0  0.20224301482E+02 -0.28217593229E+02  0.49947704922E+01  0.35074245114E+02  0.00000000000E+00 0. -1.
         -2    1    1    2    0  503 -0.23313765784E+02  0.65877331964E+02 -0.10994822493E+03  0.13027650098E+03  0.00000000000E+00 0.  1.
<mgrwt>
<rscale>  2 0.96725845E+02</rscale>
<asrwt>0</asrwt>
<pdfrwt beam="1">  1       21 0.25066850E-01 0.96725845E+02</pdfrwt>
<pdfrwt beam="2">  1       21 0.23080290E-01 0.96725845E+02</pdfrwt>
<totfact> 0.27130171E+05</totfact>
</mgrwt>
</event>
<event>
 5    1  0.2801059E+000  0.1408093E+03  0.7546771E-02  0.1212244E+00
         21   -1    0    0  501  502  0.00000000000E+00  0.00000000000E+00  0.14154335126E+03  0.14154335126E+03  0.00000000000E+00 0. -1.
         21   -1    0    0  502  503 -0.00000000000E+00 -0.00000000000E+00 -0.35349254639E+03  0.35349254639E+03  0.00000000000E+00 0.  1.
         24    1    1    2    0    0 -0.35735742793E+02 -0.54683841020E+01  0.14298173251E+02  0.89323010755E+02  0.80419002446E+02 0. -1.
          1    1    1    2  501    0  0.10944733629E+03  0.33694142169E+02  0.45131178871E+02  0.12308874012E+03  0.00000000000E+00 0. -1.
         -2    1    1    2    0  503 -0.73711593502E+02 -0.28225758067E+02 -0.27137854724E+03  0.28262414677E+03  0.00000000000E+00 0.  1.
<mgrwt>
<rscale>  2 0.14080929E+03</rscale>
<asrwt>0</asrwt>
<pdfrwt beam="1">  1       21 0.21775901E-01 0.14080929E+03</pdfrwt>
<pdfrwt beam="2">  1       21 0.54383468E-01 0.14080929E+03</pdfrwt>
<totfact> 0.64362299E+04</totfact>
</mgrwt>
</event>
<event>
 5    1  0.1855960E+000  0.7643331E+02  0.7546771E-02  0.1339489E+00
         21   -1    0    0  501  502  0.00000000000E+00  0.00000000000E+00  0.32512641380E+02  0.32512641380E+02  0.00000000000E+00 0.  1.
         21   -1    0    0  502  503 -0.00000000000E+00 -0.00000000000E+00 -0.22507830201E+03  0.22507830201E+03  0.00000000000E+00 0.  1.
         24    1    1    2    0    0 -0.64260318802E+01 -0.36128077478E+02 -0.16229374281E+03  0.18480532129E+03  0.80419002446E+02 0.  1.
          1    1    1    2  501    0 -0.23250540425E+02  0.20147856533E+02 -0.62454562423E+01  0.31393143783E+02  0.00000000000E+00 0. -1.
         -2    1    1    2    0  503  0.29676572305E+02  0.15980220945E+02 -0.24026461580E+02  0.41392478318E+02  0.00000000000E+00 0.  1.
<mgrwt>
<rscale>  2 0.76433308E+02</rscale>
<asrwt>0</asrwt>
<pdfrwt beam="1">  1       21 0.50019449E-02 0.76433308E+02</pdfrwt>
<pdfrwt beam="2">  1       21 0.34627431E-01 0.76433308E+02</pdfrwt>
<totfact> 0.21088241E+06</totfact>
</mgrwt>
</event>
<event>
 5    1  0.1855960E+000  0.8945996E+02  0.7546771E-02  0.1304165E+00
         21   -1    0    0  503  502  0.00000000000E+00  0.00000000000E+00  0.25850311499E+02  0.25850311499E+02  0.00000000000E+00 0. -1.
         21   -1    0    0  501  503 -0.00000000000E+00 -0.00000000000E+00 -0.45649117406E+03  0.45649117406E+03  0.00000000000E+00 0. -1.
         24    1    1    2    0    0  0.32095862169E+01  0.53150377820E+02 -0.17387232310E+03  0.19883174998E+03  0.80419002446E+02 0. -1.
          1    1    1    2  501    0 -0.23646299433E+02 -0.56967727098E+02 -0.25532488160E+03  0.26266949684E+03  0.00000000000E+00 0. -1.
         -2    1    1    2    0  502  0.20436713216E+02  0.38173492786E+01 -0.14436578636E+01  0.20840238737E+02  0.00000000000E+00 0.  1.
<mgrwt>
<rscale>  2 0.89459961E+02</rscale>
<asrwt>0</asrwt>
<pdfrwt beam="1">  1       21 0.39769708E-02 0.89459961E+02</pdfrwt>
<pdfrwt beam="2">  1       21 0.70229415E-01 0.89459961E+02</pdfrwt>
<totfact> 0.73239329E+05</totfact>
</mgrwt>
</event>
<event>
 5    1  0.1855960E+000  0.1240915E+03  0.7546771E-02  0.1236496E+00
         21   -1    0    0  503  502  0.00000000000E+00  0.00000000000E+00  0.10740924555E+03  0.10740924555E+03  0.00000000000E+00 0. -1.
         21   -1    0    0  501  503 -0.00000000000E+00 -0.00000000000E+00 -0.24204434520E+03  0.24204434520E+03  0.00000000000E+00 0. -1.
         24    1    1    2    0    0  0.64287729430E+01 -0.10473107164E+03 -0.73409633903E+02  0.15121546479E+03  0.80419002446E+02 0. -1.
          1    1    1    2  501    0  0.20685317481E+02  0.29630409779E+02 -0.10226600380E+03  0.10846280043E+03  0.00000000000E+00 0. -1.
         -2    1    1    2    0  502 -0.27114090424E+02  0.75100661862E+02  0.41040538053E+02  0.89775325537E+02  0.00000000000E+00 0.  1.
<mgrwt>
<rscale>  2 0.12409149E+03</rscale>
<asrwt>0</asrwt>
<pdfrwt beam="1">  1       21 0.16524499E-01 0.12409149E+03</pdfrwt>
<pdfrwt beam="2">  1       21 0.37237591E-01 0.12409149E+03</pdfrwt>
<totfact> 0.23253299E+05</totfact>
</mgrwt>
</event>
<event>
 5    1  0.1855960E+000  0.1226996E+03  0.7546771E-02  0.1238709E+00
         21   -1    0    0  503  502  0.00000000000E+00  0.00000000000E+00  0.36205022699E+03  0.36205022699E+03  0.00000000000E+00 0.  1.
         21   -1    0    0  501  503 -0.00000000000E+00 -0.00000000000E+00 -0.25133187341E+03  0.25133187341E+03  0.00000000000E+00 0.  1.
         24    1    1    2    0    0  0.99334630492E+02  0.50705957308E+01  0.33148354880E+03  0.35530499411E+03  0.80419002446E+02 0.  1.
          1    1    1    2  501    0 -0.41284916760E+02  0.28749478676E+02 -0.15917038499E+03  0.16693168763E+03  0.00000000000E+00 0. -1.
         -2    1    1    2    0  502 -0.58049713733E+02 -0.33820074407E+02 -0.61594810235E+02  0.91145418674E+02  0.00000000000E+00 0.  1.
<mgrwt>
<rscale>  2 0.12269964E+03</rscale>
<asrwt>0</asrwt>
<pdfrwt beam="1">  1       21 0.55700035E-01 0.12269964E+03</pdfrwt>
<pdfrwt beam="2">  1       21 0.38666442E-01 0.12269964E+03</pdfrwt>
<totfact> 0.20509089E+04</totfact>
</mgrwt>
</event>
<event>
 5    1  0.1855960E+000  0.1182790E+03  0.7546771E-02  0.1245963E+00
         21   -1    0    0  501  502  0.00000000000E+00  0.00000000000E+00  0.35108310398E+02  0.35108310398E+02  0.00000000000E+00 0. -1.
         21   -1    0    0  502  503 -0.00000000000E+00 -0.00000000000E+00 -0.63119408545E+03  0.63119408545E+03  0.00000000000E+00 0.  1.
         24    1    1    2    0    0  0.49221556421E+02  0.56383301922E+02 -0.13295209716E+03  0.17246829983E+03  0.80419002446E+02 0.  1.
          1    1    1    2  501    0 -0.13842810590E+02  0.30169929420E+02 -0.15673156284E+02  0.36708253488E+02  0.00000000000E+00 0. -1.
         -2    1    1    2    0  503 -0.35378745831E+02 -0.86553231341E+02 -0.44746052161E+03  0.45712584253E+03  0.00000000000E+00 0.  1.
<mgrwt>
<rscale>  2 0.11827899E+03</rscale>
<asrwt>0</asrwt>
<pdfrwt beam="1">  1       21 0.54012788E-02 0.11827899E+03</pdfrwt>
<pdfrwt beam="2">  1       21 0.97106777E-01 0.11827899E+03</pdfrwt>
<totfact> 0.21242150E+05</totfact>
</mgrwt>
</event>
<event>
 5    1  0.1855960E+000  0.7239451E+02  0.7546771E-02  0.1352135E+00
         21   -1    0    0  503  502  0.00000000000E+00  0.00000000000E+00  0.53479701095E+02  0.53479701095E+02  0.00000000000E+00 0.  1.
         21   -1    0    0  501  503 -0.00000000000E+00 -0.00000000000E+00 -0.20811007351E+03  0.20811007351E+03  0.00000000000E+00 0. -1.
         24    1    1    2    0    0 -0.21295643376E+02 -0.37808727884E+02 -0.14469176472E+03  0.17113131526E+03  0.80419002446E+02 0. -1.
          1    1    1    2  501    0 -0.39277494274E+01  0.24648217622E+02 -0.41211671505E+02  0.48180532539E+02  0.00000000000E+00 0. -1.
         -2    1    1    2    0  502  0.25223392804E+02  0.13160510261E+02  0.31273063810E+02  0.42277926805E+02  0.00000000000E+00 0.  1.
<mgrwt>
<rscale>  2 0.72394513E+02</rscale>
<asrwt>0</asrwt>
<pdfrwt beam="1">  1       21 0.82276463E-02 0.72394513E+02</pdfrwt>
<pdfrwt beam="2">  1       21 0.32016935E-01 0.72394513E+02</pdfrwt>
<totfact> 0.10615670E+06</totfact>
</mgrwt>
</event>
<event>
 5    1  0.1855960E+000  0.7577354E+02  0.7546771E-02  0.1341492E+00
         21   -1    0    0  501  502  0.00000000000E+00  0.00000000000E+00  0.13028905985E+03  0.13028905985E+03  0.00000000000E+00 0. -1.
         21   -1    0    0  502  503 -0.00000000000E+00 -0.00000000000E+00 -0.68139151538E+02  0.68139151538E+02  0.00000000000E+00 0. -1.
         24    1    1    2    0    0 -0.49035848830E+02  0.18826157388E+02  0.48795760450E+02  0.10773662731E+03  0.80419002446E+02 0. -1.
          1    1    1    2  501    0  0.18069640520E+02 -0.16451749059E+02  0.41901981243E+02  0.48507195216E+02  0.00000000000E+00 0. -1.
         -2    1    1    2    0  503  0.30966208310E+02 -0.23744083292E+01 -0.28547833385E+02  0.42184388854E+02  0.00000000000E+00 0.  1.
<mgrwt>
<rscale>  2 0.75773541E+02</rscale>
<asrwt>0</asrwt>
<pdfrwt beam="1">  1       21 0.20044471E-01 0.75773541E+02</pdfrwt>
<pdfrwt beam="2">  1       21 0.10482946E-01 0.75773541E+02</pdfrwt>
<totfact> 0.16804249E+06</totfact>
</mgrwt>
</event>
<event>
 5    1  0.1855960E+000  0.7567023E+02  0.7546771E-02  0.1341808E+00
         21   -1    0    0  503  502  0.00000000000E+00  0.00000000000E+00  0.25462428552E+03  0.25462428552E+03  0.00000000000E+00 0.  1.
         21   -1    0    0  501  503 -0.00000000000E+00 -0.00000000000E+00 -0.57257927134E+02  0.57257927134E+02  0.00000000000E+00 0.  1.
         24    1    1    2    0    0  0.68866149922E+01  0.12594262334E+02  0.22333054268E+02  0.84687792373E+02  0.80419002446E+02 0.  1.
          1    1    1    2  501    0 -0.19068214930E+02  0.24247503741E+02 -0.14246598799E+02  0.33977990459E+02  0.00000000000E+00 0. -1.
         -2    1    1    2    0  502  0.12181599937E+02 -0.36841766075E+02  0.18927990292E+03  0.19321642982E+03  0.00000000000E+00 0.  1.
<mgrwt>
<rscale>  2 0.75670230E+02</rscale>
<asrwt>0</asrwt>
<pdfrwt beam="1">  1       21 0.39172966E-01 0.75670230E+02</pdfrwt>
<pdfrwt beam="2">  1       21 0.88089120E-02 0.75670230E+02</pdfrwt>
<totfact> 0.64003373E+05</totfact>
</mgrwt>
</event>
<event>
 5    1  0.1855960E+000  0.8659971E+02  0.7546771E-02  0.1311301E+00
         21   -1    0    0  503  502  0.00000000000E+00  0.00000000000E+00  0.75873958196E+03  0.75873958196E+03  0.00000000000E+00 0.  1.
         21   -1    0    0  501  503 -0.00000000000E+00 -0.00000000000E+00 -0.19579040938E+02  0.19579040938E+02  0.00000000000E+00 0. -1.
         24    1    1    2    0    0 -0.23381553358E+02  0.54484618592E+01  0.27840201321E+03  0.29077702744E+03  0.80419002446E+02 0.  1.
          1    1    1    2  501    0 -0.15660403714E+02  0.31715503539E+02  0.14808771953E+02  0.38346070672E+02  0.00000000000E+00 0. -1.
         -2    1    1    2    0  502  0.39041957071E+02 -0.37163965398E+02  0.44594975585E+03  0.44919552478E+03  0.00000000000E+00 0.  1.
<mgrwt>
<rscale>  2 0.86599715E+02</rscale>
<asrwt>0</asrwt>
<pdfrwt beam="1">  1       21 0.11672914E+00 0.86599715E+02</pdfrwt>
<pdfrwt beam="2">  1       21 0.30121607E-02 0.86599715E+02</pdfrwt>
<totfact> 0.36493086E+05</totfact>
</mgrwt>
</event>
<event>
 5    1  0.1855960E+000  0.9212051E+02  0.7546771E-02  0.1297796E+00
         21   -1    0    0  503  502  0.00000000000E+00  0.00000000000E+00  0.87731542885E+03  0.87731542885E+03  0.00000000000E+00 0.  1.
         21   -1    0    0  501  503 -0.00000000000E+00 -0.00000000000E+00 -0.37398097654E+02  0.37398097654E+02  0.00000000000E+00 0. -1.
         24    1    1    2    0    0  0.47083174099E+02  0.38308675307E+02  0.55619596077E+02  0.11508751153E+03  0.80419002446E+02 0. -1.
          1    1    1    2  501    0 -0.50381518032E+02 -0.56910465830E+01  0.80968705282E+02  0.95533327198E+02  0.00000000000E+00 0. -1.
         -2    1    1    2    0  502  0.32983439326E+01 -0.32617628724E+02  0.70332902983E+03  0.70409268778E+03  0.00000000000E+00 0.  1.
<mgrwt>
<rscale>  2 0.92120513E+02</rscale>
<asrwt>0</asrwt>
<pdfrwt beam="1">  1       21 0.13497159E+00 0.92120513E+02</pdfrwt>
<pdfrwt beam="2">  1       21 0.57535541E-02 0.92120513E+02</pdfrwt>
<totfact> 0.87912697E+04</totfact>
</mgrwt>
</event>
<event>
 5    1  0.1855960E+000  0.1109744E+03  0.7546771E-02  0.1258776E+00
         21   -1    0    0  503  502  0.00000000000E+00  0.00000000000E+00  0.15678018800E+03  0.15678018800E+03  0.00000000000E+00 0. -1.
         21   -1    0    0  501  503 -0.00000000000E+00 -0.00000000000E+00 -0.12924830596E+03  0.12924830596E+03  0.00000000000E+00 0. -1.
         24    1    1    2    0    0 -0.20261896063E+02 -0.58988548420E+01  0.86841726806E+02  0.12022496575E+03  0.80419002446E+02 0. -1.
          1    1    1    2  501    0 -0.44818035396E+02  0.44485651804E+02 -0.64116072346E+02  0.89991667649E+02  0.00000000000E+00 0. -1.
         -2    1    1    2    0  502  0.65079931459E+02 -0.38586796962E+02  0.48062275725E+01  0.75811860563E+02  0.00000000000E+00 0.  1.
<mgrwt>
<rscale>  2 0.11097441E+03</rscale>
<asrwt>0</asrwt>
<pdfrwt beam="1">  1       21 0.24120029E-01 0.11097441E+03</pdfrwt>
<pdfrwt beam="2">  1       21 0.19884355E-01 0.11097441E+03</pdfrwt>
<totfact> 0.38336155E+05</totfact>
</mgrwt>
</event>
<event>
 5    1  0.1855960E+000  0.1251956E+03  0.7546771E-02  0.1234764E+00
         21   -1    0    0  503  502  0.00000000000E+00  0.00000000000E+00  0.33452517676E+02  0.33452517676E+02  0.00000000000E+00 0.  1.
         21   -1    0    0  501  503 -0.00000000000E+00 -0.00000000000E+00 -0.12874399692E+04  0.12874399692E+04  0.00000000000E+00 0. -1.
         24    1    1    2    0    0  0.67890026240E+02 -0.18390976652E+01 -0.10030118093E+03  0.14539594490E+03  0.80419002446E+02 0.  1.
          1    1    1    2  501    0 -0.90921399155E+01 -0.59483527829E+02 -0.98296004716E+03  0.98480018857E+03  0.00000000000E+00 0. -1.
         -2    1    1    2    0  502 -0.58797886325E+02  0.61322625495E+02 -0.17072622340E+03  0.19069635337E+03  0.00000000000E+00 0.  1.
<mgrwt>
<rscale>  2 0.12519556E+03</rscale>
<asrwt>0</asrwt>
<pdfrwt beam="1">  1       21 0.51465422E-02 0.12519556E+03</pdfrwt>
<pdfrwt beam="2">  1       21 0.19806765E+00 0.12519556E+03</pdfrwt>
<totfact> 0.37264237E+04</totfact>
</mgrwt>
</event>
<event>
 5    1  0.1855960E+000  0.1036476E+03  0.7546771E-02  0.1272807E+00
         21   -1    0    0  501  502  0.00000000000E+00  0.00000000000E+00  0.10479131050E+03  0.10479131050E+03  0.00000000000E+00 0.  1.
         21   -1    0    0  502  503 -0.00000000000E+00 -0.00000000000E+00 -0.13545992058E+03  0.13545992058E+03  0.00000000000E+00 0. -1.
         24    1    1    2    0    0  0.16646134255E+02 -0.72000192185E+02 -0.14749652335E+02  0.11020839196E+03  0.80419002446E+02 0. -1.
          1    1    1    2  501    0  0.20483779789E+02  0.43979933218E+01  0.32724864090E+02  0.38856715113E+02  0.00000000000E+00 0. -1.
         -2    1    1    2    0  503 -0.37129914044E+02  0.67602198863E+02 -0.48643821840E+02  0.91186124007E+02  0.00000000000E+00 0.  1.
<mgrwt>
<rscale>  2 0.10364763E+03</rscale>
<asrwt>0</asrwt>
<pdfrwt beam="1">  1       21 0.16121740E-01 0.10364763E+03</pdfrwt>
<pdfrwt beam="2">  1       21 0.20839988E-01 0.10364763E+03</pdfrwt>
<totfact> 0.73728632E+05</totfact>
</mgrwt>
</event>
<event>
 5    1  0.1855960E+000  0.7685569E+02  0.7546771E-02  0.1338219E+00
         21   -1    0    0  503  502  0.00000000000E+00  0.00000000000E+00  0.22116191630E+04  0.22116191630E+04  0.00000000000E+00 0.  1.
         21   -1    0    0  501  503 -0.00000000000E+00 -0.00000000000E+00 -0.63420604445E+01  0.63420604445E+01  0.00000000000E+00 0. -1.
         24    1    1    2    0    0  0.15165748614E+02  0.34378107705E+02  0.50992263896E+03  0.51759073397E+03  0.80419002446E+02 0. -1.
          1    1    1    2  501    0  0.18114190821E+02 -0.24035963046E+02  0.95368048143E+02  0.10000458007E+03  0.00000000000E+00 0. -1.
         -2    1    1    2    0  502 -0.33279939435E+02 -0.10342144659E+02  0.15999864155E+04  0.16003659094E+04  0.00000000000E+00 0.  1.
<mgrwt>
<rscale>  2 0.76855688E+02</rscale>
<asrwt>0</asrwt>
<pdfrwt beam="1">  1       21 0.34024849E+00 0.76855688E+02</pdfrwt>
<pdfrwt beam="2">  1       21 0.97570337E-03 0.76855688E+02</pdfrwt>
<totfact> 0.91057208E+04</totfact>
</mgrwt>
</event>
<event>
 5    1  0.1855960E+000  0.1003674E+03  0.7546771E-02  0.1279525E+00
         21   -1    0    0  503  502  0.00000000000E+00  0.00000000000E+00  0.30012973090E+02  0.30012973090E+02  0.00000000000E+00 0. -1.
         21   -1    0    0  501  503 -0.00000000000E+00 -0.00000000000E+00 -0.41368821067E+03  0.41368821067E+03  0.00000000000E+00 0. -1.
         24    1    1    2    0    0  0.92195995778E+00 -0.47059841675E+02 -0.12451598668E+03  0.15552146348E+03  0.80419002446E+02 0. -1.
          1    1    1    2  501    0  0.79948462892E+01  0.76436623479E+02 -0.23996845174E+03  0.25197486542E+03  0.00000000000E+00 0. -1.
         -2    1    1    2    0  502 -0.89168062470E+01 -0.29376781804E+02 -0.19190799159E+02  0.36204854856E+02  0.00000000000E+00 0.  1.
<mgrwt>
<rscale>  2 0.10036741E+03</rscale>
<asrwt>0</asrwt>
<pdfrwt beam="1">  1       21 0.46173803E-02 0.10036741E+03</pdfrwt>
<pdfrwt beam="2">  1       21 0.63644343E-01 0.10036741E+03</pdfrwt>
<totfact> 0.70680825E+05</totfact>
</mgrwt>
</event>
<event>
 5    1  0.1855960E+000  0.1027316E+03  0.7546771E-02  0.1274654E+00
         21   -1    0    0  501  502  0.00000000000E+00  0.00000000000E+00  0.11952416645E+03  0.11952416645E+03  0.00000000000E+00 0. -1.
         21   -1    0    0  502  503 -0.00000000000E+00 -0.00000000000E+00 -0.95574640833E+02  0.95574640833E+02  0.00000000000E+00 0. -1.
         24    1    1    2    0    0 -0.23881606345E+02 -0.30535182513E+02 -0.76081144369E+01  0.89598146479E+02  0.80419002446E+02 0. -1.
          1    1    1    2  501    0  0.32507743937E+02  0.69262791316E+02  0.37793091077E+02  0.85337010786E+02  0.00000000000E+00 0. -1.
         -2    1    1    2    0  503 -0.86261375918E+01 -0.38727608803E+02 -0.62354510238E+01  0.40163650018E+02  0.00000000000E+00 0.  1.
<mgrwt>
<rscale>  2 0.10273161E+03</rscale>
<asrwt>0</asrwt>
<pdfrwt beam="1">  1       21 0.18388333E-01 0.10273161E+03</pdfrwt>
<pdfrwt beam="2">  1       21 0.14703791E-01 0.10273161E+03</pdfrwt>
<totfact> 0.10941480E+06</totfact>
</mgrwt>
</event>
<event>
 5    1  0.1855960E+000  0.1017664E+03  0.7546771E-02  0.1276625E+00
         21   -1    0    0  503  502  0.00000000000E+00  0.00000000000E+00  0.82583075476E+02  0.82583075476E+02  0.00000000000E+00 0.  1.
         21   -1    0    0  501  503 -0.00000000000E+00 -0.00000000000E+00 -0.28859796983E+03  0.28859796983E+03  0.00000000000E+00 0. -1.
         24    1    1    2    0    0  0.28650315061E+02 -0.15806366662E+02 -0.10619934908E+03  0.13717215271E+03  0.80419002446E+02 0.  0.
          1    1    1    2  501    0  0.39850137931E+02 -0.13682386897E+02 -0.14214311218E+03  0.14825621587E+03  0.00000000000E+00 0. -1.
         -2    1    1    2    0  502 -0.68500452992E+02  0.29488753559E+02  0.42327566899E+02  0.85752676729E+02  0.00000000000E+00 0.  1.
<mgrwt>
<rscale>  2 0.10176641E+03</rscale>
<asrwt>0</asrwt>
<pdfrwt beam="1">  1       21 0.12705089E-01 0.10176641E+03</pdfrwt>
<pdfrwt beam="2">  1       21 0.44399688E-01 0.10176641E+03</pdfrwt>
<totfact> 0.26346790E+05</totfact>
</mgrwt>
</event>
<event>
 5    1  0.1855960E+000  0.8310009E+02  0.7546771E-02  0.1320477E+00
         21   -1    0    0  503  502  0.00000000000E+00  0.00000000000E+00  0.76384377046E+02  0.76384377046E+02  0.00000000000E+00 0.  1.
         21   -1    0    0  501  503 -0.00000000000E+00 -0.00000000000E+00 -0.12925113271E+03  0.12925113271E+03  0.00000000000E+00 0.  1.
         24    1    1    2    0    0 -0.18278110618E+02  0.30948962849E+02 -0.46222882959E+02  0.99477125474E+02  0.80419002446E+02 0.  1.
          1    1    1    2  501    0 -0.50703391171E+01  0.20764257979E+02 -0.36307807208E+02  0.42132168380E+02  0.00000000000E+00 0. -1.
         -2    1    1    2    0  502  0.23348449735E+02 -0.51713220828E+02  0.29663934498E+02  0.64026215907E+02  0.00000000000E+00 0.  1.
<mgrwt>
<rscale>  2 0.83100085E+02</rscale>
<asrwt>0</asrwt>
<pdfrwt beam="1">  1       21 0.11751443E-01 0.83100085E+02</pdfrwt>
<pdfrwt beam="2">  1       21 0.19884789E-01 0.83100085E+02</pdfrwt>
<totfact> 0.14024896E+06</totfact>
</mgrwt>
</event>
<event>
 5    1  0.1855960E+000  0.2216096E+03  0.7546771E-02  0.1132689E+00
         21   -1    0    0  501  502  0.00000000000E+00  0.00000000000E+00  0.64083991885E+02  0.64083991885E+02  0.00000000000E+00 0.  1.
         21   -1    0    0  502  503 -0.00000000000E+00 -0.00000000000E+00 -0.94753004586E+03  0.94753004586E+03  0.00000000000E+00 0. -1.
         24    1    1    2    0    0 -0.12629359071E+03  0.67222973292E+02 -0.15333565980E+03  0.22460641067E+03  0.80419002446E+02 0.  1.
          1    1    1    2  501    0  0.12699767001E+03 -0.14987262257E+03 -0.38602573745E+03  0.43313517654E+03  0.00000000000E+00 0. -1.
         -2    1    1    2    0  503 -0.70407930310E+00  0.82649649274E+02 -0.34408465673E+03  0.35387245054E+03  0.00000000000E+00 0.  1.
<mgrwt>
<rscale>  2 0.22160956E+03</rscale>
<asrwt>0</asrwt>
<pdfrwt beam="1">  1       21 0.98590757E-02 0.22160956E+03</pdfrwt>
<pdfrwt beam="2">  1       21 0.14577385E+00 0.22160956E+03</pdfrwt>
<totfact> 0.26332050E+04</totfact>
</mgrwt>
</event>
<event>
 5    1  0.1855960E+000  0.2041636E+03  0.7546771E-02  0.1146273E+00
         21   -1    0    0  503  502  0.00000000000E+00  0.00000000000E+00  0.75721066140E+03  0.75721066140E+03  0.00000000000E+00 0.  1.
         21   -1    0    0  501  503 -0.00000000000E+00 -0.00000000000E+00 -0.17479459354E+03  0.17479459354E+03  0.00000000000E+00 0.  1.
         24    1    1    2    0    0 -0.11069545340E+03  0.15096960524E+03 -0.66282807406E+02  0.21425669563E+03  0.80419002446E+02 0.  1.
          1    1    1    2  501    0  0.92178358618E+02 -0.15947915381E+03  0.21311641020E+03  0.28168964232E+03  0.00000000000E+00 0. -1.
         -2    1    1    2    0  502  0.18517094783E+02  0.85095485627E+01  0.43558246506E+03  0.43605891699E+03  0.00000000000E+00 0.  1.
<mgrwt>
<rscale>  2 0.20416361E+03</rscale>
<asrwt>0</asrwt>
<pdfrwt beam="1">  1       21 0.11649395E+00 0.20416361E+03</pdfrwt>
<pdfrwt beam="2">  1       21 0.26891476E-01 0.20416361E+03</pdfrwt>
<totfact> 0.74175965E+03</totfact>
</mgrwt>
</event>
<event>
 5    1  0.1855960E+000  0.1047636E+03  0.7546771E-02  0.1270586E+00
         21   -1    0    0  501  502  0.00000000000E+00  0.00000000000E+00  0.11335615726E+03  0.11335615726E+03  0.00000000000E+00 0. -1.
         21   -1    0    0  502  503 -0.00000000000E+00 -0.00000000000E+00 -0.16575603033E+03  0.16575603033E+03  0.00000000000E+00 0.  1.
         24    1    1    2    0    0  0.91954574863E+01 -0.15379457605E+02  0.10020705334E+02  0.82998280972E+02  0.80419002446E+02 0.  0.
          1    1    1    2  501    0  0.57894979791E+02  0.15917967599E+02  0.41093003393E+02  0.72758815998E+02  0.00000000000E+00 0. -1.
         -2    1    1    2    0  503 -0.67090437278E+02 -0.53850999348E+00 -0.10351358180E+03  0.12335509063E+03  0.00000000000E+00 0.  1.
<mgrwt>
<rscale>  2 0.10476357E+03</rscale>
<asrwt>0</asrwt>
<pdfrwt beam="1">  1       21 0.17439409E-01 0.10476357E+03</pdfrwt>
<pdfrwt beam="2">  1       21 0.25500928E-01 0.10476357E+03</pdfrwt>
<totfact> 0.43909391E+05</totfact>
</mgrwt>
</event>
<event>
 5    1  0.1855960E+000  0.7212209E+02  0.7546771E-02  0.1353022E+00
         21   -1    0    0  501  502  0.00000000000E+00  0.00000000000E+00  0.57289842004E+01  0.57289842004E+01  0.00000000000E+00 0. -1.
         21   -1    0    0  502  503 -0.00000000000E+00 -0.00000000000E+00 -0.93031879903E+03  0.93031879903E+03  0.00000000000E+00 0. -1.
         24    1    1    2    0    0 -0.30489932054E+01 -0.34722644089E+00 -0.58221405752E+03  0.58774981213E+03  0.80419002446E+02 0. -1.
          1    1    1    2  501    0 -0.16811052032E+02  0.26222414540E+02 -0.18063811650E+03  0.18330399785E+03  0.00000000000E+00 0. -1.
         -2    1    1    2    0  503  0.19860045238E+02 -0.25875188099E+02 -0.16173764081E+03  0.16499397326E+03  0.00000000000E+00 0.  1.
<mgrwt>
<rscale>  2 0.72122093E+02</rscale>
<asrwt>0</asrwt>
<pdfrwt beam="1">  1       21 0.88138308E-03 0.72122093E+02</pdfrwt>
<pdfrwt beam="2">  1       21 0.14312582E+00 0.72122093E+02</pdfrwt>
<totfact> 0.15554538E+06</totfact>
</mgrwt>
</event>
<event>
 5    1  0.1855960E+000  0.6611485E+02  0.7546771E-02  0.1373826E+00
         21   -1    0    0  503  502  0.00000000000E+00  0.00000000000E+00  0.49486820533E+03  0.49486820533E+03  0.00000000000E+00 0. -1.
         21   -1    0    0  501  503 -0.00000000000E+00 -0.00000000000E+00 -0.99324468677E+01  0.99324468677E+01  0.00000000000E+00 0. -1.
         24    1    1    2    0    0 -0.27699736158E+02  0.27066419399E+02  0.31846726831E+03  0.33073929821E+03  0.80419002446E+02 0. -1.
          1    1    1    2  501    0  0.68165130257E+01 -0.19668683809E+02  0.34868637942E+02  0.40609652603E+02  0.00000000000E+00 0. -1.
         -2    1    1    2    0  502  0.20883223132E+02 -0.73977355900E+01  0.13159985222E+03  0.13345170139E+03  0.00000000000E+00 0.  1.
<mgrwt>
<rscale>  2 0.66114855E+02</rscale>
<asrwt>0</asrwt>
<pdfrwt beam="1">  1       21 0.76133551E-01 0.66114855E+02</pdfrwt>
<pdfrwt beam="2">  1       21 0.15280691E-02 0.66114855E+02</pdfrwt>
<totfact> 0.28356026E+06</totfact>
</mgrwt>
</event>
<event>
 5    1  0.1855960E+000  0.6929066E+02  0.7546771E-02  0.1362522E+00
         21   -1    0    0  501  502  0.00000000000E+00  0.00000000000E+00  0.16504961346E+02  0.16504961346E+02  0.00000000000E+00 0. -1.
         21   -1    0    0  502  503 -0.00000000000E+00 -0.00000000000E+00 -0.70498117390E+03  0.70498117390E+03  0.00000000000E+00 0.  1.
         24    1    1    2    0    0 -0.37233597247E+02 -0.16784945973E+02 -0.65166754586E+03  0.65787983816E+03  0.80419002446E+02 0.  1.
          1    1    1    2  501    0  0.11095554999E+02  0.19158842441E+02 -0.56161653643E+01  0.22841057283E+02  0.00000000000E+00 0. -1.
         -2    1    1    2    0  503  0.26138042248E+02 -0.23738964676E+01 -0.31192501330E+02  0.40765239803E+02  0.00000000000E+00 0.  1.
<mgrwt>
<rscale>  2 0.69290656E+02</rscale>
<asrwt>0</asrwt>
<pdfrwt beam="1">  1       21 0.25392245E-02 0.69290656E+02</pdfrwt>
<pdfrwt beam="2">  1       21 0.10845866E+00 0.69290656E+02</pdfrwt>
<totfact> 0.57286285E+05</totfact>
</mgrwt>
</event>
<event>
 5    1  0.1855960E+000  0.1600668E+03  0.7546771E-02  0.1188621E+00
         21   -1    0    0  501  502  0.00000000000E+00  0.00000000000E+00  0.24552722576E+03  0.24552722576E+03  0.00000000000E+00 0. -1.
         21   -1    0    0  502  503 -0.00000000000E+00 -0.00000000000E+00 -0.31333710670E+03  0.31333710670E+03  0.00000000000E+00 0.  1.
         24    1    1    2    0    0  0.27512144409E+02 -0.11658600321E+03 -0.16778448858E+01  0.14428875685E+03  0.80419002446E+02 0. -1.
          1    1    1    2  501    0 -0.50531849650E+02  0.13641420062E+03  0.14256195970E+03  0.20368164942E+03  0.00000000000E+00 0. -1.
         -2    1    1    2    0  503  0.23019705241E+02 -0.19828197408E+02 -0.20869399575E+03  0.21089392619E+03  0.00000000000E+00 0.  1.
<mgrwt>
<rscale>  2 0.16006683E+03</rscale>
<asrwt>0</asrwt>
<pdfrwt beam="1">  1       21 0.37773420E-01 0.16006683E+03</pdfrwt>
<pdfrwt beam="2">  1       21 0.48205708E-01 0.16006683E+03</pdfrwt>
<totfact> 0.28316349E+04</totfact>
</mgrwt>
</event>
<event>
 5    1  0.1855960E+000  0.7696483E+02  0.7546771E-02  0.1337892E+00
         21   -1    0    0  503  502  0.00000000000E+00  0.00000000000E+00  0.18740986028E+03  0.18740986028E+03  0.00000000000E+00 0. -1.
         21   -1    0    0  501  503 -0.00000000000E+00 -0.00000000000E+00 -0.40380897750E+02  0.40380897750E+02  0.00000000000E+00 0. -1.
         24    1    1    2    0    0  0.48002560409E+02  0.70994848475E+01  0.97767809602E+02  0.13557436719E+03  0.80419002446E+02 0. -1.
          1    1    1    2  501    0 -0.29486775981E+02 -0.21546184551E+02 -0.12193739148E+01  0.36540318816E+02  0.00000000000E+00 0. -1.
         -2    1    1    2    0  502 -0.18515784428E+02  0.14446699704E+02  0.50480526844E+02  0.55676072022E+02  0.00000000000E+00 0.  1.
<mgrwt>
<rscale>  2 0.76964833E+02</rscale>
<asrwt>0</asrwt>
<pdfrwt beam="1">  1       21 0.28832286E-01 0.76964833E+02</pdfrwt>
<pdfrwt beam="2">  1       21 0.62124459E-02 0.76964833E+02</pdfrwt>
<totfact> 0.20865440E+06</totfact>
</mgrwt>
</event>
<event>
 5    1  0.1855960E+000  0.8266159E+02  0.7546771E-02  0.1321664E+00
         21   -1    0    0  501  502  0.00000000000E+00  0.00000000000E+00  0.49928521377E+03  0.49928521377E+03  0.00000000000E+00 0.  1.
         21   -1    0    0  502  503 -0.00000000000E+00 -0.00000000000E+00 -0.15949465981E+02  0.15949465981E+02  0.00000000000E+00 0.  1.
         24    1    1    2    0    0  0.53142388183E+02 -0.84268313096E+01  0.37157169893E+03  0.38396336845E+03  0.80419002446E+02 0.  1.
          1    1    1    2  501    0 -0.24183618405E+02 -0.17374969445E+02  0.54574339345E+02  0.62169892048E+02  0.00000000000E+00 0. -1.
         -2    1    1    2    0  503 -0.28958769778E+02  0.25801800755E+02  0.57189709517E+02  0.69101419261E+02  0.00000000000E+00 0.  1.
<mgrwt>
<rscale>  2 0.82661592E+02</rscale>
<asrwt>0</asrwt>
<pdfrwt beam="1">  1       21 0.76813098E-01 0.82661592E+02</pdfrwt>
<pdfrwt beam="2">  1       21 0.24537644E-02 0.82661592E+02</pdfrwt>
<totfact> 0.13207619E+06</totfact>
</mgrwt>
</event>
<event>
 5    1  0.1855960E+000  0.9253483E+02  0.7546771E-02  0.1296827E+00
         21   -1    0    0  501  502  0.00000000000E+00  0.00000000000E+00  0.51815949916E+03  0.51815949916E+03  0.00000000000E+00 0.  1.
         21   -1    0    0  502  503 -0.00000000000E+00 -0.00000000000E+00 -0.19677602796E+02  0.19677602796E+02  0.00000000000E+00 0.  1.
         24    1    1    2    0    0  0.36210511328E+01  0.73040505017E+02  0.18819218146E+03  0.21732818616E+03  0.80419002446E+02 0.  1.
          1    1    1    2  501    0 -0.12958964098E+02 -0.41164710847E+02  0.22247957820E+03  0.22662663322E+03  0.00000000000E+00 0. -1.
         -2    1    1    2    0  503  0.93379129648E+01 -0.31875794170E+02  0.87810136704E+02  0.93882282569E+02  0.00000000000E+00 0.  1.
<mgrwt>
<rscale>  2 0.92534835E+02</rscale>
<asrwt>0</asrwt>
<pdfrwt beam="1">  1       21 0.79716836E-01 0.92534835E+02</pdfrwt>
<pdfrwt beam="2">  1       21 0.30273239E-02 0.92534835E+02</pdfrwt>
<totfact> 0.86809527E+05</totfact>
</mgrwt>
</event>
<event>
 5    1  0.1855960E+000  0.8455229E+02  0.7546771E-02  0.1316608E+00
         21   -1    0    0  503  502  0.00000000000E+00  0.00000000000E+00  0.43370652878E+02  0.43370652878E+02  0.00000000000E+00 0.  1.
         21   -1    0    0  501  503 -0.00000000000E+00 -0.00000000000E+00 -0.28053530801E+03  0.28053530801E+03  0.00000000000E+00 0.  1.
         24    1    1    2    0    0 -0.48127596522E+02 -0.43360480454E+02 -0.15160268820E+03  0.18343115285E+03  0.80419002446E+02 0.  1.
          1    1    1    2  501    0  0.17086059253E+02  0.23250787287E+02 -0.97444631471E+02  0.10162671269E+03  0.00000000000E+00 0. -1.
         -2    1    1    2    0  502  0.31041537268E+02  0.20109693167E+02  0.11882664540E+02  0.38848095344E+02  0.00000000000E+00 0.  1.
<mgrwt>
<rscale>  2 0.84552290E+02</rscale>
<asrwt>0</asrwt>
<pdfrwt beam="1">  1       21 0.66724080E-02 0.84552290E+02</pdfrwt>
<pdfrwt beam="2">  1       21 0.43159279E-01 0.84552290E+02</pdfrwt>
<totfact> 0.84787805E+05</totfact>
</mgrwt>
</event>
<event>
 5    1  0.1855960E+000  0.9299279E+02  0.7546771E-02  0.1295762E+00
         21   -1    0    0  501  502  0.00000000000E+00  0.00000000000E+00  0.49346180923E+03  0.49346180923E+03  0.00000000000E+00 0.  1.
         21   -1    0    0  502  503 -0.00000000000E+00 -0.00000000000E+00 -0.27777035828E+02  0.27777035828E+02  0.00000000000E+00 0.  1.
         24    1    1    2    0    0  0.18697310339E+02  0.73211680616E+02  0.34137015627E+03  0.35876223204E+03  0.80419002446E+02 0.  1.
          1    1    1    2  501    0 -0.71057145446E+01 -0.21556694629E+02  0.10289370256E+03  0.10536743467E+03  0.00000000000E+00 0. -1.
         -2    1    1    2    0  503 -0.11591595795E+02 -0.51654985988E+02  0.21420914572E+02  0.57109178348E+02  0.00000000000E+00 0.  1.
<mgrwt>
<rscale>  2 0.92992789E+02</rscale>
<asrwt>0</asrwt>
<pdfrwt beam="1">  1       21 0.75917195E-01 0.92992789E+02</pdfrwt>
<pdfrwt beam="2">  1       21 0.42733905E-02 0.92992789E+02</pdfrwt>
<totfact> 0.54922243E+05</totfact>
</mgrwt>
</event>
<event>
 5    1  0.1855960E+000  0.7925228E+02  0.7546771E-02  0.1331187E+00
         21   -1    0    0  501  502  0.00000000000E+00  0.00000000000E+00  0.89957248912E+02  0.89957248912E+02  0.00000000000E+00 0. -1.
         21   -1    0    0  502  503 -0.00000000000E+00 -0.00000000000E+00 -0.79143916149E+02  0.79143916149E+02  0.00000000000E+00 0.  1.
         24    1    1    2    0    0  0.17815378216E+02 -0.71472520867E+01  0.32216987322E+02  0.88733427409E+02  0.80419002446E+02 0. -1.
          1    1    1    2  501    0 -0.37160947052E+02 -0.20224693230E+02 -0.37216437073E+01  0.42471459051E+02  0.00000000000E+00 0. -1.
         -2    1    1    2    0  503  0.19345568837E+02  0.27371945316E+02 -0.17682010852E+02  0.37896278601E+02  0.00000000000E+00 0.  1.
<mgrwt>
<rscale>  2 0.79252285E+02</rscale>
<asrwt>0</asrwt>
<pdfrwt beam="1">  1       21 0.13839577E-01 0.79252285E+02</pdfrwt>
<pdfrwt beam="2">  1       21 0.12175987E-01 0.79252285E+02</pdfrwt>
<totfact> 0.25214417E+06</totfact>
</mgrwt>
</event>
<event>
 5    1  0.1855960E+000  0.7211447E+02  0.7546771E-02  0.1353047E+00
         21   -1    0    0  503  502  0.00000000000E+00  0.00000000000E+00  0.11468449867E+03  0.11468449867E+03  0.00000000000E+00 0.  1.
         21   -1    0    0  501  503 -0.00000000000E+00 -0.00000000000E+00 -0.20720623980E+03  0.20720623980E+03  0.00000000000E+00 0.  1.
         24    1    1    2    0    0 -0.16119123935E+02  0.13755719729E+02 -0.17672308607E+03  0.19531336638E+03  0.80419002446E+02 0.  1.
          1    1    1    2  501    0  0.47918199157E+01  0.22539463975E+02 -0.99038580114E+01  0.25081375120E+02  0.00000000000E+00 0. -1.
         -2    1    1    2    0  502  0.11327304019E+02 -0.36295183704E+02  0.94105202960E+02  0.10149599697E+03  0.00000000000E+00 0.  1.
<mgrwt>
<rscale>  2 0.72114472E+02</rscale>
<asrwt>0</asrwt>
<pdfrwt beam="1">  1       21 0.17643769E-01 0.72114472E+02</pdfrwt>
<pdfrwt beam="2">  1       21 0.31877883E-01 0.72114472E+02</pdfrwt>
<totfact> 0.28258336E+05</totfact>
</mgrwt>
</event>
<event>
 5    1  0.1855960E+000  0.6805160E+02  0.7546771E-02  0.1366847E+00
         21   -1    0    0  503  502  0.00000000000E+00  0.00000000000E+00  0.16875539460E+03  0.16875539460E+03  0.00000000000E+00 0.  1.
         21   -1    0    0  501  503 -0.00000000000E+00 -0.00000000000E+00 -0.14607740318E+03  0.14607740318E+03  0.00000000000E+00 0. -1.
         24    1    1    2    0    0 -0.81260048865E+01 -0.23811813525E+02  0.12386285017E+03  0.14980739643E+03  0.80419002446E+02 0.  1.
          1    1    1    2  501    0  0.26751320245E+02  0.96359963001E+01 -0.12702028108E+03  0.13016388657E+03  0.00000000000E+00 0. -1.
         -2    1    1    2    0  502 -0.18625315359E+02  0.14175817225E+02  0.25835422333E+02  0.34861514789E+02  0.00000000000E+00 0.  1.
<mgrwt>
<rscale>  2 0.68051596E+02</rscale>
<asrwt>0</asrwt>
<pdfrwt beam="1">  1       21 0.25962369E-01 0.68051596E+02</pdfrwt>
<pdfrwt beam="2">  1       21 0.22473446E-01 0.68051596E+02</pdfrwt>
<totfact> 0.26834278E+05</totfact>
</mgrwt>
</event>
<event>
 5    1  0.1855960E+000  0.6335407E+02  0.7546771E-02  0.1384272E+00
         21   -1    0    0  501  502  0.00000000000E+00  0.00000000000E+00  0.31208912797E+01  0.31208912797E+01  0.00000000000E+00 0.  1.
         21   -1    0    0  502  503 -0.00000000000E+00 -0.00000000000E+00 -0.13944930089E+04  0.13944930089E+04  0.00000000000E+00 0. -1.
         24    1    1    2    0    0  0.46711027241E+01  0.60084359902E+01 -0.79656367242E+03  0.80064899967E+03  0.80419002446E+02 0.  1.
          1    1    1    2  501    0  0.18403315842E+02 -0.12149697499E+02 -0.16144183052E+03  0.16294097651E+03  0.00000000000E+00 0. -1.
         -2    1    1    2    0  503 -0.23074418566E+02  0.61412615089E+01 -0.43336661473E+03  0.43402392405E+03  0.00000000000E+00 0.  1.
<mgrwt>
<rscale>  2 0.63354075E+02</rscale>
<asrwt>0</asrwt>
<pdfrwt beam="1">  1       21 0.48013686E-03 0.63354075E+02</pdfrwt>
<pdfrwt beam="2">  1       21 0.21453750E+00 0.63354075E+02</pdfrwt>
<totfact> 0.13462573E+06</totfact>
</mgrwt>
</event>
<event>
 5    1  0.1855960E+000  0.1061645E+03  0.7546771E-02  0.1267842E+00
         21   -1    0    0  501  502  0.00000000000E+00  0.00000000000E+00  0.16927237975E+03  0.16927237975E+03  0.00000000000E+00 0. -1.
         21   -1    0    0  502  503 -0.00000000000E+00 -0.00000000000E+00 -0.12816526063E+03  0.12816526063E+03  0.00000000000E+00 0.  1.
         24    1    1    2    0    0  0.36812896842E+02  0.52811452149E+02  0.53052948704E+02  0.11587092031E+03  0.80419002446E+02 0. -1.
          1    1    1    2  501    0 -0.42387572145E+02  0.12167566875E+02  0.66348925748E+02  0.79667659084E+02  0.00000000000E+00 0. -1.
         -2    1    1    2    0  503  0.55746753028E+01 -0.64979019023E+02 -0.78294755338E+02  0.10189906099E+03  0.00000000000E+00 0.  1.
<mgrwt>
<rscale>  2 0.10616451E+03</rscale>
<asrwt>0</asrwt>
<pdfrwt beam="1">  1       21 0.26041905E-01 0.10616451E+03</pdfrwt>
<pdfrwt beam="2">  1       21 0.19717732E-01 0.10616451E+03</pdfrwt>
<totfact> 0.33724718E+05</totfact>
</mgrwt>
</event>
<event>
 5    1  0.1855960E+000  0.7851260E+02  0.7546771E-02  0.1333326E+00
         21   -1    0    0  501  502  0.00000000000E+00  0.00000000000E+00  0.56648914204E+03  0.56648914204E+03  0.00000000000E+00 0.  1.
         21   -1    0    0  502  503 -0.00000000000E+00 -0.00000000000E+00 -0.18148551791E+02  0.18148551791E+02  0.00000000000E+00 0. -1.
         24    1    1    2    0    0 -0.56993334266E+02 -0.84844198546E+01  0.39355936202E+03  0.40580341659E+03  0.80419002446E+02 0.  1.
          1    1    1    2  501    0  0.25913825518E+02  0.14273281267E+00  0.14177805125E+03  0.14412689735E+03  0.00000000000E+00 0. -1.
         -2    1    1    2    0  503  0.31079508749E+02  0.83416870419E+01  0.13003176984E+02  0.34707379884E+02  0.00000000000E+00 0.  1.
<mgrwt>
<rscale>  2 0.78512604E+02</rscale>
<asrwt>0</asrwt>
<pdfrwt beam="1">  1       21 0.87152162E-01 0.78512604E+02</pdfrwt>
<pdfrwt beam="2">  1       21 0.27920853E-02 0.78512604E+02</pdfrwt>
<totfact> 0.81065991E+05</totfact>
</mgrwt>
</event>
<event>
 5    1  0.1855960E+000  0.1804471E+03  0.7546771E-02  0.1167371E+00
         21   -1    0    0  503  502  0.00000000000E+00  0.00000000000E+00  0.11507753077E+04  0.11507753077E+04  0.00000000000E+00 0.  1.
         21   -1    0    0  501  503 -0.00000000000E+00 -0.00000000000E+00 -0.35402594675E+02  0.35402594675E+02  0.00000000000E+00 0.  1.
         24    1    1    2    0    0 -0.11116431292E+03 -0.11621808026E+03  0.67623712392E+03  0.69973424267E+03  0.80419002446E+02 0.  1.
          1    1    1    2  501    0  0.46273178263E+02 -0.19038426111E+01  0.28787602998E+02  0.54530337699E+02  0.00000000000E+00 0. -1.
         -2    1    1    2    0  502  0.64891134662E+02  0.11812192287E+03  0.41034798612E+03  0.43191332201E+03  0.00000000000E+00 0.  1.
<mgrwt>
<rscale>  2 0.18044707E+03</rscale>
<asrwt>0</asrwt>
<pdfrwt beam="1">  1       21 0.17704233E+00 0.18044707E+03</pdfrwt>
<pdfrwt beam="2">  1       21 0.54465539E-02 0.18044707E+03</pdfrwt>
<totfact> 0.44681553E+04</totfact>
</mgrwt>
</event>
<event>
 5    1  0.1855960E+000  0.8758462E+02  0.7546771E-02  0.1308809E+00
         21   -1    0    0  503  502  0.00000000000E+00  0.00000000000E+00  0.28291140177E+02  0.28291140177E+02  0.00000000000E+00 0.  1.
         21   -1    0    0  501  503 -0.00000000000E+00 -0.00000000000E+00 -0.40017870209E+03  0.40017870209E+03  0.00000000000E+00 0. -1.
         24    1    1    2    0    0  0.15033674719E+02  0.24717371341E+02 -0.61611252390E+02  0.10535711745E+03  0.80419002446E+02 0.  1.
          1    1    1    2  501    0 -0.43777297845E+02 -0.38066081445E+02 -0.21584985865E+03  0.22350982046E+03  0.00000000000E+00 0. -1.
         -2    1    1    2    0  502  0.28743623126E+02  0.13348710104E+02 -0.94426450869E+02  0.99602904353E+02  0.00000000000E+00 0.  1.
<mgrwt>
<rscale>  2 0.87584615E+02</rscale>
<asrwt>0</asrwt>
<pdfrwt beam="1">  1       21 0.43524829E-02 0.87584615E+02</pdfrwt>
<pdfrwt beam="2">  1       21 0.61565957E-01 0.87584615E+02</pdfrwt>
<totfact> 0.83562339E+05</totfact>
</mgrwt>
</event>
<event>
 5    1  0.1855960E+000  0.8083255E+02  0.7546771E-02  0.1326705E+00
         21   -1    0    0  503  502  0.00000000000E+00  0.00000000000E+00  0.43593602413E+02  0.43593602413E+02  0.00000000000E+00 0. -1.
         21   -1    0    0  501  503 -0.00000000000E+00 -0.00000000000E+00 -0.88288217272E+03  0.88288217272E+03  0.00000000000E+00 0. -1.
         24    1    1    2    0    0 -0.19984583667E+00  0.36745372675E+02 -0.38788409563E+02  0.96550603427E+02  0.80419002446E+02 0. -1.
          1    1    1    2  501    0 -0.21910656531E+02  0.80104854481E+01 -0.77217906877E+03  0.77253139676E+03  0.00000000000E+00 0. -1.
         -2    1    1    2    0  502  0.22110502367E+02 -0.44755858123E+02 -0.28321091981E+02  0.57393774943E+02  0.00000000000E+00 0.  1.
<mgrwt>
<rscale>  2 0.80832553E+02</rscale>
<asrwt>0</asrwt>
<pdfrwt beam="1">  1       21 0.67067084E-02 0.80832553E+02</pdfrwt>
<pdfrwt beam="2">  1       21 0.13582802E+00 0.80832553E+02</pdfrwt>
<totfact> 0.67479667E+04</totfact>
</mgrwt>
</event>
<event>
 5    1  0.1855960E+000  0.1237023E+03  0.7546771E-02  0.1237111E+00
         21   -1    0    0  503  502  0.00000000000E+00  0.00000000000E+00  0.12068647569E+03  0.12068647569E+03  0.00000000000E+00 0.  1.
         21   -1    0    0  501  503 -0.00000000000E+00 -0.00000000000E+00 -0.27057967390E+03  0.27057967390E+03  0.00000000000E+00 0.  1.
         24    1    1    2    0    0 -0.19213923133E+02 -0.18348619466E+02  0.69279387894E+02  0.10941981639E+03  0.80419002446E+02 0.  1.
          1    1    1    2  501    0 -0.70760290111E+02 -0.60024324047E+00 -0.15297187338E+03  0.16854605601E+03  0.00000000000E+00 0. -1.
         -2    1    1    2    0  502  0.89974213244E+02  0.18948862706E+02 -0.66200712721E+02  0.11330027719E+03  0.00000000000E+00 0.  1.
<mgrwt>
<rscale>  2 0.12370234E+03</rscale>
<asrwt>0</asrwt>
<pdfrwt beam="1">  1       21 0.18567150E-01 0.12370234E+03</pdfrwt>
<pdfrwt beam="2">  1       21 0.41627642E-01 0.12370234E+03</pdfrwt>
<totfact> 0.15057876E+05</totfact>
</mgrwt>
</event>
<event>
 5    1  0.1855960E+000  0.8368392E+02  0.7546771E-02  0.1318911E+00
         21   -1    0    0  503  502  0.00000000000E+00  0.00000000000E+00  0.55624131441E+02  0.55624131441E+02  0.00000000000E+00 0. -1.
         21   -1    0    0  501  503 -0.00000000000E+00 -0.00000000000E+00 -0.12803195416E+03  0.12803195416E+03  0.00000000000E+00 0.  1.
         24    1    1    2    0    0 -0.10336738350E+02 -0.50192172539E+02 -0.42441295288E+02  0.10437711360E+03  0.80419002446E+02 0.  0.
          1    1    1    2  501    0  0.30805435623E+02  0.25929599767E+02 -0.24311578629E+02  0.47035857209E+02  0.00000000000E+00 0. -1.
         -2    1    1    2    0  502 -0.20468697273E+02  0.24262572772E+02 -0.56549488064E+01  0.32243114793E+02  0.00000000000E+00 0.  1.
<mgrwt>
<rscale>  2 0.83683922E+02</rscale>
<asrwt>0</asrwt>
<pdfrwt beam="1">  1       21 0.85575587E-02 0.83683922E+02</pdfrwt>
<pdfrwt beam="2">  1       21 0.19697224E-01 0.83683922E+02</pdfrwt>
<totfact> 0.24702461E+06</totfact>
</mgrwt>
</event>
<event>
 5    1  0.1855960E+000  0.6851437E+02  0.7546771E-02  0.1365219E+00
         21   -1    0    0  503  502  0.00000000000E+00  0.00000000000E+00  0.21153938561E+02  0.21153938561E+02  0.00000000000E+00 0. -1.
         21   -1    0    0  501  503 -0.00000000000E+00 -0.00000000000E+00 -0.30341425701E+03  0.30341425701E+03  0.00000000000E+00 0. -1.
         24    1    1    2    0    0  0.12540548077E+02  0.58866149657E+01 -0.94360288484E+02  0.12475174379E+03  0.80419002446E+02 0. -1.
          1    1    1    2  501    0 -0.33053857314E+02  0.27497294914E+01 -0.16333205801E+03  0.16666577234E+03  0.00000000000E+00 0. -1.
         -2    1    1    2    0  502  0.20513309237E+02 -0.86363444571E+01 -0.24567971957E+02  0.33150679443E+02  0.00000000000E+00 0.  1.
<mgrwt>
<rscale>  2 0.68514367E+02</rscale>
<asrwt>0</asrwt>
<pdfrwt beam="1">  1       21 0.32544523E-02 0.68514367E+02</pdfrwt>
<pdfrwt beam="2">  1       21 0.46679113E-01 0.68514367E+02</pdfrwt>
<totfact> 0.23560089E+06</totfact>
</mgrwt>
</event>
<event>
 5    1  0.1855960E+000  0.8225761E+02  0.7546771E-02  0.1322764E+00
         21   -1    0    0  501  502  0.00000000000E+00  0.00000000000E+00  0.23373271106E+02  0.23373271106E+02  0.00000000000E+00 0.  1.
         21   -1    0    0  502  503 -0.00000000000E+00 -0.00000000000E+00 -0.35531797238E+03  0.35531797238E+03  0.00000000000E+00 0.  1.
         24    1    1    2    0    0 -0.78932307158E+00  0.38078416210E+02 -0.25730439716E+03  0.27225605147E+03  0.80419002446E+02 0.  1.
          1    1    1    2  501    0  0.23291096645E+02  0.76938385356E+01 -0.19616762790E+02  0.31408402007E+02  0.00000000000E+00 0. -1.
         -2    1    1    2    0  503 -0.22501773573E+02 -0.45772254745E+02 -0.55023541323E+02  0.75026790003E+02  0.00000000000E+00 0.  1.
<mgrwt>
<rscale>  2 0.82257612E+02</rscale>
<asrwt>0</asrwt>
<pdfrwt beam="1">  1       21 0.35958881E-02 0.82257612E+02</pdfrwt>
<pdfrwt beam="2">  1       21 0.54664300E-01 0.82257612E+02</pdfrwt>
<totfact> 0.14635210E+06</totfact>
</mgrwt>
</event>
<event>
 5    1  0.1855960E+000  0.7972519E+02  0.7546771E-02  0.1329833E+00
         21   -1    0    0  501  502  0.00000000000E+00  0.00000000000E+00  0.21581613314E+03  0.21581613314E+03  0.00000000000E+00 0. -1.
         21   -1    0    0  502  503 -0.00000000000E+00 -0.00000000000E+00 -0.46981854436E+02  0.46981854436E+02  0.00000000000E+00 0.  1.
         24    1    1    2    0    0  0.16465003230E+02 -0.11324979963E+02  0.12974021239E+03  0.15394508816E+03  0.80419002446E+02 0.  1.
          1    1    1    2  501    0  0.25615003772E+02 -0.12204575449E+02  0.51740791370E+02  0.59010080255E+02  0.00000000000E+00 0. -1.
         -2    1    1    2    0  503 -0.42080007003E+02  0.23529555412E+02 -0.12646725058E+02  0.49842819161E+02  0.00000000000E+00 0.  1.
<mgrwt>
<rscale>  2 0.79725188E+02</rscale>
<asrwt>0</asrwt>
<pdfrwt beam="1">  1       21 0.33202481E-01 0.79725188E+02</pdfrwt>
<pdfrwt beam="2">  1       21 0.72279777E-02 0.79725188E+02</pdfrwt>
<totfact> 0.12366870E+06</totfact>
</mgrwt>
</event>
<event>
 5    1  0.1855960E+000  0.6418185E+02  0.7546771E-02  0.1381076E+00
         21   -1    0    0  501  502  0.00000000000E+00  0.00000000000E+00  0.27162933774E+03  0.27162933774E+03  0.00000000000E+00 0. -1.
         21   -1    0    0  502  503 -0.00000000000E+00 -0.00000000000E+00 -0.17717848772E+02  0.17717848772E+02  0.00000000000E+00 0. -1.
         24    1    1    2    0    0  0.53841987047E+01  0.25175903573E+02  0.21356226113E+03  0.22964945254E+03  0.80419002446E+02 0. -1.
          1    1    1    2  501    0  0.14819170285E+02 -0.15764585004E+02  0.18156778918E+02  0.28245328268E+02  0.00000000000E+00 0. -1.
         -2    1    1    2    0  503 -0.20203368989E+02 -0.94113185696E+01  0.22192448915E+02  0.31452405704E+02  0.00000000000E+00 0.  1.
<mgrwt>
<rscale>  2 0.64181847E+02</rscale>
<asrwt>0</asrwt>
<pdfrwt beam="1">  1       21 0.41789126E-01 0.64181847E+02</pdfrwt>
<pdfrwt beam="2">  1       21 0.27258231E-02 0.64181847E+02</pdfrwt>
<totfact> 0.38910776E+06</totfact>
</mgrwt>
</event>
<event>
 5    1  0.1855960E+000  0.9622438E+02  0.7546771E-02  0.1288442E+00
         21   -1    0    0  503  502  0.00000000000E+00  0.00000000000E+00  0.41461430499E+02  0.41461430499E+02  0.00000000000E+00 0.  1.
         21   -1    0    0  501  503 -0.00000000000E+00 -0.00000000000E+00 -0.50380767804E+03  0.50380767804E+03  0.00000000000E+00 0. -1.
         24    1    1    2    0    0 -0.13086299043E+01 -0.66533296901E+02 -0.10832448842E+03  0.15043205394E+03  0.80419002446E+02 0.  0.
          1    1    1    2  501    0 -0.23766475195E+02  0.56064606477E+02 -0.36154889877E+03  0.36664109378E+03  0.00000000000E+00 0. -1.
         -2    1    1    2    0  502  0.25075105100E+02  0.10468690424E+02  0.75271396503E+01  0.28195960815E+02  0.00000000000E+00 0.  1.
<mgrwt>
<rscale>  2 0.96224379E+02</rscale>
<asrwt>0</asrwt>
<pdfrwt beam="1">  1       21 0.63786818E-02 0.96224379E+02</pdfrwt>
<pdfrwt beam="2">  1       21 0.77508872E-01 0.96224379E+02</pdfrwt>
<totfact> 0.26864781E+05</totfact>
</mgrwt>
</event>
<event>
 5    1  0.1855960E+000  0.9021375E+02  0.7546771E-02  0.1302335E+00
         21   -1    0    0  503  502  0.00000000000E+00  0.00000000000E+00  0.30520707521E+02  0.30520707521E+02  0.00000000000E+00 0. -1.
         21   -1    0    0  501  503 -0.00000000000E+00 -0.00000000000E+00 -0.29785010286E+03  0.29785010286E+03  0.00000000000E+00 0.  1.
         24    1    1    2    0    0  0.57495002396E+01  0.20019480746E+02 -0.13501181842E+03  0.15852205976E+03  0.80419002446E+02 0.  1.
          1    1    1    2  501    0  0.40525919421E+02 -0.29490507625E+02 -0.10220268747E+03  0.11383070548E+03  0.00000000000E+00 0. -1.
         -2    1    1    2    0  502 -0.46275419661E+02  0.94710268795E+01 -0.30114889456E+02  0.56018045145E+02  0.00000000000E+00 0.  1.
<mgrwt>
<rscale>  2 0.90213754E+02</rscale>
<asrwt>0</asrwt>
<pdfrwt beam="1">  1       21 0.46954938E-02 0.90213754E+02</pdfrwt>
<pdfrwt beam="2">  1       21 0.45823089E-01 0.90213754E+02</pdfrwt>
<totfact> 0.13552135E+06</totfact>
</mgrwt>
</event>
<event>
 5    1  0.1855960E+000  0.9229818E+02  0.7546771E-02  0.1297380E+00
         21   -1    0    0  501  502  0.00000000000E+00  0.00000000000E+00  0.79294118368E+03  0.79294118368E+03  0.00000000000E+00 0. -1.
         21   -1    0    0  502  503 -0.00000000000E+00 -0.00000000000E+00 -0.11841914494E+02  0.11841914494E+02  0.00000000000E+00 0.  1.
         24    1    1    2    0    0  0.40444565719E+01  0.16930408012E+02  0.23019993378E+03  0.24446312975E+03  0.80419002446E+02 0.  0.
          1    1    1    2  501    0 -0.23723438743E+02  0.37534982737E+02  0.23945048025E+03  0.24353276775E+03  0.00000000000E+00 0. -1.
         -2    1    1    2    0  503  0.19678982171E+02 -0.54465390749E+02  0.31144885516E+03  0.31678720067E+03  0.00000000000E+00 0.  1.
<mgrwt>
<rscale>  2 0.92298179E+02</rscale>
<asrwt>0</asrwt>
<pdfrwt beam="1">  1       21 0.12199091E+00 0.92298179E+02</pdfrwt>
<pdfrwt beam="2">  1       21 0.18218336E-02 0.92298179E+02</pdfrwt>
<totfact> 0.73654608E+05</totfact>
</mgrwt>
</event>
<event>
 5    1  0.1855960E+000  0.1218711E+03  0.7546771E-02  0.1240042E+00
         21   -1    0    0  501  502  0.00000000000E+00  0.00000000000E+00  0.86957025500E+01  0.86957025500E+01  0.00000000000E+00 0.  1.
         21   -1    0    0  502  503 -0.00000000000E+00 -0.00000000000E+00 -0.19788323482E+04  0.19788323482E+04  0.00000000000E+00 0. -1.
         24    1    1    2    0    0  0.41473111434E+02 -0.38667788573E+01 -0.44110928404E+03  0.45031054548E+03  0.80419002446E+02 0.  1.
          1    1    1    2  501    0 -0.95596589684E+02  0.17911911847E+02 -0.76711582336E+03  0.77325689845E+03  0.00000000000E+00 0. -1.
         -2    1    1    2    0  503  0.54123478250E+02 -0.14045132990E+02 -0.76191153825E+03  0.76396060682E+03  0.00000000000E+00 0.  1.
<mgrwt>
<rscale>  2 0.12187114E+03</rscale>
<asrwt>0</asrwt>
<pdfrwt beam="1">  1       21 0.13377981E-02 0.12187114E+03</pdfrwt>
<pdfrwt beam="2">  1       21 0.30443626E+00 0.12187114E+03</pdfrwt>
<totfact> 0.81449891E+04</totfact>
</mgrwt>
</event>
<event>
 5    1  0.1855960E+000  0.6793552E+02  0.7546771E-02  0.1367258E+00
         21   -1    0    0  503  502  0.00000000000E+00  0.00000000000E+00  0.53652870763E+03  0.53652870763E+03  0.00000000000E+00 0. -1.
         21   -1    0    0  501  503 -0.00000000000E+00 -0.00000000000E+00 -0.15508823853E+02  0.15508823853E+02  0.00000000000E+00 0.  1.
         24    1    1    2    0    0  0.11127073642E+02  0.32014881320E+02  0.18260017014E+03  0.20238281173E+03  0.80419002446E+02 0.  1.
          1    1    1    2  501    0  0.96292705397E+01 -0.24838221110E+02  0.28702600078E+02  0.39159919947E+02  0.00000000000E+00 0. -1.
         -2    1    1    2    0  502 -0.20756344182E+02 -0.71766602096E+01  0.30971711356E+03  0.31049479981E+03  0.00000000000E+00 0.  1.
<mgrwt>
<rscale>  2 0.67935525E+02</rscale>
<asrwt>0</asrwt>
<pdfrwt beam="1">  1       21 0.82542864E-01 0.67935525E+02</pdfrwt>
<pdfrwt beam="2">  1       21 0.23859733E-02 0.67935525E+02</pdfrwt>
<totfact> 0.11741684E+06</totfact>
</mgrwt>
</event>
<event>
 5    1  0.1855960E+000  0.6359587E+02  0.7546771E-02  0.1383332E+00
         21   -1    0    0  501  502  0.00000000000E+00  0.00000000000E+00  0.10734946584E+03  0.10734946584E+03  0.00000000000E+00 0. -1.
         21   -1    0    0  502  503 -0.00000000000E+00 -0.00000000000E+00 -0.44645036821E+02  0.44645036821E+02  0.00000000000E+00 0.  1.
         24    1    1    2    0    0 -0.16803345961E+02  0.21302321650E+00  0.33038490868E+02  0.88550300099E+02  0.80419002446E+02 0. -1.
          1    1    1    2  501    0  0.14433307498E+02 -0.20245436955E+02  0.34666946765E+02  0.42661402706E+02  0.00000000000E+00 0. -1.
         -2    1    1    2    0  503  0.23700384627E+01  0.20032413738E+02 -0.50010086192E+01  0.20782799852E+02  0.00000000000E+00 0.  1.
<mgrwt>
<rscale>  2 0.63595874E+02</rscale>
<asrwt>0</asrwt>
<pdfrwt beam="1">  1       21 0.16515302E-01 0.63595874E+02</pdfrwt>
<pdfrwt beam="2">  1       21 0.68684673E-02 0.63595874E+02</pdfrwt>
<totfact> 0.48389606E+06</totfact>
</mgrwt>
</event>
<event>
 5    1  0.1855960E+000  0.9308856E+02  0.7546771E-02  0.1295540E+00
         21   -1    0    0  503  502  0.00000000000E+00  0.00000000000E+00  0.10389232744E+03  0.10389232744E+03  0.00000000000E+00 0. -1.
         21   -1    0    0  501  503 -0.00000000000E+00 -0.00000000000E+00 -0.39599005685E+03  0.39599005685E+03  0.00000000000E+00 0.  1.
         24    1    1    2    0    0  0.29827289195E+02 -0.32331319572E+02  0.72515811706E+02  0.11687916969E+03  0.80419002446E+02 0. -1.
          1    1    1    2  501    0  0.10668709343E+02  0.49420888409E+02 -0.30374159638E+03  0.30792077381E+03  0.00000000000E+00 0. -1.
         -2    1    1    2    0  502 -0.40495998538E+02 -0.17089568837E+02 -0.60871944726E+02  0.75082440792E+02  0.00000000000E+00 0.  1.
<mgrwt>
<rscale>  2 0.93088557E+02</rscale>
<asrwt>0</asrwt>
<pdfrwt beam="1">  1       21 0.15983435E-01 0.93088557E+02</pdfrwt>
<pdfrwt beam="2">  1       21 0.60921547E-01 0.93088557E+02</pdfrwt>
<totfact> 0.91527623E+04</totfact>
</mgrwt>
</event>
<event>
 5    1  0.1855960E+000  0.9196957E+02  0.7546771E-02  0.1298151E+00
         21   -1    0    0  503  502  0.00000000000E+00  0.00000000000E+00  0.76274760778E+02  0.76274760778E+02  0.00000000000E+00 0. -1.
         21   -1    0    0  501  503 -0.00000000000E+00 -0.00000000000E+00 -0.17169708651E+03  0.17169708651E+03  0.00000000000E+00 0.  1.
         24    1    1    2    0    0  0.46575206256E+00 -0.68156248418E+02 -0.77413097505E+02  0.13078797629E+03  0.80419002446E+02 0.  1.
          1    1    1    2  501    0  0.18056592581E+02  0.47295948564E+02 -0.52426957305E+02  0.72880265769E+02  0.00000000000E+00 0. -1.
         -2    1    1    2    0  502 -0.18522344644E+02  0.20860299854E+02  0.34417729078E+02  0.44303605226E+02  0.00000000000E+00 0.  1.
<mgrwt>
<rscale>  2 0.91969574E+02</rscale>
<asrwt>0</asrwt>
<pdfrwt beam="1">  1       21 0.11734579E-01 0.91969574E+02</pdfrwt>
<pdfrwt beam="2">  1       21 0.26414936E-01 0.91969574E+02</pdfrwt>
<totfact> 0.83264815E+05</totfact>
</mgrwt>
</event>
<event>
 5    1  0.1855960E+000  0.7163740E+02  0.7546771E-02  0.1354612E+00
         21   -1    0    0  503  502  0.00000000000E+00  0.00000000000E+00  0.54301937093E+02  0.54301937093E+02  0.00000000000E+00 0.  1.
         21   -1    0    0  501  503 -0.00000000000E+00 -0.00000000000E+00 -0.32161905649E+03  0.32161905649E+03  0.00000000000E+00 0. -1.
         24    1    1    2    0    0  0.23775563185E+02  0.24529679490E+02 -0.20409487521E+03  0.22201107320E+03  0.80419002446E+02 0.  0.
          1    1    1    2  501    0  0.53937406459E+01 -0.26136619114E+02 -0.10195810817E+03  0.10539293676E+03  0.00000000000E+00 0. -1.
         -2    1    1    2    0  502 -0.29169303831E+02  0.16069396244E+01  0.38735863989E+02  0.48516983623E+02  0.00000000000E+00 0.  1.
<mgrwt>
<rscale>  2 0.71637398E+02</rscale>
<asrwt>0</asrwt>
<pdfrwt beam="1">  1       21 0.83541443E-02 0.71637398E+02</pdfrwt>
<pdfrwt beam="2">  1       21 0.49479854E-01 0.71637398E+02</pdfrwt>
<totfact> 0.43964042E+05</totfact>
</mgrwt>
</event>
<event>
 5    1  0.1855960E+000  0.6664396E+02  0.7546771E-02  0.1371892E+00
         21   -1    0    0  501  502  0.00000000000E+00  0.00000000000E+00  0.94843716580E+02  0.94843716580E+02  0.00000000000E+00 0.  1.
         21   -1    0    0  502  503 -0.00000000000E+00 -0.00000000000E+00 -0.56987739154E+02  0.56987739154E+02  0.00000000000E+00 0. -1.
         24    1    1    2    0    0 -0.35421580005E+01  0.72928293549E+01  0.41519252717E+02  0.90866916663E+02  0.80419002446E+02 0.  0.
          1    1    1    2  501    0 -0.23620498535E+02 -0.89230671852E+01  0.13658867683E+02  0.28707381375E+02  0.00000000000E+00 0. -1.
         -2    1    1    2    0  503  0.27162656536E+02  0.16302378304E+01 -0.17322142974E+02  0.32257157697E+02  0.00000000000E+00 0.  1.
<mgrwt>
<rscale>  2 0.66643962E+02</rscale>
<asrwt>0</asrwt>
<pdfrwt beam="1">  1       21 0.14591341E-01 0.66643962E+02</pdfrwt>
<pdfrwt beam="2">  1       21 0.87673445E-02 0.66643962E+02</pdfrwt>
<totfact> 0.40047382E+06</totfact>
</mgrwt>
</event>
<event>
 5    1  0.1855960E+000  0.1110581E+03  0.7546771E-02  0.1258623E+00
         21   -1    0    0  503  502  0.00000000000E+00  0.00000000000E+00  0.27915541723E+02  0.27915541723E+02  0.00000000000E+00 0. -1.
         21   -1    0    0  501  503 -0.00000000000E+00 -0.00000000000E+00 -0.56659435342E+03  0.56659435342E+03  0.00000000000E+00 0.  1.
         24    1    1    2    0    0 -0.82520980474E+01 -0.45044318709E+02 -0.99348820804E+02  0.13577367904E+03  0.80419002446E+02 0. -1.
          1    1    1    2  501    0 -0.45073306263E+02 -0.16628475766E+02 -0.20745813983E+03  0.21294832454E+03  0.00000000000E+00 0. -1.
         -2    1    1    2    0  502  0.53325404311E+02  0.61672794475E+02 -0.23187185106E+03  0.24578789156E+03  0.00000000000E+00 0.  1.
<mgrwt>
<rscale>  2 0.11105813E+03</rscale>
<asrwt>0</asrwt>
<pdfrwt beam="1">  1       21 0.42946987E-02 0.11105813E+03</pdfrwt>
<pdfrwt beam="2">  1       21 0.87168363E-01 0.11105813E+03</pdfrwt>
<totfact> 0.39969171E+05</totfact>
</mgrwt>
</event>
<event>
 5    1  0.1855960E+000  0.9255791E+02  0.7546771E-02  0.1296773E+00
         21   -1    0    0  503  502  0.00000000000E+00  0.00000000000E+00  0.69887133959E+02  0.69887133959E+02  0.00000000000E+00 0.  1.
         21   -1    0    0  501  503 -0.00000000000E+00 -0.00000000000E+00 -0.22728146711E+03  0.22728146711E+03  0.00000000000E+00 0. -1.
         24    1    1    2    0    0  0.35254524115E+02  0.28247703800E+02 -0.11657528436E+03  0.14865337910E+03  0.80419002446E+02 0.  1.
          1    1    1    2  501    0  0.16393990745E+02  0.17429304522E+02 -0.69751790877E+02  0.73741819338E+02  0.00000000000E+00 0. -1.
         -2    1    1    2    0  502 -0.51648514860E+02 -0.45677008322E+02  0.28932742084E+02  0.74773402631E+02  0.00000000000E+00 0.  1.
<mgrwt>
<rscale>  2 0.92557910E+02</rscale>
<asrwt>0</asrwt>
<pdfrwt beam="1">  1       21 0.10751867E-01 0.92557910E+02</pdfrwt>
<pdfrwt beam="2">  1       21 0.34966379E-01 0.92557910E+02</pdfrwt>
<totfact> 0.56718427E+05</totfact>
</mgrwt>
</event>
<event>
 5    1  0.1855960E+000  0.6449449E+02  0.7546771E-02  0.1379883E+00
         21   -1    0    0  501  502  0.00000000000E+00  0.00000000000E+00  0.52542789209E+02  0.52542789209E+02  0.00000000000E+00 0. -1.
         21   -1    0    0  502  503 -0.00000000000E+00 -0.00000000000E+00 -0.13460650039E+03  0.13460650039E+03  0.00000000000E+00 0.  1.
         24    1    1    2    0    0  0.32876931264E+00 -0.92560614077E+01  0.11216686563E+02  0.81724003658E+02  0.80419002446E+02 0.  0.
          1    1    1    2  501    0 -0.16921312536E+02  0.21541401915E+02 -0.41983624018E+02  0.50129706763E+02  0.00000000000E+00 0. -1.
         -2    1    1    2    0  503  0.16592543223E+02 -0.12285340508E+02 -0.51296773727E+02  0.55295579180E+02  0.00000000000E+00 0.  1.
<mgrwt>
<rscale>  2 0.64494488E+02</rscale>
<asrwt>0</asrwt>
<pdfrwt beam="1">  1       21 0.80835060E-02 0.64494488E+02</pdfrwt>
<pdfrwt beam="2">  1       21 0.20708692E-01 0.64494488E+02</pdfrwt>
<totfact> 0.24504096E+06</totfact>
</mgrwt>
</event>
<event>
 5    1  0.1855960E+000  0.7227058E+02  0.7546771E-02  0.1352538E+00
         21   -1    0    0  501  502  0.00000000000E+00  0.00000000000E+00  0.10150031533E+02  0.10150031533E+02  0.00000000000E+00 0. -1.
         21   -1    0    0  502  503 -0.00000000000E+00 -0.00000000000E+00 -0.55967139648E+03  0.55967139648E+03  0.00000000000E+00 0. -1.
         24    1    1    2    0    0  0.18710378554E+02  0.25030493056E+02 -0.38334504483E+03  0.39293414614E+03  0.80419002446E+02 0. -1.
          1    1    1    2  501    0 -0.30210880123E+02  0.55096459830E+00 -0.61550560031E+02  0.68567282868E+02  0.00000000000E+00 0. -1.
         -2    1    1    2    0  503  0.11500501568E+02 -0.25581457654E+02 -0.10462576008E+03  0.10831999901E+03  0.00000000000E+00 0.  1.
<mgrwt>
<rscale>  2 0.72270580E+02</rscale>
<asrwt>0</asrwt>
<pdfrwt beam="1">  1       21 0.15615431E-02 0.72270580E+02</pdfrwt>
<pdfrwt beam="2">  1       21 0.86103306E-01 0.72270580E+02</pdfrwt>
<totfact> 0.21002484E+06</totfact>
</mgrwt>
</event>
<event>
 5    1  0.1855960E+000  0.8449663E+02  0.7546771E-02  0.1316754E+00
         21   -1    0    0  501  502  0.00000000000E+00  0.00000000000E+00  0.47572980267E+02  0.47572980267E+02  0.00000000000E+00 0. -1.
         21   -1    0    0  502  503 -0.00000000000E+00 -0.00000000000E+00 -0.39065440226E+03  0.39065440226E+03  0.00000000000E+00 0. -1.
         24    1    1    2    0    0 -0.51224939533E+02 -0.17510508741E+02 -0.19361475911E+03  0.21652829664E+03  0.80419002446E+02 0. -1.
          1    1    1    2  501    0  0.37203147743E+02  0.34004553196E+02  0.17485564508E+02  0.53349121888E+02  0.00000000000E+00 0. -1.
         -2    1    1    2    0  503  0.14021791790E+02 -0.16494044455E+02 -0.16695222739E+03  0.16834996399E+03  0.00000000000E+00 0.  1.
<mgrwt>
<rscale>  2 0.84496635E+02</rscale>
<asrwt>0</asrwt>
<pdfrwt beam="1">  1       21 0.73189199E-02 0.84496635E+02</pdfrwt>
<pdfrwt beam="2">  1       21 0.60100678E-01 0.84496635E+02</pdfrwt>
<totfact> 0.36845659E+05</totfact>
</mgrwt>
</event>
<event>
 5    1  0.1855960E+000  0.8223529E+02  0.7546771E-02  0.1322825E+00
         21   -1    0    0  501  502  0.00000000000E+00  0.00000000000E+00  0.35895827024E+02  0.35895827024E+02  0.00000000000E+00 0. -1.
         21   -1    0    0  502  503 -0.00000000000E+00 -0.00000000000E+00 -0.36440820877E+03  0.36440820877E+03  0.00000000000E+00 0.  1.
         24    1    1    2    0    0 -0.61229934818E+02  0.12877417889E+02 -0.12830323888E+03  0.16384098960E+03  0.80419002446E+02 0. -1.
          1    1    1    2  501    0  0.34214644169E+02 -0.66774943546E+01 -0.52472628899E+00  0.34864109685E+02  0.00000000000E+00 0. -1.
         -2    1    1    2    0  503  0.27015290650E+02 -0.61999235341E+01 -0.19968441658E+03  0.20159893652E+03  0.00000000000E+00 0.  1.
<mgrwt>
<rscale>  2 0.82235292E+02</rscale>
<asrwt>0</asrwt>
<pdfrwt beam="1">  1       21 0.55224350E-02 0.82235292E+02</pdfrwt>
<pdfrwt beam="2">  1       21 0.56062801E-01 0.82235292E+02</pdfrwt>
<totfact> 0.68407841E+05</totfact>
</mgrwt>
</event>
<event>
 5    1  0.1855960E+000  0.8279586E+02  0.7546771E-02  0.1321299E+00
         21   -1    0    0  503  502  0.00000000000E+00  0.00000000000E+00  0.65976561619E+02  0.65976561619E+02  0.00000000000E+00 0. -1.
         21   -1    0    0  501  503 -0.00000000000E+00 -0.00000000000E+00 -0.17165402487E+03  0.17165402487E+03  0.00000000000E+00 0. -1.
         24    1    1    2    0    0 -0.41830768303E+02  0.12623593960E+02  0.26978543501E+01  0.91562343099E+02  0.80419002446E+02 0. -1.
          1    1    1    2  501    0  0.38856165404E+02  0.18337228664E+02 -0.10657832372E+03  0.11491298722E+03  0.00000000000E+00 0. -1.
         -2    1    1    2    0  502  0.29746028993E+01 -0.30960822624E+02 -0.17969938794E+01  0.31155256169E+02  0.00000000000E+00 0.  1.
<mgrwt>
<rscale>  2 0.82795863E+02</rscale>
<asrwt>0</asrwt>
<pdfrwt beam="1">  1       21 0.10150240E-01 0.82795863E+02</pdfrwt>
<pdfrwt beam="2">  1       21 0.26408312E-01 0.82795863E+02</pdfrwt>
<totfact> 0.10701900E+06</totfact>
</mgrwt>
</event>
<event>
 5    1  0.1855960E+000  0.7481099E+02  0.7546771E-02  0.1344457E+00
         21   -1    0    0  503  502  0.00000000000E+00  0.00000000000E+00  0.10472901134E+02  0.10472901134E+02  0.00000000000E+00 0.  1.
         21   -1    0    0  501  503 -0.00000000000E+00 -0.00000000000E+00 -0.61648165520E+03  0.61648165520E+03  0.00000000000E+00 0. -1.
         24    1    1    2    0    0 -0.39146659088E+02  0.22161834206E+02 -0.26650724943E+03  0.28198747804E+03  0.80419002446E+02 0.  0.
          1    1    1    2  501    0  0.27852979552E+02  0.47827230457E+01 -0.22623692819E+03  0.22799519861E+03  0.00000000000E+00 0. -1.
         -2    1    1    2    0  502  0.11293679536E+02 -0.26944557252E+02 -0.11326457644E+03  0.11697187969E+03  0.00000000000E+00 0.  1.
<mgrwt>
<rscale>  2 0.74810989E+02</rscale>
<asrwt>0</asrwt>
<pdfrwt beam="1">  1       21 0.16112157E-02 0.74810989E+02</pdfrwt>
<pdfrwt beam="2">  1       21 0.94843326E-01 0.74810989E+02</pdfrwt>
<totfact> 0.16106644E+06</totfact>
</mgrwt>
</event>
<event>
 5    1  0.1855960E+000  0.6466547E+02  0.7546771E-02  0.1379234E+00
         21   -1    0    0  503  502  0.00000000000E+00  0.00000000000E+00  0.21561308327E+03  0.21561308327E+03  0.00000000000E+00 0.  1.
         21   -1    0    0  501  503 -0.00000000000E+00 -0.00000000000E+00 -0.36199283157E+02  0.36199283157E+02  0.00000000000E+00 0.  1.
         24    1    1    2    0    0 -0.24341445113E+02  0.18075228553E+02  0.53458579283E+02  0.10121390957E+03  0.80419002446E+02 0.  1.
          1    1    1    2  501    0  0.12121465263E+01 -0.20129737213E+02 -0.22646554671E+01  0.20292961436E+02  0.00000000000E+00 0. -1.
         -2    1    1    2    0  502  0.23129298586E+02  0.20545086596E+01  0.12821987630E+03  0.13030549542E+03  0.00000000000E+00 0.  1.
<mgrwt>
<rscale>  2 0.64665472E+02</rscale>
<asrwt>0</asrwt>
<pdfrwt beam="1">  1       21 0.33171243E-01 0.64665472E+02</pdfrwt>
<pdfrwt beam="2">  1       21 0.55691206E-02 0.64665472E+02</pdfrwt>
<totfact> 0.19016582E+06</totfact>
</mgrwt>
</event>
<event>
 5    1  0.1855960E+000  0.7313177E+02  0.7546771E-02  0.1349756E+00
         21   -1    0    0  501  502  0.00000000000E+00  0.00000000000E+00  0.47167961817E+03  0.47167961817E+03  0.00000000000E+00 0.  1.
         21   -1    0    0  502  503 -0.00000000000E+00 -0.00000000000E+00 -0.17189733075E+02  0.17189733075E+02  0.00000000000E+00 0. -1.
         24    1    1    2    0    0  0.44992023054E+02  0.22383764930E+02  0.15969103695E+03  0.18572495338E+03  0.80419002446E+02 0.  0.
          1    1    1    2  501    0 -0.21562766010E+02 -0.16837266633E+02  0.25616844664E+03  0.25762515304E+03  0.00000000000E+00 0. -1.
         -2    1    1    2    0  503 -0.23429257044E+02 -0.55464982963E+01  0.38630401510E+02  0.45519244829E+02  0.00000000000E+00 0.  1.
<mgrwt>
<rscale>  2 0.73131768E+02</rscale>
<asrwt>0</asrwt>
<pdfrwt beam="1">  1       21 0.72566086E-01 0.73131768E+02</pdfrwt>
<pdfrwt beam="2">  1       21 0.26445747E-02 0.73131768E+02</pdfrwt>
<totfact> 0.13207829E+06</totfact>
</mgrwt>
</event>
<event>
 5    1  0.1855960E+000  0.7705120E+02  0.7546771E-02  0.1337634E+00
         21   -1    0    0  503  502  0.00000000000E+00  0.00000000000E+00  0.12957112070E+03  0.12957112070E+03  0.00000000000E+00 0.  1.
         21   -1    0    0  501  503 -0.00000000000E+00 -0.00000000000E+00 -0.99180199272E+02  0.99180199272E+02  0.00000000000E+00 0. -1.
         24    1    1    2    0    0 -0.38090487032E+02 -0.23770850934E+02  0.31356928428E+02  0.97295485359E+02  0.80419002446E+02 0.  1.
          1    1    1    2  501    0  0.55796490318E+01  0.28592581815E+02 -0.58411380587E+02  0.65272946925E+02  0.00000000000E+00 0. -1.
         -2    1    1    2    0  502  0.32510838000E+02 -0.48217308805E+01  0.57445373588E+02  0.66182887688E+02  0.00000000000E+00 0.  1.
<mgrwt>
<rscale>  2 0.77051202E+02</rscale>
<asrwt>0</asrwt>
<pdfrwt beam="1">  1       21 0.19934018E-01 0.77051202E+02</pdfrwt>
<pdfrwt beam="2">  1       21 0.15258492E-01 0.77051202E+02</pdfrwt>
<totfact> 0.87922300E+05</totfact>
</mgrwt>
</event>
<event>
 5    1  0.1855960E+000  0.8569802E+02  0.7546771E-02  0.1313617E+00
         21   -1    0    0  501  502  0.00000000000E+00  0.00000000000E+00  0.71323123656E+03  0.71323123656E+03  0.00000000000E+00 0. -1.
         21   -1    0    0  502  503 -0.00000000000E+00 -0.00000000000E+00 -0.15826712161E+02  0.15826712161E+02  0.00000000000E+00 0.  1.
         24    1    1    2    0    0  0.54188423819E+02 -0.12584762058E+02  0.25590201679E+03  0.27394857120E+03  0.80419002446E+02 0.  0.
          1    1    1    2  501    0 -0.12932354736E+02 -0.18063965186E+02  0.34551650570E+03  0.34622999342E+03  0.00000000000E+00 0. -1.
         -2    1    1    2    0  503 -0.41256069083E+02  0.30648727243E+02  0.95986001915E+02  0.10887938410E+03  0.00000000000E+00 0.  1.
<mgrwt>
<rscale>  2 0.85698018E+02</rscale>
<asrwt>0</asrwt>
<pdfrwt beam="1">  1       21 0.10972786E+00 0.85698018E+02</pdfrwt>
<pdfrwt beam="2">  1       21 0.24348793E-02 0.85698018E+02</pdfrwt>
<totfact> 0.59591716E+05</totfact>
</mgrwt>
</event>
<event>
 5    1  0.1855960E+000  0.7770328E+02  0.7546771E-02  0.1335698E+00
         21   -1    0    0  501  502  0.00000000000E+00  0.00000000000E+00  0.44456318673E+03  0.44456318673E+03  0.00000000000E+00 0.  1.
         21   -1    0    0  502  503 -0.00000000000E+00 -0.00000000000E+00 -0.29109912011E+02  0.29109912011E+02  0.00000000000E+00 0.  1.
         24    1    1    2    0    0 -0.61543256652E+01  0.25722099436E+02  0.13535508025E+03  0.15964872636E+03  0.80419002446E+02 0.  1.
          1    1    1    2  501    0 -0.26387341298E+02  0.39866996330E+01  0.26661081743E+03  0.26794311621E+03  0.00000000000E+00 0. -1.
         -2    1    1    2    0  503  0.32541666963E+02 -0.29708799069E+02  0.13487377038E+02  0.46081256170E+02  0.00000000000E+00 0.  1.
<mgrwt>
<rscale>  2 0.77703279E+02</rscale>
<asrwt>0</asrwt>
<pdfrwt beam="1">  1       21 0.68394332E-01 0.77703279E+02</pdfrwt>
<pdfrwt beam="2">  1       21 0.44784483E-02 0.77703279E+02</pdfrwt>
<totfact> 0.63698850E+05</totfact>
</mgrwt>
</event>
<event>
 5    1  0.1855960E+000  0.6709687E+02  0.7546771E-02  0.1370253E+00
         21   -1    0    0  501  502  0.00000000000E+00  0.00000000000E+00  0.83885969830E+01  0.83885969830E+01  0.00000000000E+00 0. -1.
         21   -1    0    0  502  503 -0.00000000000E+00 -0.00000000000E+00 -0.11967093620E+04  0.11967093620E+04  0.00000000000E+00 0.  1.
         24    1    1    2    0    0  0.51983196865E+01  0.44204001779E+01 -0.36569095560E+03  0.37449119273E+03  0.80419002446E+02 0.  1.
          1    1    1    2  501    0  0.23969228999E+02 -0.40942466493E+01 -0.36038667713E+02  0.43474962507E+02  0.00000000000E+00 0. -1.
         -2    1    1    2    0  503 -0.29167548685E+02 -0.32615352868E+00 -0.78659114168E+03  0.78713180373E+03  0.00000000000E+00 0.  1.
<mgrwt>
<rscale>  2 0.67096872E+02</rscale>
<asrwt>0</asrwt>
<pdfrwt beam="1">  1       21 0.12905543E-02 0.67096872E+02</pdfrwt>
<pdfrwt beam="2">  1       21 0.18410901E+00 0.67096872E+02</pdfrwt>
<totfact> 0.44844040E+05</totfact>
</mgrwt>
</event>
<event>
 5    1  0.1855960E+000  0.9942598E+02  0.7546771E-02  0.1281508E+00
         21   -1    0    0  501  502  0.00000000000E+00  0.00000000000E+00  0.49414583412E+03  0.49414583412E+03  0.00000000000E+00 0. -1.
         21   -1    0    0  502  503 -0.00000000000E+00 -0.00000000000E+00 -0.25523884708E+02  0.25523884708E+02  0.00000000000E+00 0.  1.
         24    1    1    2    0    0 -0.11002472072E+02 -0.37233693563E+02  0.23586216054E+03  0.25220146125E+03  0.80419002446E+02 0.  1.
          1    1    1    2  501    0 -0.34324479217E+02  0.51625075782E+02  0.20084504798E+03  0.21019527022E+03  0.00000000000E+00 0. -1.
         -2    1    1    2    0  503  0.45326951289E+02 -0.14391382219E+02  0.31914740896E+02  0.57272987365E+02  0.00000000000E+00 0.  1.
<mgrwt>
<rscale>  2 0.99425985E+02</rscale>
<asrwt>0</asrwt>
<pdfrwt beam="1">  1       21 0.76022429E-01 0.99425985E+02</pdfrwt>
<pdfrwt beam="2">  1       21 0.39267519E-02 0.99425985E+02</pdfrwt>
<totfact> 0.62944305E+05</totfact>
</mgrwt>
</event>
<event>
 5    1  0.1855960E+000  0.1022187E+03  0.7546771E-02  0.1275698E+00
         21   -1    0    0  501  502  0.00000000000E+00  0.00000000000E+00  0.22820721051E+02  0.22820721051E+02  0.00000000000E+00 0. -1.
         21   -1    0    0  502  503 -0.00000000000E+00 -0.00000000000E+00 -0.10445977324E+04  0.10445977324E+04  0.00000000000E+00 0.  1.
         24    1    1    2    0    0  0.47543261676E+02  0.16211124358E+02 -0.53821946728E+03  0.54650761495E+03  0.80419002446E+02 0.  1.
          1    1    1    2  501    0  0.79888538714E+01 -0.45940815834E+02 -0.16255186562E+02  0.49382298810E+02  0.00000000000E+00 0. -1.
         -2    1    1    2    0  503 -0.55532115548E+02  0.29729691475E+02 -0.46730235750E+03  0.47152853968E+03  0.00000000000E+00 0.  1.
<mgrwt>
<rscale>  2 0.10221865E+03</rscale>
<asrwt>0</asrwt>
<pdfrwt beam="1">  1       21 0.35108801E-02 0.10221865E+03</pdfrwt>
<pdfrwt beam="2">  1       21 0.16070735E+00 0.10221865E+03</pdfrwt>
<totfact> 0.12701959E+05</totfact>
</mgrwt>
</event>
<event>
 5    1  0.1855960E+000  0.2444702E+03  0.7546771E-02  0.1116850E+00
         21   -1    0    0  501  502  0.00000000000E+00  0.00000000000E+00  0.36932944738E+03  0.36932944738E+03  0.00000000000E+00 0. -1.
         21   -1    0    0  502  503 -0.00000000000E+00 -0.00000000000E+00 -0.31097199143E+03  0.31097199143E+03  0.00000000000E+00 0. -1.
         24    1    1    2    0    0  0.68868453477E+02  0.16921707534E+03 -0.19927525416E+03  0.28205518138E+03  0.80419002446E+02 0. -1.
          1    1    1    2  501    0 -0.14260512208E+03 -0.53896085422E+02  0.19552962357E+03  0.24793717462E+03  0.00000000000E+00 0. -1.
         -2    1    1    2    0  503  0.73736668607E+02 -0.11532098992E+03  0.62103086543E+02  0.15030908280E+03  0.00000000000E+00 0.  1.
<mgrwt>
<rscale>  2 0.24447025E+03</rscale>
<asrwt>0</asrwt>
<pdfrwt beam="1">  1       21 0.56819915E-01 0.24447025E+03</pdfrwt>
<pdfrwt beam="2">  1       21 0.47841845E-01 0.24447025E+03</pdfrwt>
<totfact> 0.11778372E+04</totfact>
</mgrwt>
</event>
<event>
 5    1  0.1855960E+000  0.9384016E+02  0.7546771E-02  0.1293810E+00
         21   -1    0    0  501  502  0.00000000000E+00  0.00000000000E+00  0.11242381756E+04  0.11242381756E+04  0.00000000000E+00 0. -1.
         21   -1    0    0  502  503 -0.00000000000E+00 -0.00000000000E+00 -0.96840055534E+01  0.96840055534E+01  0.00000000000E+00 0.  1.
         24    1    1    2    0    0 -0.38353237768E+02  0.30194140910E+01  0.68237632785E+03  0.68817494613E+03  0.80419002446E+02 0. -1.
          1    1    1    2  501    0  0.44954832353E+02  0.36845333862E+02  0.34235231067E+03  0.34725152296E+03  0.00000000000E+00 0. -1.
         -2    1    1    2    0  503 -0.66015945849E+01 -0.39864747953E+02  0.89825531479E+02  0.98495712018E+02  0.00000000000E+00 0.  1.
<mgrwt>
<rscale>  2 0.93840156E+02</rscale>
<asrwt>0</asrwt>
<pdfrwt beam="1">  1       21 0.17295962E+00 0.93840156E+02</pdfrwt>
<pdfrwt beam="2">  1       21 0.14898479E-02 0.93840156E+02</pdfrwt>
<totfact> 0.41809538E+05</totfact>
</mgrwt>
</event>
<event>
 5    1  0.1855960E+000  0.6480774E+02  0.7546771E-02  0.1378696E+00
         21   -1    0    0  501  502  0.00000000000E+00  0.00000000000E+00  0.22846493156E+02  0.22846493156E+02  0.00000000000E+00 0. -1.
         21   -1    0    0  502  503 -0.00000000000E+00 -0.00000000000E+00 -0.19532006991E+03  0.19532006991E+03  0.00000000000E+00 0. -1.
         24    1    1    2    0    0  0.11552377325E+01  0.14173772408E+01 -0.12320530780E+03  0.14713975451E+03  0.80419002446E+02 0. -1.
          1    1    1    2  501    0 -0.25139549622E+02 -0.16037550580E+01 -0.15397799499E+02  0.29523909207E+02  0.00000000000E+00 0. -1.
         -2    1    1    2    0  503  0.23984311889E+02  0.18637781715E+00 -0.33870469459E+02  0.41502899355E+02  0.00000000000E+00 0.  1.
<mgrwt>
<rscale>  2 0.64807738E+02</rscale>
<asrwt>0</asrwt>
<pdfrwt beam="1">  1       21 0.35148450E-02 0.64807738E+02</pdfrwt>
<pdfrwt beam="2">  1       21 0.30049243E-01 0.64807738E+02</pdfrwt>
<totfact> 0.48808834E+06</totfact>
</mgrwt>
</event>
<event>
 5    1  0.1855960E+000  0.7107920E+02  0.7546771E-02  0.1356461E+00
         21   -1    0    0  503  502  0.00000000000E+00  0.00000000000E+00  0.18437278369E+02  0.18437278369E+02  0.00000000000E+00 0.  1.
         21   -1    0    0  501  503 -0.00000000000E+00 -0.00000000000E+00 -0.49779802045E+03  0.49779802045E+03  0.00000000000E+00 0. -1.
         24    1    1    2    0    0  0.29387452084E+02 -0.38189424774E+02 -0.44720263801E+03  0.45692392135E+03  0.80419002446E+02 0. -1.
          1    1    1    2  501    0 -0.14551992515E+02  0.22662153642E+02 -0.24798331326E+02  0.36609984026E+02  0.00000000000E+00 0. -1.
         -2    1    1    2    0  502 -0.14835459568E+02  0.15527271132E+02 -0.73597727470E+01  0.22701393444E+02  0.00000000000E+00 0.  1.
<mgrwt>
<rscale>  2 0.71079197E+02</rscale>
<asrwt>0</asrwt>
<pdfrwt beam="1">  1       21 0.28365045E-02 0.71079197E+02</pdfrwt>
<pdfrwt beam="2">  1       21 0.76584308E-01 0.71079197E+02</pdfrwt>
<totfact> 0.10491809E+06</totfact>
</mgrwt>
</event>
<event>
 5    1  0.1855960E+000  0.6493466E+02  0.7546771E-02  0.1378217E+00
         21   -1    0    0  501  502  0.00000000000E+00  0.00000000000E+00  0.52308727657E+03  0.52308727657E+03  0.00000000000E+00 0.  1.
         21   -1    0    0  502  503 -0.00000000000E+00 -0.00000000000E+00 -0.89396480655E+01  0.89396480655E+01  0.00000000000E+00 0.  1.
         24    1    1    2    0    0  0.22209900024E+01 -0.15370270418E+02  0.37302205623E+03  0.38190816749E+03  0.80419002446E+02 0.  1.
          1    1    1    2  501    0  0.20155607342E+02 -0.10913015519E+01  0.86638809513E+02  0.88959107236E+02  0.00000000000E+00 0. -1.
         -2    1    1    2    0  503 -0.22376597344E+02  0.16461571970E+02  0.54486762759E+02  0.61159649904E+02  0.00000000000E+00 0.  1.
<mgrwt>
<rscale>  2 0.64934661E+02</rscale>
<asrwt>0</asrwt>
<pdfrwt beam="1">  1       21 0.80474942E-01 0.64934661E+02</pdfrwt>
<pdfrwt beam="2">  1       21 0.13753309E-02 0.64934661E+02</pdfrwt>
<totfact> 0.29617735E+06</totfact>
</mgrwt>
</event>
<event>
 5    1  0.1855960E+000  0.6709752E+02  0.7546771E-02  0.1370251E+00
         21   -1    0    0  501  502  0.00000000000E+00  0.00000000000E+00  0.23564644695E+02  0.23564644695E+02  0.00000000000E+00 0. -1.
         21   -1    0    0  502  503 -0.00000000000E+00 -0.00000000000E+00 -0.35749294036E+03  0.35749294036E+03  0.00000000000E+00 0.  1.
         24    1    1    2    0    0  0.38692531647E+02  0.54718449284E+01 -0.17368673649E+03  0.19534930632E+03  0.80419002446E+02 0. -1.
          1    1    1    2  501    0 -0.18516581209E+02  0.83661743840E+01  0.30917997354E+01  0.20552758431E+02  0.00000000000E+00 0. -1.
         -2    1    1    2    0  503 -0.20175950438E+02 -0.13838019312E+02 -0.16333335890E+03  0.16515552030E+03  0.00000000000E+00 0.  1.
<mgrwt>
<rscale>  2 0.67097516E+02</rscale>
<asrwt>0</asrwt>
<pdfrwt beam="1">  1       21 0.36253303E-02 0.67097516E+02</pdfrwt>
<pdfrwt beam="2">  1       21 0.54998909E-01 0.67097516E+02</pdfrwt>
<totfact> 0.14167261E+06</totfact>
</mgrwt>
</event>
<event>
 5    1  0.1855960E+000  0.9288291E+02  0.7546771E-02  0.1296017E+00
         21   -1    0    0  501  502  0.00000000000E+00  0.00000000000E+00  0.93204265908E+01  0.93204265908E+01  0.00000000000E+00 0. -1.
         21   -1    0    0  502  503 -0.00000000000E+00 -0.00000000000E+00 -0.10009620892E+04  0.10009620892E+04  0.00000000000E+00 0.  1.
         24    1    1    2    0    0 -0.26772176015E+02 -0.86068199000E+01 -0.50548455496E+03  0.51261357573E+03  0.80419002446E+02 0. -1.
          1    1    1    2  501    0 -0.24729211726E+02  0.34879189649E+02 -0.13002442764E+03  0.13687382352E+03  0.00000000000E+00 0. -1.
         -2    1    1    2    0  503  0.51501387741E+02 -0.26272369749E+02 -0.35613268002E+03  0.36079511656E+03  0.00000000000E+00 0.  1.
<mgrwt>
<rscale>  2 0.92882911E+02</rscale>
<asrwt>0</asrwt>
<pdfrwt beam="1">  1       21 0.14339126E-02 0.92882911E+02</pdfrwt>
<pdfrwt beam="2">  1       21 0.15399408E+00 0.92882911E+02</pdfrwt>
<totfact> 0.60283452E+05</totfact>
</mgrwt>
</event>
<event>
 5    1  0.1855960E+000  0.9498860E+02  0.7546771E-02  0.1291202E+00
         21   -1    0    0  503  502  0.00000000000E+00  0.00000000000E+00  0.21145890049E+03  0.21145890049E+03  0.00000000000E+00 0. -1.
         21   -1    0    0  501  503 -0.00000000000E+00 -0.00000000000E+00 -0.69164813078E+02  0.69164813078E+02  0.00000000000E+00 0.  1.
         24    1    1    2    0    0  0.25545347123E+02 -0.69808366556E+02  0.58461623833E+02  0.12414004276E+03  0.80419002446E+02 0. -1.
          1    1    1    2  501    0 -0.18564436353E+02  0.11711414839E+02 -0.24784980981E+02  0.33107262298E+02  0.00000000000E+00 0. -1.
         -2    1    1    2    0  502 -0.69809107703E+01  0.58096951717E+02  0.10861744456E+03  0.12337640851E+03  0.00000000000E+00 0.  1.
<mgrwt>
<rscale>  2 0.94988603E+02</rscale>
<asrwt>0</asrwt>
<pdfrwt beam="1">  1       21 0.32532138E-01 0.94988603E+02</pdfrwt>
<pdfrwt beam="2">  1       21 0.10640741E-01 0.94988603E+02</pdfrwt>
<totfact> 0.66427068E+05</totfact>
</mgrwt>
</event>
<event>
 5    1  0.1855960E+000  0.8921668E+02  0.7546771E-02  0.1304760E+00
         21   -1    0    0  503  502  0.00000000000E+00  0.00000000000E+00  0.77441334326E+03  0.77441334326E+03  0.00000000000E+00 0.  1.
         21   -1    0    0  501  503 -0.00000000000E+00 -0.00000000000E+00 -0.39483167274E+02  0.39483167274E+02  0.00000000000E+00 0. -1.
         24    1    1    2    0    0 -0.17493597875E+01  0.54411666131E+02  0.23153100651E+03  0.25107272373E+03  0.80419002446E+02 0. -1.
          1    1    1    2  501    0 -0.24262772984E+02 -0.49105698175E+02 -0.38242724870E+01  0.54906072580E+02  0.00000000000E+00 0. -1.
         -2    1    1    2    0  502  0.26012132771E+02 -0.53059679565E+01  0.50722344197E+03  0.50791771423E+03  0.00000000000E+00 0.  1.
<mgrwt>
<rscale>  2 0.89216676E+02</rscale>
<asrwt>0</asrwt>
<pdfrwt beam="1">  1       21 0.11914050E+00 0.89216676E+02</pdfrwt>
<pdfrwt beam="2">  1       21 0.60743340E-02 0.89216676E+02</pdfrwt>
<totfact> 0.10903448E+05</totfact>
</mgrwt>
</event>
<event>
 5    1  0.1855960E+000  0.9229443E+02  0.7546771E-02  0.1297389E+00
         21   -1    0    0  503  502  0.00000000000E+00  0.00000000000E+00  0.65082465576E+02  0.65082465576E+02  0.00000000000E+00 0.  1.
         21   -1    0    0  501  503 -0.00000000000E+00 -0.00000000000E+00 -0.32766600184E+03  0.32766600184E+03  0.00000000000E+00 0. -1.
         24    1    1    2    0    0  0.35503674414E+02  0.12678025523E+02 -0.82911793019E+02  0.12150236460E+03  0.80419002446E+02 0. -1.
          1    1    1    2  501    0 -0.61531642145E+02  0.86304978109E+01 -0.21420685394E+03  0.22303633056E+03  0.00000000000E+00 0. -1.
         -2    1    1    2    0  502  0.26027967730E+02 -0.21308523334E+02  0.34535110686E+02  0.48209772256E+02  0.00000000000E+00 0.  1.
<mgrwt>
<rscale>  2 0.92294427E+02</rscale>
<asrwt>0</asrwt>
<pdfrwt beam="1">  1       21 0.10012687E-01 0.92294427E+02</pdfrwt>
<pdfrwt beam="2">  1       21 0.50410154E-01 0.92294427E+02</pdfrwt>
<totfact> 0.30953389E+05</totfact>
</mgrwt>
</event>
<event>
 5    1  0.1855960E+000  0.6952829E+02  0.7546771E-02  0.1361705E+00
         21   -1    0    0  503  502  0.00000000000E+00  0.00000000000E+00  0.40378229950E+02  0.40378229950E+02  0.00000000000E+00 0.  1.
         21   -1    0    0  501  503 -0.00000000000E+00 -0.00000000000E+00 -0.24870995201E+03  0.24870995201E+03  0.00000000000E+00 0.  1.
         24    1    1    2    0    0 -0.23698293826E+02 -0.22985202292E+02 -0.21674684527E+03  0.23353016838E+03  0.80419002446E+02 0.  1.
          1    1    1    2  501    0 -0.74025827385E+01  0.19465227499E+02 -0.51387094568E+01  0.21449933512E+02  0.00000000000E+00 0. -1.
         -2    1    1    2    0  502  0.31100876564E+02  0.35199747934E+01  0.13553832671E+02  0.34108080064E+02  0.00000000000E+00 0.  1.
<mgrwt>
<rscale>  2 0.69528290E+02</rscale>
<asrwt>0</asrwt>
<pdfrwt beam="1">  1       21 0.62120354E-02 0.69528290E+02</pdfrwt>
<pdfrwt beam="2">  1       21 0.38263069E-01 0.69528290E+02</pdfrwt>
<totfact> 0.12068552E+06</totfact>
</mgrwt>
</event>
<event>
 5    1  0.1855960E+000  0.1202316E+03  0.7546771E-02  0.1242715E+00
         21   -1    0    0  501  502  0.00000000000E+00  0.00000000000E+00  0.22054088503E+03  0.22054088503E+03  0.00000000000E+00 0.  1.
         21   -1    0    0  502  503 -0.00000000000E+00 -0.00000000000E+00 -0.52897124199E+03  0.52897124199E+03  0.00000000000E+00 0.  1.
         24    1    1    2    0    0  0.83684422734E+02  0.13050999620E+02  0.95465624402E+02  0.15084532673E+03  0.80419002446E+02 0.  1.
          1    1    1    2  501    0 -0.95190177353E+02 -0.32910156744E+02  0.70992436958E+02  0.12322408201E+03  0.00000000000E+00 0. -1.
         -2    1    1    2    0  503  0.11505754618E+02  0.19859157124E+02 -0.47488841832E+03  0.47544271828E+03  0.00000000000E+00 0.  1.
<mgrwt>
<rscale>  2 0.12023160E+03</rscale>
<asrwt>0</asrwt>
<pdfrwt beam="1">  1       21 0.33929367E-01 0.12023160E+03</pdfrwt>
<pdfrwt beam="2">  1       21 0.81380191E-01 0.12023160E+03</pdfrwt>
<totfact> 0.11707786E+04</totfact>
</mgrwt>
</event>
<event>
 5    1  0.1855960E+000  0.7509862E+02  0.7546771E-02  0.1343566E+00
         21   -1    0    0  503  502  0.00000000000E+00  0.00000000000E+00  0.22078151797E+03  0.22078151797E+03  0.00000000000E+00 0.  1.
         21   -1    0    0  501  503 -0.00000000000E+00 -0.00000000000E+00 -0.43660543700E+02  0.43660543700E+02  0.00000000000E+00 0. -1.
         24    1    1    2    0    0 -0.25351461585E+02  0.27630390856E+02  0.69528547192E+02  0.11272785784E+03  0.80419002446E+02 0. -1.
          1    1    1    2  501    0  0.36068235093E+02 -0.49836597181E+01 -0.46525829345E+01  0.36706960851E+02  0.00000000000E+00 0. -1.
         -2    1    1    2    0  502 -0.10716773508E+02 -0.22646731138E+02  0.11224501001E+03  0.11500724298E+03  0.00000000000E+00 0.  1.
<mgrwt>
<rscale>  2 0.75098615E+02</rscale>
<asrwt>0</asrwt>
<pdfrwt beam="1">  1       21 0.33966387E-01 0.75098615E+02</pdfrwt>
<pdfrwt beam="2">  1       21 0.67170069E-02 0.75098615E+02</pdfrwt>
<totfact> 0.13372049E+06</totfact>
</mgrwt>
</event>
<event>
 5    1  0.1855960E+000  0.7445475E+02  0.7546771E-02  0.1345568E+00
         21   -1    0    0  503  502  0.00000000000E+00  0.00000000000E+00  0.33157767572E+03  0.33157767572E+03  0.00000000000E+00 0. -1.
         21   -1    0    0  501  503 -0.00000000000E+00 -0.00000000000E+00 -0.27483430036E+02  0.27483430036E+02  0.00000000000E+00 0. -1.
         24    1    1    2    0    0  0.88962896683E+01 -0.57279426528E+01  0.23356141498E+03  0.24724502790E+03  0.80419002446E+02 0. -1.
          1    1    1    2  501    0 -0.35739605736E+02 -0.94397719744E+01  0.24134542500E+01  0.37043939781E+02  0.00000000000E+00 0. -1.
         -2    1    1    2    0  502  0.26843316067E+02  0.15167714627E+02  0.68119376451E+02  0.74772138077E+02  0.00000000000E+00 0.  1.
<mgrwt>
<rscale>  2 0.74454746E+02</rscale>
<asrwt>0</asrwt>
<pdfrwt beam="1">  1       21 0.51011947E-01 0.74454746E+02</pdfrwt>
<pdfrwt beam="2">  1       21 0.42282202E-02 0.74454746E+02</pdfrwt>
<totfact> 0.12896634E+06</totfact>
</mgrwt>
</event>
<event>
 5    1  0.1855960E+000  0.1035307E+03  0.7546771E-02  0.1273042E+00
         21   -1    0    0  501  502  0.00000000000E+00  0.00000000000E+00  0.30781104579E+03  0.30781104579E+03  0.00000000000E+00 0. -1.
         21   -1    0    0  502  503 -0.00000000000E+00 -0.00000000000E+00 -0.37750354309E+02  0.37750354309E+02  0.00000000000E+00 0.  1.
         24    1    1    2    0    0 -0.63203282244E+02  0.19828041019E+02  0.12934997758E+03  0.16609165768E+03  0.80419002446E+02 0. -1.
          1    1    1    2  501    0  0.13443614829E+02  0.29740685399E+02  0.80836482154E+02  0.87176694103E+02  0.00000000000E+00 0. -1.
         -2    1    1    2    0  503  0.49759667415E+02 -0.49568726418E+02  0.59874231753E+02  0.92293048319E+02  0.00000000000E+00 0.  1.
<mgrwt>
<rscale>  2 0.10353067E+03</rscale>
<asrwt>0</asrwt>
<pdfrwt beam="1">  1       21 0.47355544E-01 0.10353067E+03</pdfrwt>
<pdfrwt beam="2">  1       21 0.58077470E-02 0.10353067E+03</pdfrwt>
<totfact> 0.89080236E+05</totfact>
</mgrwt>
</event>
<event>
 5    1  0.1855960E+000  0.7391575E+02  0.7546771E-02  0.1347262E+00
         21   -1    0    0  503  502  0.00000000000E+00  0.00000000000E+00  0.13758227497E+04  0.13758227497E+04  0.00000000000E+00 0.  1.
         21   -1    0    0  501  503 -0.00000000000E+00 -0.00000000000E+00 -0.17898191496E+02  0.17898191496E+02  0.00000000000E+00 0. -1.
         24    1    1    2    0    0  0.24047803315E+02  0.77855776161E+01  0.48539464712E+03  0.49266021909E+03  0.80419002446E+02 0. -1.
          1    1    1    2  501    0 -0.30821434887E+02 -0.28353298058E+02  0.16906024535E+02  0.45162861123E+02  0.00000000000E+00 0. -1.
         -2    1    1    2    0  502  0.67736315722E+01  0.20567720442E+02  0.85562388658E+03  0.85589786102E+03  0.00000000000E+00 0.  1.
<mgrwt>
<rscale>  2 0.73915746E+02</rscale>
<asrwt>0</asrwt>
<pdfrwt beam="1">  1       21 0.21166496E+00 0.73915746E+02</pdfrwt>
<pdfrwt beam="2">  1       21 0.27535690E-02 0.73915746E+02</pdfrwt>
<totfact> 0.90892545E+04</totfact>
</mgrwt>
</event>
<event>
 5    1  0.1855960E+000  0.1397711E+03  0.7546771E-02  0.1213637E+00
         21   -1    0    0  503  502  0.00000000000E+00  0.00000000000E+00  0.71270130341E+02  0.71270130341E+02  0.00000000000E+00 0.  1.
         21   -1    0    0  501  503 -0.00000000000E+00 -0.00000000000E+00 -0.78585394456E+03  0.78585394456E+03  0.00000000000E+00 0.  1.
         24    1    1    2    0    0 -0.10975476965E+03 -0.61297643250E+02 -0.63089739251E+03  0.64830721604E+03  0.80419002446E+02 0.  1.
          1    1    1    2  501    0  0.32402530797E+02  0.37104170621E+02 -0.11248999096E+03  0.12280326358E+03  0.00000000000E+00 0. -1.
         -2    1    1    2    0  502  0.77352238855E+02  0.24193472628E+02  0.28803569248E+02  0.86013595292E+02  0.00000000000E+00 0.  1.
<mgrwt>
<rscale>  2 0.13977112E+03</rscale>
<asrwt>0</asrwt>
<pdfrwt beam="1">  1       21 0.10964635E-01 0.13977112E+03</pdfrwt>
<pdfrwt beam="2">  1       21 0.12090061E+00 0.13977112E+03</pdfrwt>
<totfact> 0.36867139E+04</totfact>
</mgrwt>
</event>
<event>
 5    1  0.1855960E+000  0.1035061E+03  0.7546771E-02  0.1273091E+00
         21   -1    0    0  501  502  0.00000000000E+00  0.00000000000E+00  0.11641545902E+04  0.11641545902E+04  0.00000000000E+00 0. -1.
         21   -1    0    0  502  503 -0.00000000000E+00 -0.00000000000E+00 -0.87744244566E+02  0.87744244566E+02  0.00000000000E+00 0.  1.
         24    1    1    2    0    0  0.67913812303E+02 -0.20443996012E+02  0.13258430178E+03  0.17051702527E+03  0.80419002446E+02 0. -1.
          1    1    1    2  501    0 -0.55160010451E+02 -0.18992701449E+02  0.10054362567E+04  0.10071273086E+04  0.00000000000E+00 0. -1.
         -2    1    1    2    0  503 -0.12753801852E+02  0.39436697460E+02 -0.61610212869E+02  0.74254500861E+02  0.00000000000E+00 0.  1.
<mgrwt>
<rscale>  2 0.10350607E+03</rscale>
<asrwt>0</asrwt>
<pdfrwt beam="1">  1       21 0.17910069E+00 0.10350607E+03</pdfrwt>
<pdfrwt beam="2">  1       21 0.13499115E-01 0.10350607E+03</pdfrwt>
<totfact> 0.95875044E+03</totfact>
</mgrwt>
</event>
<event>
 5    1  0.1855960E+000  0.6119325E+02  0.7546771E-02  0.1392891E+00
         21   -1    0    0  503  502  0.00000000000E+00  0.00000000000E+00  0.34506020554E+02  0.34506020554E+02  0.00000000000E+00 0.  1.
         21   -1    0    0  501  503 -0.00000000000E+00 -0.00000000000E+00 -0.28090001885E+03  0.28090001885E+03  0.00000000000E+00 0. -1.
         24    1    1    2    0    0  0.75621352542E+01  0.93892623151E+01 -0.15312765783E+03  0.17338004407E+03  0.80419002446E+02 0.  0.
          1    1    1    2  501    0 -0.19756712378E+02  0.67165955676E+01 -0.11232867968E+03  0.11425048192E+03  0.00000000000E+00 0. -1.
         -2    1    1    2    0  502  0.12194577124E+02 -0.16105857883E+02  0.19062339209E+02  0.27775513416E+02  0.00000000000E+00 0.  1.
<mgrwt>
<rscale>  2 0.61193250E+02</rscale>
<asrwt>0</asrwt>
<pdfrwt beam="1">  1       21 0.53086185E-02 0.61193250E+02</pdfrwt>
<pdfrwt beam="2">  1       21 0.43215388E-01 0.61193250E+02</pdfrwt>
<totfact> 0.12282914E+06</totfact>
</mgrwt>
</event>
<event>
 5    1  0.1855960E+000  0.1107972E+03  0.7546771E-02  0.1259101E+00
         21   -1    0    0  503  502  0.00000000000E+00  0.00000000000E+00  0.10492314438E+03  0.10492314438E+03  0.00000000000E+00 0. -1.
         21   -1    0    0  501  503 -0.00000000000E+00 -0.00000000000E+00 -0.13317954253E+03  0.13317954253E+03  0.00000000000E+00 0. -1.
         24    1    1    2    0    0  0.87257941583E+02  0.11111983469E+02  0.15429690525E+02  0.12017785091E+03  0.80419002446E+02 0. -1.
          1    1    1    2  501    0 -0.57851126265E+02 -0.32214827597E+02 -0.47555449610E+02  0.81523424332E+02  0.00000000000E+00 0. -1.
         -2    1    1    2    0  502 -0.29406815318E+02  0.21102844128E+02  0.38693609293E+01  0.36401411668E+02  0.00000000000E+00 0.  1.
<mgrwt>
<rscale>  2 0.11079716E+03</rscale>
<asrwt>0</asrwt>
<pdfrwt beam="1">  1       21 0.16142022E-01 0.11079716E+03</pdfrwt>
<pdfrwt beam="2">  1       21 0.20489160E-01 0.11079716E+03</pdfrwt>
<totfact> 0.75939832E+05</totfact>
</mgrwt>
</event>
<event>
 5    1  0.1855960E+000  0.7686421E+02  0.7546771E-02  0.1338193E+00
         21   -1    0    0  503  502  0.00000000000E+00  0.00000000000E+00  0.87370081924E+02  0.87370081924E+02  0.00000000000E+00 0. -1.
         21   -1    0    0  501  503 -0.00000000000E+00 -0.00000000000E+00 -0.76283469829E+02  0.76283469829E+02  0.00000000000E+00 0. -1.
         24    1    1    2    0    0 -0.22763689836E+02  0.48231612757E+02  0.31614468876E+02  0.10154390499E+03  0.80419002446E+02 0. -1.
          1    1    1    2  501    0  0.19412724104E+02 -0.16951448010E+02 -0.15977737129E+02  0.30323151725E+02  0.00000000000E+00 0. -1.
         -2    1    1    2    0  502  0.33509657324E+01 -0.31280164747E+02 -0.45501196523E+01  0.31786495038E+02  0.00000000000E+00 0.  1.
<mgrwt>
<rscale>  2 0.76864212E+02</rscale>
<asrwt>0</asrwt>
<pdfrwt beam="1">  1       21 0.13441551E-01 0.76864212E+02</pdfrwt>
<pdfrwt beam="2">  1       21 0.11735918E-01 0.76864212E+02</pdfrwt>
<totfact> 0.28265755E+06</totfact>
</mgrwt>
</event>
<event>
 5    1  0.1855960E+000  0.1051841E+03  0.7546771E-02  0.1269757E+00
         21   -1    0    0  503  502  0.00000000000E+00  0.00000000000E+00  0.21157227032E+03  0.21157227032E+03  0.00000000000E+00 0.  1.
         21   -1    0    0  501  503 -0.00000000000E+00 -0.00000000000E+00 -0.11283994963E+03  0.11283994963E+03  0.00000000000E+00 0.  1.
         24    1    1    2    0    0 -0.10167876102E+02  0.68243126261E+02 -0.39643715522E+02  0.11313421287E+03  0.80419002446E+02 0.  1.
          1    1    1    2  501    0 -0.30035074491E+02 -0.65024314794E+01 -0.19957072414E+02  0.36642489737E+02  0.00000000000E+00 0. -1.
         -2    1    1    2    0  502  0.40202950593E+02 -0.61740694781E+02  0.15833310863E+03  0.17463551734E+03  0.00000000000E+00 0.  1.
<mgrwt>
<rscale>  2 0.10518405E+03</rscale>
<asrwt>0</asrwt>
<pdfrwt beam="1">  1       21 0.32549580E-01 0.10518405E+03</pdfrwt>
<pdfrwt beam="2">  1       21 0.17359992E-01 0.10518405E+03</pdfrwt>
<totfact> 0.27782684E+05</totfact>
</mgrwt>
</event>
<event>
 5    1  0.1855960E+000  0.7678956E+02  0.7546771E-02  0.1338417E+00
         21   -1    0    0  501  502  0.00000000000E+00  0.00000000000E+00  0.31273263127E+03  0.31273263127E+03  0.00000000000E+00 0. -1.
         21   -1    0    0  502  503 -0.00000000000E+00 -0.00000000000E+00 -0.59510556974E+02  0.59510556974E+02  0.00000000000E+00 0. -1.
         24    1    1    2    0    0  0.14289406398E+02 -0.38041911604E+02 -0.81734349674E+01  0.90473173744E+02  0.80419002446E+02 0. -1.
          1    1    1    2  501    0 -0.29554414061E+02  0.93882306553E+01  0.24194317940E+03  0.24392233257E+03  0.00000000000E+00 0. -1.
         -2    1    1    2    0  503  0.15265007663E+02  0.28653680949E+02  0.19452329863E+02  0.37847681937E+02  0.00000000000E+00 0.  1.
<mgrwt>
<rscale>  2 0.76789564E+02</rscale>
<asrwt>0</asrwt>
<pdfrwt beam="1">  1       21 0.48112712E-01 0.76789564E+02</pdfrwt>
<pdfrwt beam="2">  1       21 0.91554705E-02 0.76789564E+02</pdfrwt>
<totfact> 0.39787364E+05</totfact>
</mgrwt>
</event>
<event>
 5    1  0.1855960E+000  0.6574417E+02  0.7546771E-02  0.1375194E+00
         21   -1    0    0  503  502  0.00000000000E+00  0.00000000000E+00  0.50823040827E+03  0.50823040827E+03  0.00000000000E+00 0. -1.
         21   -1    0    0  501  503 -0.00000000000E+00 -0.00000000000E+00 -0.11727996165E+02  0.11727996165E+02  0.00000000000E+00 0.  1.
         24    1    1    2    0    0  0.56834238516E+01  0.94969556101E+00  0.19124762418E+03  0.20754776062E+03  0.80419002446E+02 0.  0.
          1    1    1    2  501    0  0.14208547296E+02  0.18309249922E+02  0.44345078696E+02  0.50035961603E+02  0.00000000000E+00 0. -1.
         -2    1    1    2    0  502 -0.19891971148E+02 -0.19258945483E+02  0.26090970923E+03  0.26237468221E+03  0.00000000000E+00 0.  1.
<mgrwt>
<rscale>  2 0.65744170E+02</rscale>
<asrwt>0</asrwt>
<pdfrwt beam="1">  1       21 0.78189277E-01 0.65744170E+02</pdfrwt>
<pdfrwt beam="2">  1       21 0.18043075E-02 0.65744170E+02</pdfrwt>
<totfact> 0.20589549E+06</totfact>
</mgrwt>
</event>
<event>
 5    1  0.1855960E+000  0.1231676E+03  0.7546771E-02  0.1237961E+00
         21   -1    0    0  503  502  0.00000000000E+00  0.00000000000E+00  0.14550537127E+03  0.14550537127E+03  0.00000000000E+00 0.  1.
         21   -1    0    0  501  503 -0.00000000000E+00 -0.00000000000E+00 -0.10974504351E+03  0.10974504351E+03  0.00000000000E+00 0. -1.
         24    1    1    2    0    0  0.47525975444E+02 -0.50535878149E+02 -0.11495343977E+02  0.10682673921E+03  0.80419002446E+02 0.  0.
          1    1    1    2  501    0 -0.21170474478E+02  0.90120101369E+02  0.24827970589E+02  0.95844925708E+02  0.00000000000E+00 0. -1.
         -2    1    1    2    0  502 -0.26355500966E+02 -0.39584223220E+02  0.22427701150E+02  0.52578749870E+02  0.00000000000E+00 0.  1.
<mgrwt>
<rscale>  2 0.12316763E+03</rscale>
<asrwt>0</asrwt>
<pdfrwt beam="1">  1       21 0.22385442E-01 0.12316763E+03</pdfrwt>
<pdfrwt beam="2">  1       21 0.16883853E-01 0.12316763E+03</pdfrwt>
<totfact> 0.59395644E+05</totfact>
</mgrwt>
</event>
<event>
 5    1  0.1855960E+000  0.6609177E+02  0.7546771E-02  0.1373911E+00
         21   -1    0    0  503  502  0.00000000000E+00  0.00000000000E+00  0.75597106274E+02  0.75597106274E+02  0.00000000000E+00 0. -1.
         21   -1    0    0  501  503 -0.00000000000E+00 -0.00000000000E+00 -0.62370776282E+02  0.62370776282E+02  0.00000000000E+00 0.  1.
         24    1    1    2    0    0 -0.78405279859E+01  0.15020708173E+02  0.79468215631E+01  0.82567932519E+02  0.80419002446E+02 0.  0.
          1    1    1    2  501    0  0.23508147368E+02  0.55369881428E+01 -0.91153985170E+01  0.25814370426E+02  0.00000000000E+00 0. -1.
         -2    1    1    2    0  502 -0.15667619382E+02 -0.20557696316E+02  0.14394906946E+02  0.29585579611E+02  0.00000000000E+00 0.  1.
<mgrwt>
<rscale>  2 0.66091770E+02</rscale>
<asrwt>0</asrwt>
<pdfrwt beam="1">  1       21 0.11630324E-01 0.66091770E+02</pdfrwt>
<pdfrwt beam="2">  1       21 0.95955040E-02 0.66091770E+02</pdfrwt>
<totfact> 0.51017939E+06</totfact>
</mgrwt>
</event>
<event>
 5    1  0.1855960E+000  0.1443022E+03  0.7546771E-02  0.1207655E+00
         21   -1    0    0  503  502  0.00000000000E+00  0.00000000000E+00  0.32914176539E+03  0.32914176539E+03  0.00000000000E+00 0.  1.
         21   -1    0    0  501  503 -0.00000000000E+00 -0.00000000000E+00 -0.30658368163E+03  0.30658368163E+03  0.00000000000E+00 0. -1.
         24    1    1    2    0    0  0.74630596268E+02 -0.71961185310E+02  0.19552981670E+03  0.23547242570E+03  0.80419002446E+02 0.  1.
          1    1    1    2  501    0 -0.36011609460E+02 -0.30946362321E+02 -0.25734463856E+03  0.26168831909E+03  0.00000000000E+00 0. -1.
         -2    1    1    2    0  502 -0.38618986808E+02  0.10290754763E+03  0.84372905619E+02  0.13856470223E+03  0.00000000000E+00 0.  1.
<mgrwt>
<rscale>  2 0.14430219E+03</rscale>
<asrwt>0</asrwt>
<pdfrwt beam="1">  1       21 0.50637195E-01 0.14430219E+03</pdfrwt>
<pdfrwt beam="2">  1       21 0.47166720E-01 0.14430219E+03</pdfrwt>
<totfact> 0.16480722E+04</totfact>
</mgrwt>
</event>
<event>
 5    1  0.1855960E+000  0.6427786E+02  0.7546771E-02  0.1380709E+00
         21   -1    0    0  501  502  0.00000000000E+00  0.00000000000E+00  0.16678690555E+03  0.16678690555E+03  0.00000000000E+00 0. -1.
         21   -1    0    0  502  503 -0.00000000000E+00 -0.00000000000E+00 -0.66732501804E+02  0.66732501804E+02  0.00000000000E+00 0. -1.
         24    1    1    2    0    0 -0.20644579078E+02  0.23683068005E+02  0.16854584181E+02  0.87968058508E+02  0.80419002446E+02 0.  0.
          1    1    1    2  501    0  0.18028158850E+00 -0.21651801352E+02  0.10980796260E+03  0.11192239121E+03  0.00000000000E+00 0. -1.
         -2    1    1    2    0  503  0.20464297490E+02 -0.20312666526E+01 -0.26608143036E+02  0.33628957637E+02  0.00000000000E+00 0.  1.
<mgrwt>
<rscale>  2 0.64277857E+02</rscale>
<asrwt>0</asrwt>
<pdfrwt beam="1">  1       21 0.25659524E-01 0.64277857E+02</pdfrwt>
<pdfrwt beam="2">  1       21 0.10266539E-01 0.64277857E+02</pdfrwt>
<totfact> 0.10991906E+06</totfact>
</mgrwt>
</event>
<event>
 5    1  0.1855960E+000  0.8064361E+02  0.7546771E-02  0.1327235E+00
         21   -1    0    0  503  502  0.00000000000E+00  0.00000000000E+00  0.28893514758E+03  0.28893514758E+03  0.00000000000E+00 0. -1.
         21   -1    0    0  501  503 -0.00000000000E+00 -0.00000000000E+00 -0.10050627435E+03  0.10050627435E+03  0.00000000000E+00 0. -1.
         24    1    1    2    0    0 -0.53673887495E+02  0.21699945602E+02  0.26542442760E+03  0.28331804842E+03  0.80419002446E+02 0. -1.
          1    1    1    2  501    0  0.18072822110E+02 -0.19410833609E+02 -0.61982718771E+02  0.67418578942E+02  0.00000000000E+00 0. -1.
         -2    1    1    2    0  502  0.35601065385E+02 -0.22891119937E+01 -0.15012835604E+02  0.38704794575E+02  0.00000000000E+00 0.  1.
<mgrwt>
<rscale>  2 0.80643614E+02</rscale>
<asrwt>0</asrwt>
<pdfrwt beam="1">  1       21 0.44451561E-01 0.80643614E+02</pdfrwt>
<pdfrwt beam="2">  1       21 0.15462504E-01 0.80643614E+02</pdfrwt>
<totfact> 0.18651724E+05</totfact>
</mgrwt>
</event>
<event>
 5    1  0.1855960E+000  0.2202363E+03  0.7546771E-02  0.1133707E+00
         21   -1    0    0  503  502  0.00000000000E+00  0.00000000000E+00  0.54659716618E+02  0.54659716618E+02  0.00000000000E+00 0. -1.
         21   -1    0    0  501  503 -0.00000000000E+00 -0.00000000000E+00 -0.15402133606E+04  0.15402133606E+04  0.00000000000E+00 0. -1.
         24    1    1    2    0    0 -0.63217801088E+02 -0.19906198099E+03 -0.27778127395E+03  0.35672372329E+03  0.80419002446E+02 0. -1.
          1    1    1    2  501    0  0.38002225891E+02  0.38356153371E+02 -0.75699681598E+03  0.75891998463E+03  0.00000000000E+00 0. -1.
         -2    1    1    2    0  502  0.25215575197E+02  0.16070582761E+03 -0.45077555410E+03  0.47922936934E+03  0.00000000000E+00 0.  1.
<mgrwt>
<rscale>  2 0.22023635E+03</rscale>
<asrwt>0</asrwt>
<pdfrwt beam="1">  1       21 0.84091872E-02 0.22023635E+03</pdfrwt>
<pdfrwt beam="2">  1       21 0.23695590E+00 0.22023635E+03</pdfrwt>
<totfact> 0.85243258E+03</totfact>
</mgrwt>
</event>
<event>
 5    1  0.1855960E+000  0.6987749E+02  0.7546771E-02  0.1360510E+00
         21   -1    0    0  503  502  0.00000000000E+00  0.00000000000E+00  0.18626122200E+02  0.18626122200E+02  0.00000000000E+00 0.  1.
         21   -1    0    0  501  503 -0.00000000000E+00 -0.00000000000E+00 -0.86279493709E+03  0.86279493709E+03  0.00000000000E+00 0.  1.
         24    1    1    2    0    0 -0.69679273851E+01  0.21235558201E+01 -0.74832486933E+03  0.75266884319E+03  0.80419002446E+02 0.  1.
          1    1    1    2  501    0 -0.17385003918E+01  0.27793885961E+02 -0.93439432618E+02  0.97501025884E+02  0.00000000000E+00 0. -1.
         -2    1    1    2    0  502  0.87064277769E+01 -0.29917441781E+02 -0.24045129429E+01  0.31251190215E+02  0.00000000000E+00 0.  1.
<mgrwt>
<rscale>  2 0.69877494E+02</rscale>
<asrwt>0</asrwt>
<pdfrwt beam="1">  1       21 0.28655578E-02 0.69877494E+02</pdfrwt>
<pdfrwt beam="2">  1       21 0.13273766E+00 0.69877494E+02</pdfrwt>
<totfact> 0.29151453E+05</totfact>
</mgrwt>
</event>
<event>
 5    1  0.1855960E+000  0.9922884E+02  0.7546771E-02  0.1281926E+00
         21   -1    0    0  503  502  0.00000000000E+00  0.00000000000E+00  0.32612791012E+02  0.32612791012E+02  0.00000000000E+00 0.  1.
         21   -1    0    0  501  503 -0.00000000000E+00 -0.00000000000E+00 -0.10428163341E+04  0.10428163341E+04  0.00000000000E+00 0. -1.
         24    1    1    2    0    0 -0.16158678609E+02  0.31354742586E+02 -0.29588803112E+03  0.30864407607E+03  0.80419002446E+02 0.  0.
          1    1    1    2  501    0  0.39903593866E+02 -0.60856537436E+02 -0.72403836968E+03  0.72768631685E+03  0.00000000000E+00 0. -1.
         -2    1    1    2    0  502 -0.23744915257E+02  0.29501794850E+02  0.97228576887E+01  0.39098732225E+02  0.00000000000E+00 0.  1.
<mgrwt>
<rscale>  2 0.99228838E+02</rscale>
<asrwt>0</asrwt>
<pdfrwt beam="1">  1       21 0.50173517E-02 0.99228838E+02</pdfrwt>
<pdfrwt beam="2">  1       21 0.16043331E+00 0.99228838E+02</pdfrwt>
<totfact> 0.70816695E+04</totfact>
</mgrwt>
</event>
<event>
 5    1  0.1855960E+000  0.1620404E+03  0.7546771E-02  0.1186412E+00
         21   -1    0    0  501  502  0.00000000000E+00  0.00000000000E+00  0.18983151325E+03  0.18983151325E+03  0.00000000000E+00 0. -1.
         21   -1    0    0  502  503 -0.00000000000E+00 -0.00000000000E+00 -0.13955750204E+03  0.13955750204E+03  0.00000000000E+00 0. -1.
         24    1    1    2    0    0  0.86956604577E+02 -0.43676562736E+01  0.30468616366E+02  0.12237679534E+03  0.80419002446E+02 0. -1.
          1    1    1    2  501    0 -0.67718079917E+02 -0.88095001910E+02  0.34832613280E+01  0.11116924403E+03  0.00000000000E+00 0. -1.
         -2    1    1    2    0  503 -0.19238524660E+02  0.92462658184E+02  0.16322133519E+02  0.95842975914E+02  0.00000000000E+00 0.  1.
<mgrwt>
<rscale>  2 0.16204038E+03</rscale>
<asrwt>0</asrwt>
<pdfrwt beam="1">  1       21 0.29204848E-01 0.16204038E+03</pdfrwt>
<pdfrwt beam="2">  1       21 0.21470385E-01 0.16204038E+03</pdfrwt>
<totfact> 0.22883022E+05</totfact>
</mgrwt>
</event>
<event>
 5    1  0.1855960E+000  0.6760855E+02  0.7546771E-02  0.1368419E+00
         21   -1    0    0  503  502  0.00000000000E+00  0.00000000000E+00  0.56515111320E+03  0.56515111320E+03  0.00000000000E+00 0. -1.
         21   -1    0    0  501  503 -0.00000000000E+00 -0.00000000000E+00 -0.14054646131E+02  0.14054646131E+02  0.00000000000E+00 0. -1.
         24    1    1    2    0    0  0.25911592455E+02 -0.34814754125E+02  0.34123631421E+03  0.35326040794E+03  0.80419002446E+02 0. -1.
          1    1    1    2  501    0 -0.14849768286E+02  0.14792970881E+02  0.74476337390E+01  0.22244434224E+02  0.00000000000E+00 0. -1.
         -2    1    1    2    0  502 -0.11061824169E+02  0.20021783244E+02  0.20241251912E+03  0.20370091716E+03  0.00000000000E+00 0.  1.
<mgrwt>
<rscale>  2 0.67608549E+02</rscale>
<asrwt>0</asrwt>
<pdfrwt beam="1">  1       21 0.86946307E-01 0.67608549E+02</pdfrwt>
<pdfrwt beam="2">  1       21 0.21622537E-02 0.67608549E+02</pdfrwt>
<totfact> 0.12245368E+06</totfact>
</mgrwt>
</event>
<event>
 5    1  0.1855960E+000  0.1356444E+03  0.7546771E-02  0.1219313E+00
         21   -1    0    0  503  502  0.00000000000E+00  0.00000000000E+00  0.38161516647E+02  0.38161516647E+02  0.00000000000E+00 0.  1.
         21   -1    0    0  501  503 -0.00000000000E+00 -0.00000000000E+00 -0.95369819923E+03  0.95369819923E+03  0.00000000000E+00 0. -1.
         24    1    1    2    0    0  0.89205513882E+02 -0.27747438929E+02 -0.30548749213E+03  0.32941974421E+03  0.80419002446E+02 0.  0.
          1    1    1    2  501    0 -0.10933121720E+03  0.48059193875E+02 -0.62058099801E+03  0.63196817662E+03  0.00000000000E+00 0. -1.
         -2    1    1    2    0  502  0.20125703316E+02 -0.20311754946E+02  0.10531807555E+02  0.30471795046E+02  0.00000000000E+00 0.  1.
<mgrwt>
<rscale>  2 0.13564437E+03</rscale>
<asrwt>0</asrwt>
<pdfrwt beam="1">  1       21 0.58710023E-02 0.13564437E+03</pdfrwt>
<pdfrwt beam="2">  1       21 0.14672281E+00 0.13564437E+03</pdfrwt>
<totfact> 0.66877935E+04</totfact>
</mgrwt>
</event>
<event>
 5    1  0.1855960E+000  0.7947474E+02  0.7546771E-02  0.1330549E+00
         21   -1    0    0  503  502  0.00000000000E+00  0.00000000000E+00  0.17921313918E+03  0.17921313918E+03  0.00000000000E+00 0.  1.
         21   -1    0    0  501  503 -0.00000000000E+00 -0.00000000000E+00 -0.75993040928E+02  0.75993040928E+02  0.00000000000E+00 0. -1.
         24    1    1    2    0    0 -0.24047218233E+02 -0.19829917687E+02 -0.16436452456E+02  0.87800155261E+02  0.80419002446E+02 0. -1.
          1    1    1    2  501    0  0.29474686863E+02  0.41197391269E+02  0.52865867611E+01  0.50930641196E+02  0.00000000000E+00 0. -1.
         -2    1    1    2    0  502 -0.54274686300E+01 -0.21367473582E+02  0.11436996394E+03  0.11647538365E+03  0.00000000000E+00 0.  1.
<mgrwt>
<rscale>  2 0.79474744E+02</rscale>
<asrwt>0</asrwt>
<pdfrwt beam="1">  1       21 0.27571252E-01 0.79474744E+02</pdfrwt>
<pdfrwt beam="2">  1       21 0.11691237E-01 0.79474744E+02</pdfrwt>
<totfact> 0.77137542E+05</totfact>
</mgrwt>
</event>
<event>
 5    1  0.1855960E+000  0.7585090E+02  0.7546771E-02  0.1341256E+00
         21   -1    0    0  503  502  0.00000000000E+00  0.00000000000E+00  0.98437927748E+03  0.98437927748E+03  0.00000000000E+00 0. -1.
         21   -1    0    0  501  503 -0.00000000000E+00 -0.00000000000E+00 -0.88303675118E+01  0.88303675118E+01  0.00000000000E+00 0.  1.
         24    1    1    2    0    0  0.65527796241E+01  0.22598657865E+02  0.67378519309E+03  0.67897521357E+03  0.80419002446E+02 0. -1.
          1    1    1    2  501    0 -0.34060352612E+02 -0.31149691744E+01  0.52217255503E+02  0.62421570193E+02  0.00000000000E+00 0. -1.
         -2    1    1    2    0  502  0.27507572988E+02 -0.19483688691E+02  0.24954646137E+03  0.25181286123E+03  0.00000000000E+00 0.  1.
<mgrwt>
<rscale>  2 0.75850898E+02</rscale>
<asrwt>0</asrwt>
<pdfrwt beam="1">  1       21 0.15144288E+00 0.75850898E+02</pdfrwt>
<pdfrwt beam="2">  1       21 0.13585189E-02 0.75850898E+02</pdfrwt>
<totfact> 0.68734179E+05</totfact>
</mgrwt>
</event>
<event>
 5    1  0.1855960E+000  0.1103059E+03  0.7546771E-02  0.1260004E+00
         21   -1    0    0  503  502  0.00000000000E+00  0.00000000000E+00  0.74774217675E+03  0.74774217675E+03  0.00000000000E+00 0. -1.
         21   -1    0    0  501  503 -0.00000000000E+00 -0.00000000000E+00 -0.28236121580E+02  0.28236121580E+02  0.00000000000E+00 0. -1.
         24    1    1    2    0    0  0.16190921317E+02 -0.72860725022E+01  0.97377750558E+02  0.12753381922E+03  0.80419002446E+02 0.  1.
          1    1    1    2  501    0 -0.69158294611E+02 -0.28000018067E+02  0.11335865040E+03  0.13570944825E+03  0.00000000000E+00 0. -1.
         -2    1    1    2    0  502  0.52967373295E+02  0.35286090569E+02  0.50876965422E+03  0.51273503086E+03  0.00000000000E+00 0.  1.
<mgrwt>
<rscale>  2 0.11030591E+03</rscale>
<asrwt>0</asrwt>
<pdfrwt beam="1">  1       21 0.11503724E+00 0.11030591E+03</pdfrwt>
<pdfrwt beam="2">  1       21 0.43440193E-02 0.11030591E+03</pdfrwt>
<totfact> 0.20554269E+05</totfact>
</mgrwt>
</event>
<event>
 5    1  0.1855960E+000  0.9285899E+02  0.7546771E-02  0.1296072E+00
         21   -1    0    0  501  502  0.00000000000E+00  0.00000000000E+00  0.83494084300E+02  0.83494084300E+02  0.00000000000E+00 0. -1.
         21   -1    0    0  502  503 -0.00000000000E+00 -0.00000000000E+00 -0.31320427811E+03  0.31320427811E+03  0.00000000000E+00 0.  1.
         24    1    1    2    0    0  0.62707147911E+02  0.10934109653E+02 -0.39699106609E+02  0.10997716205E+03  0.80419002446E+02 0.  1.
          1    1    1    2  501    0 -0.28466621684E+01 -0.22083364064E+02  0.41630201162E+02  0.47210720209E+02  0.00000000000E+00 0. -1.
         -2    1    1    2    0  503 -0.59860485743E+02  0.11149254411E+02 -0.23164128836E+03  0.23951048015E+03  0.00000000000E+00 0.  1.
<mgrwt>
<rscale>  2 0.92858990E+02</rscale>
<asrwt>0</asrwt>
<pdfrwt beam="1">  1       21 0.12845244E-01 0.92858990E+02</pdfrwt>
<pdfrwt beam="2">  1       21 0.48185272E-01 0.92858990E+02</pdfrwt>
<totfact> 0.21947952E+05</totfact>
</mgrwt>
</event>
<event>
 5    1  0.1855960E+000  0.9321029E+02  0.7546771E-02  0.1295259E+00
         21   -1    0    0  501  502  0.00000000000E+00  0.00000000000E+00  0.48746321660E+04  0.48746321660E+04  0.00000000000E+00 0. -1.
         21   -1    0    0  502  503 -0.00000000000E+00 -0.00000000000E+00 -0.20943119275E+01  0.20943119275E+01  0.00000000000E+00 0. -1.
         24    1    1    2    0    0 -0.27851626302E+02  0.40036538213E+02  0.17118401677E+04  0.17144219473E+04  0.80419002446E+02 0. -1.
          1    1    1    2  501    0  0.36699345144E+02 -0.60112070605E+02  0.28319413555E+04  0.28328169980E+04  0.00000000000E+00 0. -1.
         -2    1    1    2    0  503 -0.88477188419E+01  0.20075532393E+02  0.32875633079E+03  0.32948753264E+03  0.00000000000E+00 0.  1.
<mgrwt>
<rscale>  2 0.93210287E+02</rscale>
<asrwt>0</asrwt>
<pdfrwt beam="1">  1       21 0.74993433E+00 0.93210287E+02</pdfrwt>
<pdfrwt beam="2">  1       21 0.32220574E-03 0.93210287E+02</pdfrwt>
<totfact> 0.43750265E+02</totfact>
</mgrwt>
</event>
<event>
 5    1  0.1855960E+000  0.1059663E+03  0.7546771E-02  0.1268227E+00
         21   -1    0    0  503  502  0.00000000000E+00  0.00000000000E+00  0.20498051931E+02  0.20498051931E+02  0.00000000000E+00 0.  1.
         21   -1    0    0  501  503 -0.00000000000E+00 -0.00000000000E+00 -0.11258784697E+04  0.11258784697E+04  0.00000000000E+00 0. -1.
         24    1    1    2    0    0  0.70143628048E+01  0.61943530370E+02 -0.29645829434E+03  0.31343410548E+03  0.80419002446E+02 0.  1.
          1    1    1    2  501    0  0.17578850929E+02  0.18821856244E+02 -0.66918814812E+03  0.66968354904E+03  0.00000000000E+00 0. -1.
         -2    1    1    2    0  502 -0.24593213734E+02 -0.80765386614E+02 -0.13973397535E+03  0.16325886716E+03  0.00000000000E+00 0.  1.
<mgrwt>
<rscale>  2 0.10596634E+03</rscale>
<asrwt>0</asrwt>
<pdfrwt beam="1">  1       21 0.31535463E-02 0.10596634E+03</pdfrwt>
<pdfrwt beam="2">  1       21 0.17321208E+00 0.10596634E+03</pdfrwt>
<totfact> 0.12378685E+05</totfact>
</mgrwt>
</event>
<event>
 5    1  0.1855960E+000  0.6689904E+02  0.7546771E-02  0.1370967E+00
         21   -1    0    0  501  502  0.00000000000E+00  0.00000000000E+00  0.89880414826E+01  0.89880414826E+01  0.00000000000E+00 0.  1.
         21   -1    0    0  502  503 -0.00000000000E+00 -0.00000000000E+00 -0.73636483090E+03  0.73636483090E+03  0.00000000000E+00 0. -1.
         24    1    1    2    0    0 -0.12834872049E+02 -0.48325453790E+01 -0.39467576110E+03  0.40301893230E+03  0.80419002446E+02 0. -1.
          1    1    1    2  501    0  0.10385301345E+02 -0.22497277273E+02 -0.32435179931E+02  0.40816943367E+02  0.00000000000E+00 0. -1.
         -2    1    1    2    0  503  0.24495707044E+01  0.27329822652E+02 -0.30026584838E+03  0.30151699671E+03  0.00000000000E+00 0.  1.
<mgrwt>
<rscale>  2 0.66899041E+02</rscale>
<asrwt>0</asrwt>
<pdfrwt beam="1">  1       21 0.13827755E-02 0.66899041E+02</pdfrwt>
<pdfrwt beam="2">  1       21 0.11328690E+00 0.66899041E+02</pdfrwt>
<totfact> 0.13549748E+06</totfact>
</mgrwt>
</event>
<event>
 5    1  0.1855960E+000  0.7541037E+02  0.7546771E-02  0.1342605E+00
         21   -1    0    0  501  502  0.00000000000E+00  0.00000000000E+00  0.34378667357E+02  0.34378667357E+02  0.00000000000E+00 0.  1.
         21   -1    0    0  502  503 -0.00000000000E+00 -0.00000000000E+00 -0.17217337596E+03  0.17217337596E+03  0.00000000000E+00 0.  1.
         24    1    1    2    0    0  0.43874210765E+02 -0.30677650427E+02 -0.79458431846E+02  0.12508766107E+03  0.80419002446E+02 0.  1.
          1    1    1    2  501    0 -0.17344054060E+02  0.17310335754E+02 -0.14384257922E+02  0.28414271258E+02  0.00000000000E+00 0. -1.
         -2    1    1    2    0  503 -0.26530156705E+02  0.13367314672E+02 -0.43952018838E+02  0.53050110992E+02  0.00000000000E+00 0.  1.
<mgrwt>
<rscale>  2 0.75410375E+02</rscale>
<asrwt>0</asrwt>
<pdfrwt beam="1">  1       21 0.52890259E-02 0.75410375E+02</pdfrwt>
<pdfrwt beam="2">  1       21 0.26488211E-01 0.75410375E+02</pdfrwt>
<totfact> 0.31981390E+06</totfact>
</mgrwt>
</event>
<event>
 5    1  0.1855960E+000  0.9115893E+02  0.7546771E-02  0.1300069E+00
         21   -1    0    0  501  502  0.00000000000E+00  0.00000000000E+00  0.16325695295E+02  0.16325695295E+02  0.00000000000E+00 0. -1.
         21   -1    0    0  502  503 -0.00000000000E+00 -0.00000000000E+00 -0.12066526010E+04  0.12066526010E+04  0.00000000000E+00 0.  1.
         24    1    1    2    0    0  0.22148400640E+02  0.33857806262E+02 -0.38181356537E+03  0.39228270081E+03  0.80419002446E+02 0. -1.
          1    1    1    2  501    0 -0.53862562229E+02 -0.17660014122E+02 -0.64651340929E+02  0.85981670096E+02  0.00000000000E+00 0. -1.
         -2    1    1    2    0  503  0.31714161589E+02 -0.16197792140E+02 -0.74386199945E+03  0.74471392543E+03  0.00000000000E+00 0.  1.
<mgrwt>
<rscale>  2 0.91158925E+02</rscale>
<asrwt>0</asrwt>
<pdfrwt beam="1">  1       21 0.25116454E-02 0.91158925E+02</pdfrwt>
<pdfrwt beam="2">  1       21 0.18563886E+00 0.91158925E+02</pdfrwt>
<totfact> 0.14990714E+05</totfact>
</mgrwt>
</event>
<event>
 5    1  0.1855960E+000  0.2252490E+03  0.7546771E-02  0.1130029E+00
         21   -1    0    0  501  502  0.00000000000E+00  0.00000000000E+00  0.97156610455E+02  0.97156610455E+02  0.00000000000E+00 0.  1.
         21   -1    0    0  502  503 -0.00000000000E+00 -0.00000000000E+00 -0.74886326230E+03  0.74886326230E+03  0.00000000000E+00 0.  1.
         24    1    1    2    0    0  0.17236220307E+02 -0.20238099333E+03 -0.43641365533E+03  0.48803611369E+03  0.80419002446E+02 0.  1.
          1    1    1    2  501    0 -0.23761527599E+02 -0.52297610968E+01  0.28651114586E+02  0.37587856576E+02  0.00000000000E+00 0. -1.
         -2    1    1    2    0  503  0.65253072913E+01  0.20761075443E+03 -0.24394411109E+03  0.32039590248E+03  0.00000000000E+00 0.  1.
<mgrwt>
<rscale>  2 0.22524901E+03</rscale>
<asrwt>0</asrwt>
<pdfrwt beam="1">  1       21 0.14947171E-01 0.22524901E+03</pdfrwt>
<pdfrwt beam="2">  1       21 0.11520973E+00 0.22524901E+03</pdfrwt>
<totfact> 0.22601563E+04</totfact>
</mgrwt>
</event>
<event>
 5    1  0.1855960E+000  0.8858953E+02  0.7546771E-02  0.1306304E+00
         21   -1    0    0  503  502  0.00000000000E+00  0.00000000000E+00  0.77351534491E+02  0.77351534491E+02  0.00000000000E+00 0.  1.
         21   -1    0    0  501  503 -0.00000000000E+00 -0.00000000000E+00 -0.70668547057E+03  0.70668547057E+03  0.00000000000E+00 0.  1.
         24    1    1    2    0    0  0.65107897216E+02  0.67850476772E+01 -0.39623001981E+03  0.40957358277E+03  0.80419002446E+02 0.  1.
          1    1    1    2  501    0 -0.27854429651E+02 -0.19633958318E+02 -0.29724056659E+03  0.29918776044E+03  0.00000000000E+00 0. -1.
         -2    1    1    2    0  502 -0.37253467564E+02  0.12848910641E+02  0.64136650329E+02  0.75275661841E+02  0.00000000000E+00 0.  1.
<mgrwt>
<rscale>  2 0.88589529E+02</rscale>
<asrwt>0</asrwt>
<pdfrwt beam="1">  1       21 0.11900236E-01 0.88589529E+02</pdfrwt>
<pdfrwt beam="2">  1       21 0.10872084E+00 0.88589529E+02</pdfrwt>
<totfact> 0.42775885E+04</totfact>
</mgrwt>
</event>
<event>
 5    1  0.1855960E+000  0.7280356E+02  0.7546771E-02  0.1350811E+00
         21   -1    0    0  503  502  0.00000000000E+00  0.00000000000E+00  0.11501404826E+03  0.11501404826E+03  0.00000000000E+00 0. -1.
         21   -1    0    0  501  503 -0.00000000000E+00 -0.00000000000E+00 -0.67899077887E+02  0.67899077887E+02  0.00000000000E+00 0. -1.
         24    1    1    2    0    0  0.16925190372E+02 -0.57215949189E+01  0.34848841216E+02  0.89447506427E+02  0.80419002446E+02 0. -1.
          1    1    1    2  501    0 -0.23250340105E+01  0.32576984371E+02 -0.27925308135E+02  0.42970786917E+02  0.00000000000E+00 0. -1.
         -2    1    1    2    0  502 -0.14600156361E+02 -0.26855389452E+02  0.40191437294E+02  0.50494832806E+02  0.00000000000E+00 0.  1.
<mgrwt>
<rscale>  2 0.72803560E+02</rscale>
<asrwt>0</asrwt>
<pdfrwt beam="1">  1       21 0.17694469E-01 0.72803560E+02</pdfrwt>
<pdfrwt beam="2">  1       21 0.10446012E-01 0.72803560E+02</pdfrwt>
<totfact> 0.21147874E+06</totfact>
</mgrwt>
</event>
<event>
 5    1  0.1855960E+000  0.8209507E+02  0.7546771E-02  0.1323209E+00
         21   -1    0    0  503  502  0.00000000000E+00  0.00000000000E+00  0.73927849598E+02  0.73927849598E+02  0.00000000000E+00 0.  1.
         21   -1    0    0  501  503 -0.00000000000E+00 -0.00000000000E+00 -0.40388302418E+03  0.40388302418E+03  0.00000000000E+00 0.  1.
         24    1    1    2    0    0  0.50120804525E+02 -0.18720829795E+02 -0.13803605254E+03  0.16847472294E+03  0.80419002446E+02 0.  1.
          1    1    1    2  501    0 -0.35193176893E+02 -0.88124981269E+01 -0.24501761658E+03  0.24768902329E+03  0.00000000000E+00 0. -1.
         -2    1    1    2    0  502 -0.14927627632E+02  0.27533327922E+02  0.53098494537E+02  0.61647127551E+02  0.00000000000E+00 0.  1.
<mgrwt>
<rscale>  2 0.82095073E+02</rscale>
<asrwt>0</asrwt>
<pdfrwt beam="1">  1       21 0.11373515E-01 0.82095073E+02</pdfrwt>
<pdfrwt beam="2">  1       21 0.62135849E-01 0.82095073E+02</pdfrwt>
<totfact> 0.16113368E+05</totfact>
</mgrwt>
</event>
<event>
 5    1  0.1855960E+000  0.7249977E+02  0.7546771E-02  0.1351793E+00
         21   -1    0    0  501  502  0.00000000000E+00  0.00000000000E+00  0.31887266633E+02  0.31887266633E+02  0.00000000000E+00 0. -1.
         21   -1    0    0  502  503 -0.00000000000E+00 -0.00000000000E+00 -0.23948330316E+03  0.23948330316E+03  0.00000000000E+00 0.  1.
         24    1    1    2    0    0  0.12106019230E+02  0.38126754493E+01 -0.14521234988E+03  0.16647803071E+03  0.80419002446E+02 0.  0.
          1    1    1    2  501    0  0.38802804456E+01  0.27848181289E+02  0.51750550729E+01  0.28589490594E+02  0.00000000000E+00 0. -1.
         -2    1    1    2    0  503 -0.15986299675E+02 -0.31660856738E+02 -0.67558741722E+02  0.76303048496E+02  0.00000000000E+00 0.  1.
<mgrwt>
<rscale>  2 0.72499766E+02</rscale>
<asrwt>0</asrwt>
<pdfrwt beam="1">  1       21 0.49057331E-02 0.72499766E+02</pdfrwt>
<pdfrwt beam="2">  1       21 0.36843587E-01 0.72499766E+02</pdfrwt>
<totfact> 0.19262851E+06</totfact>
</mgrwt>
</event>
<event>
 5    1  0.1855960E+000  0.6818135E+02  0.7546771E-02  0.1366389E+00
         21   -1    0    0  501  502  0.00000000000E+00  0.00000000000E+00  0.84497861195E+02  0.84497861195E+02  0.00000000000E+00 0. -1.
         21   -1    0    0  502  503 -0.00000000000E+00 -0.00000000000E+00 -0.13712322792E+03  0.13712322792E+03  0.00000000000E+00 0. -1.
         24    1    1    2    0    0 -0.13439451405E+02 -0.19161819632E+01 -0.10248122242E+03  0.13097292663E+03  0.80419002446E+02 0. -1.
          1    1    1    2  501    0  0.29105216202E+02 -0.14153198978E+02  0.58291396855E+02  0.66673185006E+02  0.00000000000E+00 0. -1.
         -2    1    1    2    0  503 -0.15665764796E+02  0.16069380941E+02 -0.84355411624E+01  0.23974977480E+02  0.00000000000E+00 0.  1.
<mgrwt>
<rscale>  2 0.68181346E+02</rscale>
<asrwt>0</asrwt>
<pdfrwt beam="1">  1       21 0.12999671E-01 0.68181346E+02</pdfrwt>
<pdfrwt beam="2">  1       21 0.21095881E-01 0.68181346E+02</pdfrwt>
<totfact> 0.10486496E+06</totfact>
</mgrwt>
</event>
<event>
 5    1  0.1855960E+000  0.1137045E+03  0.7546771E-02  0.1253859E+00
         21   -1    0    0  501  502  0.00000000000E+00  0.00000000000E+00  0.13516751695E+03  0.13516751695E+03  0.00000000000E+00 0. -1.
         21   -1    0    0  502  503 -0.00000000000E+00 -0.00000000000E+00 -0.10891421247E+03  0.10891421247E+03  0.00000000000E+00 0. -1.
         24    1    1    2    0    0 -0.58842977515E+02 -0.56956092634E+02 -0.19898743711E+02  0.11648891984E+03  0.80419002446E+02 0. -1.
          1    1    1    2  501    0  0.77887669869E+02  0.48814291931E+02  0.52592788885E+02  0.10590243461E+03  0.00000000000E+00 0. -1.
         -2    1    1    2    0  503 -0.19044692354E+02  0.81418007027E+01 -0.64407406928E+01  0.21690374967E+02  0.00000000000E+00 0.  1.
<mgrwt>
<rscale>  2 0.11370452E+03</rscale>
<asrwt>0</asrwt>
<pdfrwt beam="1">  1       21 0.20795003E-01 0.11370452E+03</pdfrwt>
<pdfrwt beam="2">  1       21 0.16756033E-01 0.11370452E+03</pdfrwt>
<totfact> 0.69065732E+05</totfact>
</mgrwt>
</event>
<event>
 5    1  0.1855960E+000  0.1117056E+03  0.7546771E-02  0.1257444E+00
         21   -1    0    0  501  502  0.00000000000E+00  0.00000000000E+00  0.65422391655E+02  0.65422391655E+02  0.00000000000E+00 0.  1.
         21   -1    0    0  502  503 -0.00000000000E+00 -0.00000000000E+00 -0.20669293356E+03  0.20669293356E+03  0.00000000000E+00 0. -1.
         24    1    1    2    0    0 -0.50726139924E+01  0.18534827269E+02 -0.37409249756E+02  0.90752075218E+02  0.80419002446E+02 0.  0.
          1    1    1    2  501    0  0.69251448348E+02  0.10930229410E+02 -0.22504896355E+02  0.73632216952E+02  0.00000000000E+00 0. -1.
         -2    1    1    2    0  503 -0.64178834356E+02 -0.29465056679E+02 -0.81356395796E+02  0.10773103305E+03  0.00000000000E+00 0.  1.
<mgrwt>
<rscale>  2 0.11170563E+03</rscale>
<asrwt>0</asrwt>
<pdfrwt beam="1">  1       21 0.10064984E-01 0.11170563E+03</pdfrwt>
<pdfrwt beam="2">  1       21 0.31798912E-01 0.11170563E+03</pdfrwt>
<totfact> 0.76553738E+05</totfact>
</mgrwt>
</event>
<event>
 5    1  0.1855960E+000  0.8313335E+02  0.7546771E-02  0.1320387E+00
         21   -1    0    0  501  502  0.00000000000E+00  0.00000000000E+00  0.14131362136E+02  0.14131362136E+02  0.00000000000E+00 0. -1.
         21   -1    0    0  502  503 -0.00000000000E+00 -0.00000000000E+00 -0.89630841437E+03  0.89630841437E+03  0.00000000000E+00 0.  1.
         24    1    1    2    0    0 -0.39462016490E+02  0.23442207795E+02 -0.47532478340E+03  0.48425990287E+03  0.80419002446E+02 0.  0.
          1    1    1    2  501    0  0.25302565331E+02 -0.42780423596E+02 -0.57490784952E+02  0.75997202644E+02  0.00000000000E+00 0. -1.
         -2    1    1    2    0  503  0.14159451159E+02  0.19338215801E+02 -0.34936148388E+03  0.35018267100E+03  0.00000000000E+00 0.  1.
<mgrwt>
<rscale>  2 0.83133352E+02</rscale>
<asrwt>0</asrwt>
<pdfrwt beam="1">  1       21 0.21740558E-02 0.83133352E+02</pdfrwt>
<pdfrwt beam="2">  1       21 0.13789360E+00 0.83133352E+02</pdfrwt>
<totfact> 0.41194264E+05</totfact>
</mgrwt>
</event>
<event>
 5    1  0.1855960E+000  0.8540289E+02  0.7546771E-02  0.1314382E+00
         21   -1    0    0  503  502  0.00000000000E+00  0.00000000000E+00  0.20418144111E+02  0.20418144111E+02  0.00000000000E+00 0.  1.
         21   -1    0    0  501  503 -0.00000000000E+00 -0.00000000000E+00 -0.62106694056E+03  0.62106694056E+03  0.00000000000E+00 0.  1.
         24    1    1    2    0    0  0.56672639492E+02 -0.22895763380E+02 -0.13491960521E+03  0.16854233851E+03  0.80419002446E+02 0.  1.
          1    1    1    2  501    0 -0.43067824305E+02 -0.10929184704E+00 -0.39485155561E+03  0.39719340428E+03  0.00000000000E+00 0. -1.
         -2    1    1    2    0  502 -0.13604815187E+02  0.23005055227E+02 -0.70877635624E+02  0.75749341871E+02  0.00000000000E+00 0.  1.
<mgrwt>
<rscale>  2 0.85402892E+02</rscale>
<asrwt>0</asrwt>
<pdfrwt beam="1">  1       21 0.31412530E-02 0.85402892E+02</pdfrwt>
<pdfrwt beam="2">  1       21 0.95548757E-01 0.85402892E+02</pdfrwt>
<totfact> 0.54416497E+05</totfact>
</mgrwt>
</event>
<event>
 5    1  0.1855960E+000  0.7898763E+02  0.7546771E-02  0.1331949E+00
         21   -1    0    0  503  502  0.00000000000E+00  0.00000000000E+00  0.64720382540E+02  0.64720382540E+02  0.00000000000E+00 0.  1.
         21   -1    0    0  501  503 -0.00000000000E+00 -0.00000000000E+00 -0.15376762034E+03  0.15376762034E+03  0.00000000000E+00 0.  1.
         24    1    1    2    0    0 -0.23922938956E+02  0.48991918941E+00 -0.49869526674E+02  0.97604982835E+02  0.80419002446E+02 0.  1.
          1    1    1    2  501    0  0.14277060446E+02  0.34732638125E+02 -0.65750749083E+02  0.75718898639E+02  0.00000000000E+00 0. -1.
         -2    1    1    2    0  502  0.96458785102E+01 -0.35222557314E+02  0.26573037958E+02  0.45164121405E+02  0.00000000000E+00 0.  1.
<mgrwt>
<rscale>  2 0.78987634E+02</rscale>
<asrwt>0</asrwt>
<pdfrwt beam="1">  1       21 0.99569821E-02 0.78987634E+02</pdfrwt>
<pdfrwt beam="2">  1       21 0.23656557E-01 0.78987634E+02</pdfrwt>
<totfact> 0.13566036E+06</totfact>
</mgrwt>
</event>
<event>
 5    1  0.1855960E+000  0.7121613E+02  0.7546771E-02  0.1356006E+00
         21   -1    0    0  503  502  0.00000000000E+00  0.00000000000E+00  0.12341508076E+03  0.12341508076E+03  0.00000000000E+00 0. -1.
         21   -1    0    0  501  503 -0.00000000000E+00 -0.00000000000E+00 -0.47723329476E+02  0.47723329476E+02  0.00000000000E+00 0.  1.
         24    1    1    2    0    0  0.29659645566E+02  0.14999747873E+02  0.42446883402E+02  0.96817564916E+02  0.80419002446E+02 0.  0.
          1    1    1    2  501    0 -0.96984455452E+00 -0.25010571490E+02 -0.49492072348E+01  0.25513994924E+02  0.00000000000E+00 0. -1.
         -2    1    1    2    0  502 -0.28689801011E+02  0.10010823617E+02  0.38194075112E+02  0.48806850392E+02  0.00000000000E+00 0.  1.
<mgrwt>
<rscale>  2 0.71216126E+02</rscale>
<asrwt>0</asrwt>
<pdfrwt beam="1">  1       21 0.18986935E-01 0.71216126E+02</pdfrwt>
<pdfrwt beam="2">  1       21 0.73420507E-02 0.71216126E+02</pdfrwt>
<totfact> 0.33953125E+06</totfact>
</mgrwt>
</event>
<event>
 5    1  0.1855960E+000  0.8133834E+02  0.7546771E-02  0.1325296E+00
         21   -1    0    0  503  502  0.00000000000E+00  0.00000000000E+00  0.12284559378E+03  0.12284559378E+03  0.00000000000E+00 0. -1.
         21   -1    0    0  501  503 -0.00000000000E+00 -0.00000000000E+00 -0.63940653651E+02  0.63940653651E+02  0.00000000000E+00 0.  1.
         24    1    1    2    0    0  0.30206064221E+02  0.12747469415E+02 -0.58663801833E+01  0.87043291890E+02  0.80419002446E+02 0.  1.
          1    1    1    2  501    0 -0.80789694735E+01 -0.39954060895E+02  0.35942028151E+02  0.54345433271E+02  0.00000000000E+00 0. -1.
         -2    1    1    2    0  502 -0.22127094747E+02  0.27206591480E+02  0.28829292165E+02  0.45397522275E+02  0.00000000000E+00 0.  1.
<mgrwt>
<rscale>  2 0.81338336E+02</rscale>
<asrwt>0</asrwt>
<pdfrwt beam="1">  1       21 0.18899322E-01 0.81338336E+02</pdfrwt>
<pdfrwt beam="2">  1       21 0.98370237E-02 0.81338336E+02</pdfrwt>
<totfact> 0.20934193E+06</totfact>
</mgrwt>
</event>
<event>
 5    1  0.1855960E+000  0.1148060E+03  0.7546771E-02  0.1251920E+00
         21   -1    0    0  501  502  0.00000000000E+00  0.00000000000E+00  0.50080791205E+02  0.50080791205E+02  0.00000000000E+00 0. -1.
         21   -1    0    0  502  503 -0.00000000000E+00 -0.00000000000E+00 -0.33919861874E+03  0.33919861874E+03  0.00000000000E+00 0. -1.
         24    1    1    2    0    0 -0.67313628875E+02 -0.37364703513E+02 -0.14264819941E+03  0.18095018776E+03  0.80419002446E+02 0. -1.
          1    1    1    2  501    0  0.45362286200E+02  0.67299986451E+02 -0.30731765070E+02  0.86784022550E+02  0.00000000000E+00 0. -1.
         -2    1    1    2    0  503  0.21951342674E+02 -0.29935282938E+02 -0.11573786305E+03  0.12154519963E+03  0.00000000000E+00 0.  1.
<mgrwt>
<rscale>  2 0.11480605E+03</rscale>
<asrwt>0</asrwt>
<pdfrwt beam="1">  1       21 0.77047370E-02 0.11480605E+03</pdfrwt>
<pdfrwt beam="2">  1       21 0.52184404E-01 0.11480605E+03</pdfrwt>
<totfact> 0.45150680E+05</totfact>
</mgrwt>
</event>
<event>
 5    1  0.1855960E+000  0.7976435E+02  0.7546771E-02  0.1329722E+00
         21   -1    0    0  503  502  0.00000000000E+00  0.00000000000E+00  0.32731242043E+02  0.32731242043E+02  0.00000000000E+00 0.  1.
         21   -1    0    0  501  503 -0.00000000000E+00 -0.00000000000E+00 -0.22640898421E+03  0.22640898421E+03  0.00000000000E+00 0. -1.
         24    1    1    2    0    0 -0.56976763138E+02  0.17004240754E+02 -0.73621115920E+02  0.12418848741E+03  0.80419002446E+02 0.  1.
          1    1    1    2  501    0  0.36346450776E+02 -0.12126703831E+02 -0.92966820005E+02  0.10055322497E+03  0.00000000000E+00 0. -1.
         -2    1    1    2    0  502  0.20630312362E+02 -0.48775369230E+01 -0.27089806245E+02  0.34398513878E+02  0.00000000000E+00 0.  1.
<mgrwt>
<rscale>  2 0.79764345E+02</rscale>
<asrwt>0</asrwt>
<pdfrwt beam="1">  1       21 0.50355757E-02 0.79764345E+02</pdfrwt>
<pdfrwt beam="2">  1       21 0.34832151E-01 0.79764345E+02</pdfrwt>
<totfact> 0.20655630E+06</totfact>
</mgrwt>
</event>
<event>
 5    1  0.1855960E+000  0.8054494E+02  0.7546771E-02  0.1327512E+00
         21   -1    0    0  501  502  0.00000000000E+00  0.00000000000E+00  0.11785194087E+04  0.11785194087E+04  0.00000000000E+00 0. -1.
         21   -1    0    0  502  503 -0.00000000000E+00 -0.00000000000E+00 -0.14250862767E+02  0.14250862767E+02  0.00000000000E+00 0.  1.
         24    1    1    2    0    0 -0.42103725671E+02  0.82994507769E+01  0.38843576173E+03  0.39898767091E+03  0.80419002446E+02 0.  1.
          1    1    1    2  501    0  0.10504381173E+02  0.23108569038E+02  0.72789645657E+03  0.72833893173E+03  0.00000000000E+00 0. -1.
         -2    1    1    2    0  503  0.31599344498E+02 -0.31408019815E+02  0.47936327623E+02  0.65443668811E+02  0.00000000000E+00 0.  1.
<mgrwt>
<rscale>  2 0.80544941E+02</rscale>
<asrwt>0</asrwt>
<pdfrwt beam="1">  1       21 0.18131060E+00 0.80544941E+02</pdfrwt>
<pdfrwt beam="2">  1       21 0.21924414E-02 0.80544941E+02</pdfrwt>
<totfact> 0.20048198E+05</totfact>
</mgrwt>
</event>
<event>
 5    1  0.1855960E+000  0.8068853E+02  0.7546771E-02  0.1327109E+00
         21   -1    0    0  503  502  0.00000000000E+00  0.00000000000E+00  0.46854321162E+03  0.46854321162E+03  0.00000000000E+00 0.  1.
         21   -1    0    0  501  503 -0.00000000000E+00 -0.00000000000E+00 -0.39401627013E+02  0.39401627013E+02  0.00000000000E+00 0.  1.
         24    1    1    2    0    0  0.32337564762E+02  0.29352738551E+02  0.35266285748E+02  0.98072566093E+02  0.80419002446E+02 0.  1.
          1    1    1    2  501    0 -0.26530416629E+02  0.11272922294E+02  0.23392462556E+02  0.37123430445E+02  0.00000000000E+00 0. -1.
         -2    1    1    2    0  502 -0.58071481323E+01 -0.40625660845E+02  0.37048283631E+03  0.37274884210E+03  0.00000000000E+00 0.  1.
<mgrwt>
<rscale>  2 0.80688528E+02</rscale>
<asrwt>0</asrwt>
<pdfrwt beam="1">  1       21 0.72083567E-01 0.80688528E+02</pdfrwt>
<pdfrwt beam="2">  1       21 0.60617891E-02 0.80688528E+02</pdfrwt>
<totfact> 0.34398292E+05</totfact>
</mgrwt>
</event>
<event>
 5    1  0.1855960E+000  0.7534298E+02  0.7546771E-02  0.1342812E+00
         21   -1    0    0  501  502  0.00000000000E+00  0.00000000000E+00  0.84508471343E+02  0.84508471343E+02  0.00000000000E+00 0.  1.
         21   -1    0    0  502  503 -0.00000000000E+00 -0.00000000000E+00 -0.79679314704E+02  0.79679314704E+02  0.00000000000E+00 0. -1.
         24    1    1    2    0    0 -0.71502815409E+00 -0.12579761283E+02 -0.24820302628E+02  0.85100088344E+02  0.80419002446E+02 0.  0.
          1    1    1    2  501    0  0.88369869871E+01  0.39857106795E+02  0.29937422153E+02  0.50625394282E+02  0.00000000000E+00 0. -1.
         -2    1    1    2    0  503 -0.81219588330E+01 -0.27277345511E+02 -0.28796288522E+00  0.28462303421E+02  0.00000000000E+00 0.  1.
<mgrwt>
<rscale>  2 0.75342982E+02</rscale>
<asrwt>0</asrwt>
<pdfrwt beam="1">  1       21 0.13001303E-01 0.75342982E+02</pdfrwt>
<pdfrwt beam="2">  1       21 0.12258356E-01 0.75342982E+02</pdfrwt>
<totfact> 0.27747079E+06</totfact>
</mgrwt>
</event>
<event>
 5    1  0.1855960E+000  0.8994996E+02  0.7546771E-02  0.1302973E+00
         21   -1    0    0  501  502  0.00000000000E+00  0.00000000000E+00  0.11131530523E+03  0.11131530523E+03  0.00000000000E+00 0.  1.
         21   -1    0    0  502  503 -0.00000000000E+00 -0.00000000000E+00 -0.80837390914E+02  0.80837390914E+02  0.00000000000E+00 0. -1.
         24    1    1    2    0    0  0.15782260659E+02 -0.55709191057E+02 -0.10981169670E+02  0.99701533395E+02  0.80419002446E+02 0. -1.
          1    1    1    2  501    0 -0.36749546077E+02  0.41729016784E+02  0.37181038077E+02  0.66889981096E+02  0.00000000000E+00 0. -1.
         -2    1    1    2    0  503  0.20967285417E+02  0.13980174273E+02  0.42780459042E+01  0.25561181648E+02  0.00000000000E+00 0.  1.
<mgrwt>
<rscale>  2 0.89949955E+02</rscale>
<asrwt>0</asrwt>
<pdfrwt beam="1">  1       21 0.17125432E-01 0.89949955E+02</pdfrwt>
<pdfrwt beam="2">  1       21 0.12436522E-01 0.89949955E+02</pdfrwt>
<totfact> 0.16698856E+06</totfact>
</mgrwt>
</event>
<event>
 5    1  0.1855960E+000  0.9388860E+02  0.7546771E-02  0.1293699E+00
         21   -1    0    0  501  502  0.00000000000E+00  0.00000000000E+00  0.79047768659E+03  0.79047768659E+03  0.00000000000E+00 0. -1.
         21   -1    0    0  502  503 -0.00000000000E+00 -0.00000000000E+00 -0.69850000381E+02  0.69850000381E+02  0.00000000000E+00 0. -1.
         24    1    1    2    0    0  0.57848321632E+02 -0.31517683995E+02 -0.33084859223E+01  0.10400939743E+03  0.80419002446E+02 0. -1.
          1    1    1    2  501    0 -0.99626843083E+01  0.34433815127E+02  0.70310224032E+03  0.70401541393E+03  0.00000000000E+00 0. -1.
         -2    1    1    2    0  503 -0.47885637324E+02 -0.29161311321E+01  0.20833931807E+02  0.52302875612E+02  0.00000000000E+00 0.  1.
<mgrwt>
<rscale>  2 0.93888605E+02</rscale>
<asrwt>0</asrwt>
<pdfrwt beam="1">  1       21 0.12161195E+00 0.93888605E+02</pdfrwt>
<pdfrwt beam="2">  1       21 0.10746154E-01 0.93888605E+02</pdfrwt>
<totfact> 0.38966227E+04</totfact>
</mgrwt>
</event>
<event>
 5    1  0.1855960E+000  0.8774353E+02  0.7546771E-02  0.1308410E+00
         21   -1    0    0  501  502  0.00000000000E+00  0.00000000000E+00  0.10218949902E+03  0.10218949902E+03  0.00000000000E+00 0.  1.
         21   -1    0    0  502  503 -0.00000000000E+00 -0.00000000000E+00 -0.31621879696E+03  0.31621879696E+03  0.00000000000E+00 0.  1.
         24    1    1    2    0    0  0.17743517574E+02 -0.13015266400E+02 -0.73218354917E+02  0.11096113295E+03  0.80419002446E+02 0.  0.
          1    1    1    2  501    0  0.34248307342E+02 -0.93680111752E+01  0.75724352986E+02  0.83635422067E+02  0.00000000000E+00 0. -1.
         -2    1    1    2    0  503 -0.51991824916E+02  0.22383277575E+02 -0.21653529601E+03  0.22381174096E+03  0.00000000000E+00 0.  1.
<mgrwt>
<rscale>  2 0.87743531E+02</rscale>
<asrwt>0</asrwt>
<pdfrwt beam="1">  1       21 0.15721462E-01 0.87743531E+02</pdfrwt>
<pdfrwt beam="2">  1       21 0.48649045E-01 0.87743531E+02</pdfrwt>
<totfact> 0.15054898E+05</totfact>
</mgrwt>
</event>
<event>
 5    1  0.2232903E+000  0.8760780E+02  0.7546771E-02  0.1308750E+00
         21   -1    0    0  501  502  0.00000000000E+00  0.00000000000E+00  0.66172264116E+02  0.66172264116E+02  0.00000000000E+00 0.  1.
         21   -1    0    0  502  503 -0.00000000000E+00 -0.00000000000E+00 -0.91486148175E+03  0.91486148175E+03  0.00000000000E+00 0.  1.
         24    1    1    2    0    0  0.29487998132E+02  0.52285913862E+01  0.12796718639E+01  0.85823852839E+02  0.80419002446E+02 0.  1.
          1    1    1    2  501    0 -0.33854600796E+02 -0.41109708000E+02 -0.96606185951E+01  0.54124575181E+02  0.00000000000E+00 0. -1.
         -2    1    1    2    0  503  0.43666026641E+01  0.35881116614E+02 -0.84030827091E+03  0.84108531785E+03  0.00000000000E+00 0.  1.
<mgrwt>
<rscale>  2 0.87607797E+02</rscale>
<asrwt>0</asrwt>
<pdfrwt beam="1">  1       21 0.10180348E-01 0.87607797E+02</pdfrwt>
<pdfrwt beam="2">  1       21 0.14074792E+00 0.87607797E+02</pdfrwt>
<totfact> 0.30070556E+04</totfact>
</mgrwt>
</event>
<event>
 5    1  0.1855960E+000  0.6675509E+02  0.7546771E-02  0.1371489E+00
         21   -1    0    0  503  502  0.00000000000E+00  0.00000000000E+00  0.12500262067E+03  0.12500262067E+03  0.00000000000E+00 0.  1.
         21   -1    0    0  501  503 -0.00000000000E+00 -0.00000000000E+00 -0.10560229187E+03  0.10560229187E+03  0.00000000000E+00 0.  1.
         24    1    1    2    0    0  0.36162252892E+01 -0.55390470445E+01 -0.78804577562E+02  0.11278801145E+03  0.80419002446E+02 0.  1.
          1    1    1    2  501    0 -0.28063153375E+02  0.22655524514E+01  0.16864249762E+02  0.32818839487E+02  0.00000000000E+00 0. -1.
         -2    1    1    2    0  502  0.24446928085E+02  0.32734945931E+01  0.81340656604E+02  0.84998061604E+02  0.00000000000E+00 0.  1.
<mgrwt>
<rscale>  2 0.66755090E+02</rscale>
<asrwt>0</asrwt>
<pdfrwt beam="1">  1       21 0.19231172E-01 0.66755090E+02</pdfrwt>
<pdfrwt beam="2">  1       21 0.16246506E-01 0.66755090E+02</pdfrwt>
<totfact> 0.83637348E+05</totfact>
</mgrwt>
</event>
<event>
 5    1  0.1855960E+000  0.1991473E+03  0.7546771E-02  0.1150460E+00
         21   -1    0    0  503  502  0.00000000000E+00  0.00000000000E+00  0.11849853527E+04  0.11849853527E+04  0.00000000000E+00 0. -1.
         21   -1    0    0  501  503 -0.00000000000E+00 -0.00000000000E+00 -0.37088416691E+02  0.37088416691E+02  0.00000000000E+00 0. -1.
         24    1    1    2    0    0  0.28089806443E+02  0.16748041279E+03  0.38576457437E+03  0.42909235450E+03  0.80419002446E+02 0. -1.
          1    1    1    2  501    0 -0.22227939075E+02 -0.18787003281E+03  0.59103159505E+03  0.62057036414E+03  0.00000000000E+00 0. -1.
         -2    1    1    2    0  502 -0.58618673686E+01  0.20389620018E+02  0.17110076661E+03  0.17241105077E+03  0.00000000000E+00 0.  1.
<mgrwt>
<rscale>  2 0.19914734E+03</rscale>
<asrwt>0</asrwt>
<pdfrwt beam="1">  1       21 0.18230541E+00 0.19914734E+03</pdfrwt>
<pdfrwt beam="2">  1       21 0.57059112E-02 0.19914734E+03</pdfrwt>
<totfact> 0.37554953E+04</totfact>
</mgrwt>
</event>
<event>
 5    1  0.1855960E+000  0.6927057E+02  0.7546771E-02  0.1362591E+00
         21   -1    0    0  501  502  0.00000000000E+00  0.00000000000E+00  0.18637851840E+03  0.18637851840E+03  0.00000000000E+00 0. -1.
         21   -1    0    0  502  503 -0.00000000000E+00 -0.00000000000E+00 -0.29050127835E+02  0.29050127835E+02  0.00000000000E+00 0.  1.
         24    1    1    2    0    0  0.31719192419E+02  0.25461256647E+02  0.13214460498E+03  0.15994935242E+03  0.80419002446E+02 0. -1.
          1    1    1    2  501    0 -0.66163477836E+01 -0.22130486632E+02  0.17617766053E+02  0.29050304255E+02  0.00000000000E+00 0. -1.
         -2    1    1    2    0  503 -0.25102844635E+02 -0.33307700143E+01  0.75660195236E+01  0.26428989559E+02  0.00000000000E+00 0.  1.
<mgrwt>
<rscale>  2 0.69270565E+02</rscale>
<asrwt>0</asrwt>
<pdfrwt beam="1">  1       21 0.28673617E-01 0.69270565E+02</pdfrwt>
<pdfrwt beam="2">  1       21 0.44692506E-02 0.69270565E+02</pdfrwt>
<totfact> 0.36196213E+06</totfact>
</mgrwt>
</event>
<event>
 5    1  0.1855960E+000  0.1006425E+03  0.7546771E-02  0.1278951E+00
         21   -1    0    0  503  502  0.00000000000E+00  0.00000000000E+00  0.39022492708E+02  0.39022492708E+02  0.00000000000E+00 0.  1.
         21   -1    0    0  501  503 -0.00000000000E+00 -0.00000000000E+00 -0.87102499436E+03  0.87102499436E+03  0.00000000000E+00 0. -1.
         24    1    1    2    0    0  0.93288428919E+01 -0.69437709450E+02 -0.10392902585E+03  0.14891971385E+03  0.80419002446E+02 0.  1.
          1    1    1    2  501    0 -0.35839538311E+02  0.28202249519E+02 -0.70581861884E+03  0.70729043686E+03  0.00000000000E+00 0. -1.
         -2    1    1    2    0  502  0.26510695419E+02  0.41235459931E+02 -0.22254856959E+02  0.53837336353E+02  0.00000000000E+00 0.  1.
<mgrwt>
<rscale>  2 0.10064254E+03</rscale>
<asrwt>0</asrwt>
<pdfrwt beam="1">  1       21 0.60034609E-02 0.10064254E+03</pdfrwt>
<pdfrwt beam="2">  1       21 0.13400384E+00 0.10064254E+03</pdfrwt>
<totfact> 0.82833547E+04</totfact>
</mgrwt>
</event>
<event>
 5    1  0.1855960E+000  0.8280653E+02  0.7546771E-02  0.1321270E+00
         21   -1    0    0  503  502  0.00000000000E+00  0.00000000000E+00  0.25494898508E+03  0.25494898508E+03  0.00000000000E+00 0. -1.
         21   -1    0    0  501  503 -0.00000000000E+00 -0.00000000000E+00 -0.43406132064E+02  0.43406132064E+02  0.00000000000E+00 0. -1.
         24    1    1    2    0    0 -0.21251211434E+02  0.12853875669E+02  0.17472654307E+03  0.19394178744E+03  0.80419002446E+02 0. -1.
          1    1    1    2  501    0  0.48532278237E+02 -0.21137071750E+02 -0.56797887185E+01  0.53239250867E+02  0.00000000000E+00 0. -1.
         -2    1    1    2    0  502 -0.27281066802E+02  0.82831960808E+01  0.42496098663E+02  0.51174078837E+02  0.00000000000E+00 0.  1.
<mgrwt>
<rscale>  2 0.82806531E+02</rscale>
<asrwt>0</asrwt>
<pdfrwt beam="1">  1       21 0.39222920E-01 0.82806531E+02</pdfrwt>
<pdfrwt beam="2">  1       21 0.66778666E-02 0.82806531E+02</pdfrwt>
<totfact> 0.10230479E+06</totfact>
</mgrwt>
</event>
<event>
 5    1  0.1855960E+000  0.7079636E+02  0.7546771E-02  0.1357406E+00
         21   -1    0    0  501  502  0.00000000000E+00  0.00000000000E+00  0.10148241849E+02  0.10148241849E+02  0.00000000000E+00 0.  1.
         21   -1    0    0  502  503 -0.00000000000E+00 -0.00000000000E+00 -0.19205081064E+04  0.19205081064E+04  0.00000000000E+00 0.  1.
         24    1    1    2    0    0  0.85141511230E+00  0.55680056634E+01 -0.43493777141E+03  0.44234580200E+03  0.80419002446E+02 0.  1.
          1    1    1    2  501    0  0.29149894216E+02  0.41430769419E+01 -0.28278614047E+02  0.40823540167E+02  0.00000000000E+00 0. -1.
         -2    1    1    2    0  503 -0.30001309329E+02 -0.97110826053E+01 -0.14471434791E+04  0.14474870061E+04  0.00000000000E+00 0.  1.
<mgrwt>
<rscale>  2 0.70796363E+02</rscale>
<asrwt>0</asrwt>
<pdfrwt beam="1">  1       21 0.15612688E-02 0.70796363E+02</pdfrwt>
<pdfrwt beam="2">  1       21 0.29546263E+00 0.70796363E+02</pdfrwt>
<totfact> 0.77428501E+04</totfact>
</mgrwt>
</event>
<event>
 5    1  0.1855960E+000  0.6703358E+02  0.7546771E-02  0.1370481E+00
         21   -1    0    0  503  502  0.00000000000E+00  0.00000000000E+00  0.44424865522E+03  0.44424865522E+03  0.00000000000E+00 0. -1.
         21   -1    0    0  501  503 -0.00000000000E+00 -0.00000000000E+00 -0.52445624858E+02  0.52445624858E+02  0.00000000000E+00 0.  1.
         24    1    1    2    0    0  0.95671453884E+00 -0.92086347335E+00  0.25520294549E+03  0.26757713399E+03  0.80419002446E+02 0. -1.
          1    1    1    2  501    0 -0.20641427229E+02 -0.17210165019E+02 -0.41267770042E+02  0.49247204411E+02  0.00000000000E+00 0. -1.
         -2    1    1    2    0  502  0.19684712691E+02  0.18131028493E+02  0.17786785491E+03  0.17986994167E+03  0.00000000000E+00 0.  1.
<mgrwt>
<rscale>  2 0.67033577E+02</rscale>
<asrwt>0</asrwt>
<pdfrwt beam="1">  1       21 0.68345944E-01 0.67033577E+02</pdfrwt>
<pdfrwt beam="2">  1       21 0.80685580E-02 0.67033577E+02</pdfrwt>
<totfact> 0.23878248E+05</totfact>
</mgrwt>
</event>
<event>
 5    1  0.1855960E+000  0.7910553E+02  0.7546771E-02  0.1331609E+00
         21   -1    0    0  503  502  0.00000000000E+00  0.00000000000E+00  0.95347874868E+02  0.95347874868E+02  0.00000000000E+00 0. -1.
         21   -1    0    0  501  503 -0.00000000000E+00 -0.00000000000E+00 -0.15534743281E+03  0.15534743281E+03  0.00000000000E+00 0. -1.
         24    1    1    2    0    0 -0.46152452332E+02  0.34735857251E+02  0.30207180509E+02  0.10351965197E+03  0.80419002446E+02 0. -1.
          1    1    1    2  501    0  0.33570193231E+02 -0.17502512760E+02 -0.11106280057E+03  0.11733815022E+03  0.00000000000E+00 0. -1.
         -2    1    1    2    0  502  0.12582259101E+02 -0.17233344491E+02  0.20856062121E+02  0.29837505486E+02  0.00000000000E+00 0.  1.
<mgrwt>
<rscale>  2 0.79105526E+02</rscale>
<asrwt>0</asrwt>
<pdfrwt beam="1">  1       21 0.14668904E-01 0.79105526E+02</pdfrwt>
<pdfrwt beam="2">  1       21 0.23899605E-01 0.79105526E+02</pdfrwt>
<totfact> 0.67583533E+05</totfact>
</mgrwt>
</event>
<event>
 5    1  0.1855960E+000  0.2279530E+03  0.7546771E-02  0.1128089E+00
         21   -1    0    0  501  502  0.00000000000E+00  0.00000000000E+00  0.39163714369E+03  0.39163714369E+03  0.00000000000E+00 0. -1.
         21   -1    0    0  502  503 -0.00000000000E+00 -0.00000000000E+00 -0.36835458040E+03  0.36835458040E+03  0.00000000000E+00 0. -1.
         24    1    1    2    0    0  0.48583243221E+02 -0.15568765012E+03 -0.29073154327E+03  0.34291547374E+03  0.80419002446E+02 0. -1.
          1    1    1    2  501    0  0.51163634132E+02  0.16607607771E+03  0.21022608041E+03  0.27275260939E+03  0.00000000000E+00 0. -1.
         -2    1    1    2    0  503 -0.99746877352E+02 -0.10388427590E+02  0.10378802614E+03  0.14432364096E+03  0.00000000000E+00 0.  1.
<mgrwt>
<rscale>  2 0.22795302E+03</rscale>
<asrwt>0</asrwt>
<pdfrwt beam="1">  1       21 0.60251869E-01 0.22795302E+03</pdfrwt>
<pdfrwt beam="2">  1       21 0.56669935E-01 0.22795302E+03</pdfrwt>
<totfact> 0.73362303E+03</totfact>
</mgrwt>
</event>
<event>
 5    1  0.1855960E+000  0.8213437E+02  0.7546771E-02  0.1323101E+00
         21   -1    0    0  503  502  0.00000000000E+00  0.00000000000E+00  0.87241789392E+03  0.87241789392E+03  0.00000000000E+00 0.  1.
         21   -1    0    0  501  503 -0.00000000000E+00 -0.00000000000E+00 -0.14869281919E+02  0.14869281919E+02  0.00000000000E+00 0. -1.
         24    1    1    2    0    0 -0.42240219934E+02  0.29928321216E+02  0.22213636112E+03  0.24185061397E+03  0.80419002446E+02 0. -1.
          1    1    1    2  501    0  0.18846354909E+02 -0.39175298148E+02  0.95394035411E+02  0.10483277670E+03  0.00000000000E+00 0. -1.
         -2    1    1    2    0  502  0.23393865025E+02  0.92469769317E+01  0.54001821547E+03  0.54060378517E+03  0.00000000000E+00 0.  1.
<mgrwt>
<rscale>  2 0.82134366E+02</rscale>
<asrwt>0</asrwt>
<pdfrwt beam="1">  1       21 0.13421810E+00 0.82134366E+02</pdfrwt>
<pdfrwt beam="2">  1       21 0.22875825E-02 0.82134366E+02</pdfrwt>
<totfact> 0.40597874E+05</totfact>
</mgrwt>
</event>
<event>
 5    1  0.1855960E+000  0.1242681E+03  0.7546771E-02  0.1236218E+00
         21   -1    0    0  503  502  0.00000000000E+00  0.00000000000E+00  0.89917321752E+03  0.89917321752E+03  0.00000000000E+00 0.  1.
         21   -1    0    0  501  503 -0.00000000000E+00 -0.00000000000E+00 -0.65347165257E+02  0.65347165257E+02  0.00000000000E+00 0.  1.
         24    1    1    2    0    0  0.40228676474E+02  0.59123061801E+02  0.82554728122E+01  0.10793169893E+03  0.80419002446E+02 0.  1.
          1    1    1    2  501    0  0.43635234458E+02 -0.14885436503E+02  0.29155941765E+02  0.54549783193E+02  0.00000000000E+00 0. -1.
         -2    1    1    2    0  502 -0.83863910933E+02 -0.44237625297E+02  0.79641463768E+03  0.80203890065E+03  0.00000000000E+00 0.  1.
<mgrwt>
<rscale>  2 0.12426806E+03</rscale>
<asrwt>0</asrwt>
<pdfrwt beam="1">  1       21 0.13833433E+00 0.12426806E+03</pdfrwt>
<pdfrwt beam="2">  1       21 0.10053411E-01 0.12426806E+03</pdfrwt>
<totfact> 0.31045764E+04</totfact>
</mgrwt>
</event>
<event>
 5    1  0.1855960E+000  0.8675918E+02  0.7546771E-02  0.1310895E+00
         21   -1    0    0  503  502  0.00000000000E+00  0.00000000000E+00  0.17604541413E+03  0.17604541413E+03  0.00000000000E+00 0. -1.
         21   -1    0    0  501  503 -0.00000000000E+00 -0.00000000000E+00 -0.88504665919E+02  0.88504665919E+02  0.00000000000E+00 0. -1.
         24    1    1    2    0    0  0.45928036526E+02  0.47321386689E+02  0.75968386205E+02  0.12879095401E+03  0.80419002446E+02 0. -1.
          1    1    1    2  501    0 -0.18146223895E+02 -0.34370421531E+02 -0.52154416469E+02  0.65043788905E+02  0.00000000000E+00 0. -1.
         -2    1    1    2    0  502 -0.27781812631E+02 -0.12950965158E+02  0.63726778476E+02  0.70715337138E+02  0.00000000000E+00 0.  1.
<mgrwt>
<rscale>  2 0.86759179E+02</rscale>
<asrwt>0</asrwt>
<pdfrwt beam="1">  1       21 0.27083910E-01 0.86759179E+02</pdfrwt>
<pdfrwt beam="2">  1       21 0.13616102E-01 0.86759179E+02</pdfrwt>
<totfact> 0.61091465E+05</totfact>
</mgrwt>
</event>
<event>
 5    1  0.1855960E+000  0.1238301E+03  0.7546771E-02  0.1236909E+00
         21   -1    0    0  503  502  0.00000000000E+00  0.00000000000E+00  0.36745070823E+02  0.36745070823E+02  0.00000000000E+00 0. -1.
         21   -1    0    0  501  503 -0.00000000000E+00 -0.00000000000E+00 -0.50175064754E+03  0.50175064754E+03  0.00000000000E+00 0. -1.
         24    1    1    2    0    0 -0.93056457641E+02  0.59275023432E+02 -0.22448286244E+03  0.26274094503E+03  0.80419002446E+02 0. -1.
          1    1    1    2  501    0  0.13877254043E+02 -0.14913724350E+02 -0.13518158237E+03  0.13670792795E+03  0.00000000000E+00 0. -1.
         -2    1    1    2    0  502  0.79179203598E+02 -0.44361299082E+02 -0.10534113191E+03  0.13904684538E+03  0.00000000000E+00 0.  1.
<mgrwt>
<rscale>  2 0.12383010E+03</rscale>
<asrwt>0</asrwt>
<pdfrwt beam="1">  1       21 0.56530881E-02 0.12383010E+03</pdfrwt>
<pdfrwt beam="2">  1       21 0.77192403E-01 0.12383010E+03</pdfrwt>
<totfact> 0.33036241E+05</totfact>
</mgrwt>
</event>
<event>
 5    1  0.1855960E+000  0.7512479E+02  0.7546771E-02  0.1343485E+00
         21   -1    0    0  503  502  0.00000000000E+00  0.00000000000E+00  0.24294849837E+03  0.24294849837E+03  0.00000000000E+00 0.  1.
         21   -1    0    0  501  503 -0.00000000000E+00 -0.00000000000E+00 -0.49184593026E+02  0.49184593026E+02  0.00000000000E+00 0.  1.
         24    1    1    2    0    0 -0.31262124368E+02 -0.18105413910E+02  0.11381617828E+02  0.88892539685E+02  0.80419002446E+02 0.  0.
          1    1    1    2  501    0  0.27711116477E+02 -0.13121355496E+02  0.17323111042E+02  0.35215992427E+02  0.00000000000E+00 0. -1.
         -2    1    1    2    0  502  0.35510078908E+01  0.31226769406E+02  0.16505917648E+03  0.16802455929E+03  0.00000000000E+00 0.  1.
<mgrwt>
<rscale>  2 0.75124786E+02</rscale>
<asrwt>0</asrwt>
<pdfrwt beam="1">  1       21 0.37376691E-01 0.75124786E+02</pdfrwt>
<pdfrwt beam="2">  1       21 0.75668606E-02 0.75124786E+02</pdfrwt>
<totfact> 0.90851427E+05</totfact>
</mgrwt>
</event>
<event>
 5    1  0.1855960E+000  0.7092009E+02  0.7546771E-02  0.1356992E+00
         21   -1    0    0  503  502  0.00000000000E+00  0.00000000000E+00  0.54756656075E+03  0.54756656075E+03  0.00000000000E+00 0.  1.
         21   -1    0    0  501  503 -0.00000000000E+00 -0.00000000000E+00 -0.23744894662E+02  0.23744894662E+02  0.00000000000E+00 0.  1.
         24    1    1    2    0    0 -0.24875718504E+02  0.28448017021E+02  0.95492821254E+02  0.13043843724E+03  0.80419002446E+02 0.  1.
          1    1    1    2  501    0 -0.68649505284E+00 -0.27392014301E+02  0.26134002984E+02  0.37865285353E+02  0.00000000000E+00 0. -1.
         -2    1    1    2    0  502  0.25562213557E+02 -0.10560027202E+01  0.40219484185E+03  0.40300773282E+03  0.00000000000E+00 0.  1.
<mgrwt>
<rscale>  2 0.70920086E+02</rscale>
<asrwt>0</asrwt>
<pdfrwt beam="1">  1       21 0.84241000E-01 0.70920086E+02</pdfrwt>
<pdfrwt beam="2">  1       21 0.36530611E-02 0.70920086E+02</pdfrwt>
<totfact> 0.56499964E+05</totfact>
</mgrwt>
</event>
<event>
 5    1  0.1855960E+000  0.1120665E+03  0.7546771E-02  0.1256790E+00
         21   -1    0    0  501  502  0.00000000000E+00  0.00000000000E+00  0.13188525089E+03  0.13188525089E+03  0.00000000000E+00 0. -1.
         21   -1    0    0  502  503 -0.00000000000E+00 -0.00000000000E+00 -0.25685413678E+03  0.25685413678E+03  0.00000000000E+00 0. -1.
         24    1    1    2    0    0 -0.39886809676E+02 -0.51920431269E+02 -0.12499102309E+03  0.16240893010E+03  0.80419002446E+02 0. -1.
          1    1    1    2  501    0 -0.28598973087E+02 -0.77143729534E+01  0.92255810405E+02  0.96894516693E+02  0.00000000000E+00 0. -1.
         -2    1    1    2    0  503  0.68485782763E+02  0.59634804223E+02 -0.92233673203E+02  0.12943594087E+03  0.00000000000E+00 0.  1.
<mgrwt>
<rscale>  2 0.11206653E+03</rscale>
<asrwt>0</asrwt>
<pdfrwt beam="1">  1       21 0.20290039E-01 0.11206653E+03</pdfrwt>
<pdfrwt beam="2">  1       21 0.39516021E-01 0.11206653E+03</pdfrwt>
<totfact> 0.14250716E+05</totfact>
</mgrwt>
</event>
<event>
 5    1  0.1855960E+000  0.6968887E+02  0.7546771E-02  0.1361154E+00
         21   -1    0    0  503  502  0.00000000000E+00  0.00000000000E+00  0.44618717657E+02  0.44618717657E+02  0.00000000000E+00 0.  1.
         21   -1    0    0  501  503 -0.00000000000E+00 -0.00000000000E+00 -0.23610942701E+03  0.23610942701E+03  0.00000000000E+00 0.  1.
         24    1    1    2    0    0  0.60137857160E+01  0.36456893407E+02 -0.19653197434E+03  0.21553956385E+03  0.80419002446E+02 0.  1.
          1    1    1    2  501    0 -0.19406644646E+02 -0.11513760090E+02 -0.17857202773E+02  0.28776104995E+02  0.00000000000E+00 0. -1.
         -2    1    1    2    0  502  0.13392858930E+02 -0.24943133317E+02  0.22898467754E+02  0.36412475821E+02  0.00000000000E+00 0.  1.
<mgrwt>
<rscale>  2 0.69688867E+02</rscale>
<asrwt>0</asrwt>
<pdfrwt beam="1">  1       21 0.68644181E-02 0.69688867E+02</pdfrwt>
<pdfrwt beam="2">  1       21 0.36324527E-01 0.69688867E+02</pdfrwt>
<totfact> 0.11295607E+06</totfact>
</mgrwt>
</event>
<event>
 5    1  0.1855960E+000  0.7344536E+02  0.7546771E-02  0.1348754E+00
         21   -1    0    0  503  502  0.00000000000E+00  0.00000000000E+00  0.51899370305E+02  0.51899370305E+02  0.00000000000E+00 0. -1.
         21   -1    0    0  501  503 -0.00000000000E+00 -0.00000000000E+00 -0.32444243899E+03  0.32444243899E+03  0.00000000000E+00 0. -1.
         24    1    1    2    0    0  0.24907195668E+01 -0.47619990095E+02  0.39997008594E+01  0.93579274959E+02  0.80419002446E+02 0. -1.
          1    1    1    2  501    0  0.10417113559E+02  0.28350293097E+02 -0.21277113854E+03  0.21490419440E+03  0.00000000000E+00 0. -1.
         -2    1    1    2    0  502 -0.12907833125E+02  0.19269696997E+02 -0.63771630996E+02  0.67858339931E+02  0.00000000000E+00 0.  1.
<mgrwt>
<rscale>  2 0.73445358E+02</rscale>
<asrwt>0</asrwt>
<pdfrwt beam="1">  1       21 0.79845184E-02 0.73445358E+02</pdfrwt>
<pdfrwt beam="2">  1       21 0.49914222E-01 0.73445358E+02</pdfrwt>
<totfact> 0.46648628E+05</totfact>
</mgrwt>
</event>
<event>
 5    1  0.1855960E+000  0.8311737E+02  0.7546771E-02  0.1320431E+00
         21   -1    0    0  503  502  0.00000000000E+00  0.00000000000E+00  0.35062622436E+03  0.35062622436E+03  0.00000000000E+00 0.  1.
         21   -1    0    0  501  503 -0.00000000000E+00 -0.00000000000E+00 -0.63850980995E+02  0.63850980995E+02  0.00000000000E+00 0. -1.
         24    1    1    2    0    0  0.55196765618E+02  0.12041043223E+02  0.17912055781E+03  0.20431118384E+03  0.80419002446E+02 0.  1.
          1    1    1    2  501    0 -0.25901145899E+02 -0.24929902219E+02 -0.43058003483E+02  0.56092433067E+02  0.00000000000E+00 0. -1.
         -2    1    1    2    0  502 -0.29295619719E+02  0.12888858996E+02  0.15071268903E+03  0.15407358845E+03  0.00000000000E+00 0.  1.
<mgrwt>
<rscale>  2 0.83117366E+02</rscale>
<asrwt>0</asrwt>
<pdfrwt beam="1">  1       21 0.53942495E-01 0.83117366E+02</pdfrwt>
<pdfrwt beam="2">  1       21 0.98232280E-02 0.83117366E+02</pdfrwt>
<totfact> 0.27887564E+05</totfact>
</mgrwt>
</event>
<event>
 5    1  0.1855960E+000  0.8349397E+02  0.7546771E-02  0.1319419E+00
         21   -1    0    0  501  502  0.00000000000E+00  0.00000000000E+00  0.71687153556E+02  0.71687153556E+02  0.00000000000E+00 0.  1.
         21   -1    0    0  502  503 -0.00000000000E+00 -0.00000000000E+00 -0.14211096844E+03  0.14211096844E+03  0.00000000000E+00 0.  1.
         24    1    1    2    0    0  0.31553792167E+02 -0.22258466432E+02 -0.31395942551E+02  0.94572735453E+02  0.80419002446E+02 0.  1.
          1    1    1    2  501    0  0.21039180493E+02  0.11913005936E+02  0.25633157582E+02  0.35236708046E+02  0.00000000000E+00 0. -1.
         -2    1    1    2    0  503 -0.52592972660E+02  0.10345460496E+02 -0.64661029919E+02  0.83988678501E+02  0.00000000000E+00 0.  1.
<mgrwt>
<rscale>  2 0.83493969E+02</rscale>
<asrwt>0</asrwt>
<pdfrwt beam="1">  1       21 0.11028793E-01 0.83493969E+02</pdfrwt>
<pdfrwt beam="2">  1       21 0.21863226E-01 0.83493969E+02</pdfrwt>
<totfact> 0.13167433E+06</totfact>
</mgrwt>
</event>
<event>
 5    1  0.1855960E+000  0.9070487E+02  0.7546771E-02  0.1301154E+00
         21   -1    0    0  503  502  0.00000000000E+00  0.00000000000E+00  0.20983154682E+03  0.20983154682E+03  0.00000000000E+00 0.  1.
         21   -1    0    0  501  503 -0.00000000000E+00 -0.00000000000E+00 -0.41345594963E+03  0.41345594963E+03  0.00000000000E+00 0. -1.
         24    1    1    2    0    0 -0.48775354062E+02 -0.42004929355E+02  0.52710062705E+02  0.11571091530E+03  0.80419002446E+02 0.  0.
          1    1    1    2  501    0  0.20568136822E+02  0.45544249381E+02 -0.37868430041E+03  0.38196744139E+03  0.00000000000E+00 0. -1.
         -2    1    1    2    0  502  0.28207217240E+02 -0.35393200267E+01  0.12234983490E+03  0.12560913976E+03  0.00000000000E+00 0.  1.
<mgrwt>
<rscale>  2 0.90704872E+02</rscale>
<asrwt>0</asrwt>
<pdfrwt beam="1">  1       21 0.32281777E-01 0.90704872E+02</pdfrwt>
<pdfrwt beam="2">  1       21 0.63608607E-01 0.90704872E+02</pdfrwt>
<totfact> 0.22696041E+04</totfact>
</mgrwt>
</event>
<event>
 5    1  0.1855960E+000  0.7535457E+02  0.7546771E-02  0.1342777E+00
         21   -1    0    0  503  502  0.00000000000E+00  0.00000000000E+00  0.45681499964E+03  0.45681499964E+03  0.00000000000E+00 0.  1.
         21   -1    0    0  501  503 -0.00000000000E+00 -0.00000000000E+00 -0.55554473653E+02  0.55554473653E+02  0.00000000000E+00 0.  1.
         24    1    1    2    0    0 -0.53624123826E+02  0.52842103374E+01  0.27109996448E+02  0.10052679940E+03  0.80419002446E+02 0.  0.
          1    1    1    2  501    0  0.27718844621E+02 -0.19411464002E+01 -0.79097265254E+01  0.28890589647E+02  0.00000000000E+00 0. -1.
         -2    1    1    2    0  502  0.25905279206E+02 -0.33430639372E+01  0.38206025606E+03  0.38295208424E+03  0.00000000000E+00 0.  1.
<mgrwt>
<rscale>  2 0.75354565E+02</rscale>
<asrwt>0</asrwt>
<pdfrwt beam="1">  1       21 0.70279228E-01 0.75354565E+02</pdfrwt>
<pdfrwt beam="2">  1       21 0.85468424E-02 0.75354565E+02</pdfrwt>
<totfact> 0.20349704E+05</totfact>
</mgrwt>
</event>
<event>
 5    1  0.1855960E+000  0.1123661E+03  0.7546771E-02  0.1256250E+00
         21   -1    0    0  503  502  0.00000000000E+00  0.00000000000E+00  0.32999825760E+02  0.32999825760E+02  0.00000000000E+00 0.  1.
         21   -1    0    0  501  503 -0.00000000000E+00 -0.00000000000E+00 -0.55426539501E+03  0.55426539501E+03  0.00000000000E+00 0.  1.
         24    1    1    2    0    0 -0.24524613282E+02 -0.89251297748E+02 -0.30255513851E+03  0.32645685565E+03  0.80419002446E+02 0.  1.
          1    1    1    2  501    0 -0.12514095084E+02  0.20293631965E+02 -0.16299393127E+03  0.16472843017E+03  0.00000000000E+00 0. -1.
         -2    1    1    2    0  502  0.37038708366E+02  0.68957665783E+02 -0.55716499467E+02  0.96079934953E+02  0.00000000000E+00 0.  1.
<mgrwt>
<rscale>  2 0.11236615E+03</rscale>
<asrwt>0</asrwt>
<pdfrwt beam="1">  1       21 0.50768966E-02 0.11236615E+03</pdfrwt>
<pdfrwt beam="2">  1       21 0.85271593E-01 0.11236615E+03</pdfrwt>
<totfact> 0.31766418E+05</totfact>
</mgrwt>
</event>
<event>
 5    1  0.1855960E+000  0.9190002E+02  0.7546771E-02  0.1298315E+00
         21   -1    0    0  501  502  0.00000000000E+00  0.00000000000E+00  0.44287589037E+02  0.44287589037E+02  0.00000000000E+00 0. -1.
         21   -1    0    0  502  503 -0.00000000000E+00 -0.00000000000E+00 -0.12145957806E+04  0.12145957806E+04  0.00000000000E+00 0.  1.
         24    1    1    2    0    0 -0.14339242764E+02  0.68011960657E+02 -0.11975387387E+03  0.16012322423E+03  0.80419002446E+02 0. -1.
          1    1    1    2  501    0  0.25703619237E+02 -0.49722148187E+02 -0.86547433513E+01  0.56638084754E+02  0.00000000000E+00 0. -1.
         -2    1    1    2    0  503 -0.11364376473E+02 -0.18289812471E+02 -0.10418995743E+04  0.10421220606E+04  0.00000000000E+00 0.  1.
<mgrwt>
<rscale>  2 0.91900016E+02</rscale>
<asrwt>0</asrwt>
<pdfrwt beam="1">  1       21 0.68134766E-02 0.91900016E+02</pdfrwt>
<pdfrwt beam="2">  1       21 0.18686085E+00 0.91900016E+02</pdfrwt>
<totfact> 0.28324313E+04</totfact>
</mgrwt>
</event>
<event>
 5    1  0.1855960E+000  0.6912683E+02  0.7546771E-02  0.1363088E+00
         21   -1    0    0  501  502  0.00000000000E+00  0.00000000000E+00  0.62889068423E+02  0.62889068423E+02  0.00000000000E+00 0.  1.
         21   -1    0    0  502  503 -0.00000000000E+00 -0.00000000000E+00 -0.87822698915E+02  0.87822698915E+02  0.00000000000E+00 0. -1.
         24    1    1    2    0    0 -0.13082704902E+02  0.41079392048E+02  0.60326711719E+01  0.91445517629E+02  0.80419002446E+02 0.  1.
          1    1    1    2  501    0 -0.20313806703E+01 -0.24455880314E+02 -0.52085782442E+01  0.25086766963E+02  0.00000000000E+00 0. -1.
         -2    1    1    2    0  503  0.15114085572E+02 -0.16623511734E+02 -0.25757723420E+02  0.34179482747E+02  0.00000000000E+00 0.  1.
<mgrwt>
<rscale>  2 0.69126826E+02</rscale>
<asrwt>0</asrwt>
<pdfrwt beam="1">  1       21 0.96752414E-02 0.69126826E+02</pdfrwt>
<pdfrwt beam="2">  1       21 0.13511184E-01 0.69126826E+02</pdfrwt>
<totfact> 0.38849264E+06</totfact>
</mgrwt>
</event>
<event>
 5    1  0.4170631E+000  0.1988558E+03  0.7546771E-02  0.1150708E+00
         21   -1    0    0  503  502  0.00000000000E+00  0.00000000000E+00  0.33178394562E+03  0.33178394562E+03  0.00000000000E+00 0.  1.
         21   -1    0    0  501  503 -0.00000000000E+00 -0.00000000000E+00 -0.38028661545E+03  0.38028661545E+03  0.00000000000E+00 0. -1.
         24    1    1    2    0    0  0.11144613439E+03  0.25865461572E+01  0.57914992664E+02  0.14915861833E+03  0.80419002446E+02 0. -1.
          1    1    1    2  501    0 -0.17783116941E+03  0.38815527171E+02 -0.30180420925E+03  0.35244340068E+03  0.00000000000E+00 0. -1.
         -2    1    1    2    0  502  0.66385035019E+02 -0.41402073328E+02  0.19538654675E+03  0.21046854207E+03  0.00000000000E+00 0.  1.
<mgrwt>
<rscale>  2 0.19885576E+03</rscale>
<asrwt>0</asrwt>
<pdfrwt beam="1">  1       21 0.51043684E-01 0.19885576E+03</pdfrwt>
<pdfrwt beam="2">  1       21 0.58505633E-01 0.19885576E+03</pdfrwt>
<totfact> 0.99391146E+03</totfact>
</mgrwt>
</event>
<event>
 5    1  0.1855960E+000  0.7905292E+02  0.7546771E-02  0.1331761E+00
         21   -1    0    0  501  502  0.00000000000E+00  0.00000000000E+00  0.11458616102E+03  0.11458616102E+03  0.00000000000E+00 0. -1.
         21   -1    0    0  502  503 -0.00000000000E+00 -0.00000000000E+00 -0.56745861045E+02  0.56745861045E+02  0.00000000000E+00 0.  1.
         24    1    1    2    0    0 -0.11765142332E+02  0.13253257079E+02  0.46939388764E+02  0.94787074906E+02  0.80419002446E+02 0.  0.
          1    1    1    2  501    0 -0.10906098592E+02  0.27244056833E+02  0.47465174169E+01  0.29727277823E+02  0.00000000000E+00 0. -1.
         -2    1    1    2    0  503  0.22671240924E+02 -0.40497313912E+02  0.61543937957E+01  0.46817669337E+02  0.00000000000E+00 0.  1.
<mgrwt>
<rscale>  2 0.79052920E+02</rscale>
<asrwt>0</asrwt>
<pdfrwt beam="1">  1       21 0.17628640E-01 0.79052920E+02</pdfrwt>
<pdfrwt beam="2">  1       21 0.87301325E-02 0.79052920E+02</pdfrwt>
<totfact> 0.29108151E+06</totfact>
</mgrwt>
</event>
<event>
 5    1  0.1855960E+000  0.6951404E+02  0.7546771E-02  0.1361753E+00
         21   -1    0    0  501  502  0.00000000000E+00  0.00000000000E+00  0.16883145424E+02  0.16883145424E+02  0.00000000000E+00 0. -1.
         21   -1    0    0  502  503 -0.00000000000E+00 -0.00000000000E+00 -0.31896156325E+03  0.31896156325E+03  0.00000000000E+00 0.  1.
         24    1    1    2    0    0 -0.38104695936E+02 -0.22962677311E+02 -0.23796965863E+03  0.25510003290E+03  0.80419002446E+02 0.  1.
          1    1    1    2  501    0  0.22050407406E+02  0.42299403392E+01 -0.19364237582E+02  0.29649393909E+02  0.00000000000E+00 0. -1.
         -2    1    1    2    0  503  0.16054288530E+02  0.18732736972E+02 -0.44744521617E+02  0.51095281871E+02  0.00000000000E+00 0.  1.
<mgrwt>
<rscale>  2 0.69514037E+02</rscale>
<asrwt>0</asrwt>
<pdfrwt beam="1">  1       21 0.25974073E-02 0.69514037E+02</pdfrwt>
<pdfrwt beam="2">  1       21 0.49071004E-01 0.69514037E+02</pdfrwt>
<totfact> 0.30669912E+06</totfact>
</mgrwt>
</event>
<event>
 5    1  0.1855960E+000  0.9264703E+02  0.7546771E-02  0.1296565E+00
         21   -1    0    0  501  502  0.00000000000E+00  0.00000000000E+00  0.41845879106E+03  0.41845879106E+03  0.00000000000E+00 0. -1.
         21   -1    0    0  502  503 -0.00000000000E+00 -0.00000000000E+00 -0.68482958292E+02  0.68482958292E+02  0.00000000000E+00 0. -1.
         24    1    1    2    0    0  0.44228185838E+01 -0.10534787478E+02  0.12259769549E+00  0.81226683153E+02  0.80419002446E+02 0. -1.
          1    1    1    2  501    0  0.47976273235E+02 -0.76916498225E+01  0.34676289772E+03  0.35015052692E+03  0.00000000000E+00 0. -1.
         -2    1    1    2    0  503 -0.52399091818E+02  0.18226437301E+02  0.30903373558E+01  0.55564539277E+02  0.00000000000E+00 0.  1.
<mgrwt>
<rscale>  2 0.92647029E+02</rscale>
<asrwt>0</asrwt>
<pdfrwt beam="1">  1       21 0.64378274E-01 0.92647029E+02</pdfrwt>
<pdfrwt beam="2">  1       21 0.10535840E-01 0.92647029E+02</pdfrwt>
<totfact> 0.17009813E+05</totfact>
</mgrwt>
</event>
<event>
 5    1  0.1855960E+000  0.1142079E+03  0.7546771E-02  0.1252970E+00
         21   -1    0    0  503  502  0.00000000000E+00  0.00000000000E+00  0.12337842496E+02  0.12337842496E+02  0.00000000000E+00 0.  1.
         21   -1    0    0  501  503 -0.00000000000E+00 -0.00000000000E+00 -0.14671268109E+04  0.14671268109E+04  0.00000000000E+00 0.  1.
         24    1    1    2    0    0 -0.34454587845E+02  0.55892945531E+02 -0.10695483957E+04  0.10745753239E+04  0.80419002446E+02 0.  1.
          1    1    1    2  501    0  0.12599325953E+01  0.31286409527E+02 -0.95662768251E+02  0.10065680345E+03  0.00000000000E+00 0. -1.
         -2    1    1    2    0  502  0.33194655249E+02 -0.87179355058E+02 -0.28957780438E+03  0.30423252600E+03  0.00000000000E+00 0.  1.
<mgrwt>
<rscale>  2 0.11420791E+03</rscale>
<asrwt>0</asrwt>
<pdfrwt beam="1">  1       21 0.18981289E-02 0.11420791E+03</pdfrwt>
<pdfrwt beam="2">  1       21 0.22571190E+00 0.11420791E+03</pdfrwt>
<totfact> 0.13123758E+05</totfact>
</mgrwt>
</event>
<event>
 5    1  0.1855960E+000  0.7933903E+02  0.7546771E-02  0.1330938E+00
         21   -1    0    0  503  502  0.00000000000E+00  0.00000000000E+00  0.16358045063E+04  0.16358045063E+04  0.00000000000E+00 0.  1.
         21   -1    0    0  501  503 -0.00000000000E+00 -0.00000000000E+00 -0.44435130356E+01  0.44435130356E+01  0.00000000000E+00 0.  1.
         24    1    1    2    0    0  0.38651418835E+01  0.40187419517E+02  0.68888687053E+03  0.69473901888E+03  0.80419002446E+02 0.  1.
          1    1    1    2  501    0  0.25716829195E+02 -0.22873951250E+02  0.27345692286E+03  0.27561433492E+03  0.00000000000E+00 0. -1.
         -2    1    1    2    0  502 -0.29581971078E+02 -0.17313468267E+02  0.66901719983E+03  0.66989466550E+03  0.00000000000E+00 0.  1.
<mgrwt>
<rscale>  2 0.79339026E+02</rscale>
<asrwt>0</asrwt>
<pdfrwt beam="1">  1       21 0.25166175E+00 0.79339026E+02</pdfrwt>
<pdfrwt beam="2">  1       21 0.68361870E-03 0.79339026E+02</pdfrwt>
<totfact> 0.47904205E+05</totfact>
</mgrwt>
</event>
<event>
 5    1  0.1855960E+000  0.9657655E+02  0.7546771E-02  0.1287664E+00
         21   -1    0    0  503  502  0.00000000000E+00  0.00000000000E+00  0.32273678679E+02  0.32273678679E+02  0.00000000000E+00 0.  1.
         21   -1    0    0  501  503 -0.00000000000E+00 -0.00000000000E+00 -0.55748832924E+03  0.55748832924E+03  0.00000000000E+00 0.  1.
         24    1    1    2    0    0 -0.39702632036E+02  0.41801699950E+02 -0.46299295215E+03  0.47344838241E+03  0.80419002446E+02 0.  1.
          1    1    1    2  501    0 -0.22357719141E+02 -0.11461134475E+02 -0.32581238400E+02  0.41143192686E+02  0.00000000000E+00 0. -1.
         -2    1    1    2    0  502  0.62060351177E+02 -0.30340565475E+02 -0.29640460010E+02  0.75170432825E+02  0.00000000000E+00 0.  1.
<mgrwt>
<rscale>  2 0.96576545E+02</rscale>
<asrwt>0</asrwt>
<pdfrwt beam="1">  1       21 0.49651819E-02 0.96576545E+02</pdfrwt>
<pdfrwt beam="2">  1       21 0.85767426E-01 0.96576545E+02</pdfrwt>
<totfact> 0.32653460E+05</totfact>
</mgrwt>
</event>
<event>
 5    1  0.1855960E+000  0.6697371E+02  0.7546771E-02  0.1370697E+00
         21   -1    0    0  501  502  0.00000000000E+00  0.00000000000E+00  0.49822732135E+01  0.49822732135E+01  0.00000000000E+00 0. -1.
         21   -1    0    0  502  503 -0.00000000000E+00 -0.00000000000E+00 -0.19343713261E+04  0.19343713261E+04  0.00000000000E+00 0.  1.
         24    1    1    2    0    0 -0.36545464067E+02 -0.43796479881E+01 -0.57026971550E+03  0.57708709622E+03  0.80419002446E+02 0.  0.
          1    1    1    2  501    0  0.14078609023E+02  0.15071595937E+02 -0.71714240160E+02  0.74620992207E+02  0.00000000000E+00 0. -1.
         -2    1    1    2    0  503  0.22466855044E+02 -0.10691947949E+02 -0.12874050972E+04  0.12876455109E+04  0.00000000000E+00 0.  1.
<mgrwt>
<rscale>  2 0.66973710E+02</rscale>
<asrwt>0</asrwt>
<pdfrwt beam="1">  1       21 0.76650265E-03 0.66973710E+02</pdfrwt>
<pdfrwt beam="2">  1       21 0.29759595E+00 0.66973710E+02</pdfrwt>
<totfact> 0.22997332E+05</totfact>
</mgrwt>
</event>
<event>
 5    1  0.1855960E+000  0.1509676E+03  0.7546771E-02  0.1199289E+00
         21   -1    0    0  503  502  0.00000000000E+00  0.00000000000E+00  0.43126008608E+03  0.43126008608E+03  0.00000000000E+00 0.  1.
         21   -1    0    0  501  503 -0.00000000000E+00 -0.00000000000E+00 -0.40283435878E+03  0.40283435878E+03  0.00000000000E+00 0. -1.
         24    1    1    2    0    0  0.50964369570E+02  0.89327039360E+02 -0.12081017572E+03  0.17787355463E+03  0.80419002446E+02 0.  1.
          1    1    1    2  501    0 -0.29100338631E+02  0.34789236764E+02 -0.24146964866E+03  0.24569231149E+03  0.00000000000E+00 0. -1.
         -2    1    1    2    0  502 -0.21864030939E+02 -0.12411627612E+03  0.39070555168E+03  0.41052857874E+03  0.00000000000E+00 0.  1.
<mgrwt>
<rscale>  2 0.15096756E+03</rscale>
<asrwt>0</asrwt>
<pdfrwt beam="1">  1       21 0.66347706E-01 0.15096756E+03</pdfrwt>
<pdfrwt beam="2">  1       21 0.61974517E-01 0.15096756E+03</pdfrwt>
<totfact> 0.52154953E+03</totfact>
</mgrwt>
</event>
<event>
 5    1  0.1855960E+000  0.8364792E+02  0.7546771E-02  0.1319007E+00
         21   -1    0    0  501  502  0.00000000000E+00  0.00000000000E+00  0.11455502310E+03  0.11455502310E+03  0.00000000000E+00 0.  1.
         21   -1    0    0  502  503 -0.00000000000E+00 -0.00000000000E+00 -0.11845808910E+03  0.11845808910E+03  0.00000000000E+00 0.  1.
         24    1    1    2    0    0 -0.10698915747E+02  0.71476078672E+01  0.34275894803E+02  0.88360670070E+02  0.80419002446E+02 0.  0.
          1    1    1    2  501    0  0.53943528055E+01 -0.46164286519E+02  0.37250665630E+02  0.59563852141E+02  0.00000000000E+00 0. -1.
         -2    1    1    2    0  503  0.53045629415E+01  0.39016678652E+02 -0.75429626433E+02  0.85088589980E+02  0.00000000000E+00 0.  1.
<mgrwt>
<rscale>  2 0.83647917E+02</rscale>
<asrwt>0</asrwt>
<pdfrwt beam="1">  1       21 0.17623850E-01 0.83647917E+02</pdfrwt>
<pdfrwt beam="2">  1       21 0.18224321E-01 0.83647917E+02</pdfrwt>
<totfact> 0.80034196E+05</totfact>
</mgrwt>
</event>
<event>
 5    1  0.1855960E+000  0.1048251E+03  0.7546771E-02  0.1270465E+00
         21   -1    0    0  501  502  0.00000000000E+00  0.00000000000E+00  0.49880921643E+03  0.49880921643E+03  0.00000000000E+00 0.  1.
         21   -1    0    0  502  503 -0.00000000000E+00 -0.00000000000E+00 -0.26565162575E+02  0.26565162575E+02  0.00000000000E+00 0. -1.
         24    1    1    2    0    0  0.12996894768E+00  0.69862648936E+02  0.20437860765E+03  0.23047480953E+03  0.80419002446E+02 0.  1.
          1    1    1    2  501    0  0.16238745726E+02 -0.81459779260E+02  0.26067564170E+03  0.27358944182E+03  0.00000000000E+00 0. -1.
         -2    1    1    2    0  503 -0.16368714673E+02  0.11597130324E+02  0.71898045040E+01  0.21310127654E+02  0.00000000000E+00 0.  1.
<mgrwt>
<rscale>  2 0.10482515E+03</rscale>
<asrwt>0</asrwt>
<pdfrwt beam="1">  1       21 0.76739872E-01 0.10482515E+03</pdfrwt>
<pdfrwt beam="2">  1       21 0.40869485E-02 0.10482515E+03</pdfrwt>
<totfact> 0.57704363E+05</totfact>
</mgrwt>
</event>
<event>
 5    1  0.1855960E+000  0.8298779E+02  0.7546771E-02  0.1320780E+00
         21   -1    0    0  501  502  0.00000000000E+00  0.00000000000E+00  0.33274188664E+03  0.33274188664E+03  0.00000000000E+00 0. -1.
         21   -1    0    0  502  503 -0.00000000000E+00 -0.00000000000E+00 -0.71808914912E+02  0.71808914912E+02  0.00000000000E+00 0.  1.
         24    1    1    2    0    0  0.21830060439E+01 -0.61206582030E+02  0.16789650528E+03  0.19597822236E+03  0.80419002446E+02 0. -1.
          1    1    1    2  501    0 -0.11867030003E+02  0.34071748073E+02  0.14485639564E+03  0.14928190036E+03  0.00000000000E+00 0. -1.
         -2    1    1    2    0  503  0.96840239587E+01  0.27134833957E+02 -0.51819929196E+02  0.59290678827E+02  0.00000000000E+00 0.  1.
<mgrwt>
<rscale>  2 0.82987786E+02</rscale>
<asrwt>0</asrwt>
<pdfrwt beam="1">  1       21 0.51191059E-01 0.82987786E+02</pdfrwt>
<pdfrwt beam="2">  1       21 0.11047526E-01 0.82987786E+02</pdfrwt>
<totfact> 0.25330882E+05</totfact>
</mgrwt>
</event>
<event>
 5    1  0.1855960E+000  0.9600908E+02  0.7546771E-02  0.1288919E+00
         21   -1    0    0  503  502  0.00000000000E+00  0.00000000000E+00  0.19273852410E+04  0.19273852410E+04  0.00000000000E+00 0.  1.
         21   -1    0    0  501  503 -0.00000000000E+00 -0.00000000000E+00 -0.17004670237E+02  0.17004670237E+02  0.00000000000E+00 0. -1.
         24    1    1    2    0    0 -0.54931678682E+02  0.56578776041E+02  0.77910270858E+03  0.78720193959E+03  0.80419002446E+02 0.  1.
          1    1    1    2  501    0  0.17349167402E+02 -0.12078768804E+02 -0.30560958363E+01  0.21359540892E+02  0.00000000000E+00 0. -1.
         -2    1    1    2    0  502  0.37582511280E+02 -0.44500007237E+02  0.11343339581E+04  0.11358284308E+04  0.00000000000E+00 0.  1.
<mgrwt>
<rscale>  2 0.96009084E+02</rscale>
<asrwt>0</asrwt>
<pdfrwt beam="1">  1       21 0.29652063E+00 0.96009084E+02</pdfrwt>
<pdfrwt beam="2">  1       21 0.26161046E-02 0.96009084E+02</pdfrwt>
<totfact> 0.31936841E+04</totfact>
</mgrwt>
</event>
<event>
 5    1  0.1855960E+000  0.1181906E+03  0.7546771E-02  0.1246112E+00
         21   -1    0    0  501  502  0.00000000000E+00  0.00000000000E+00  0.74808831078E+02  0.74808831078E+02  0.00000000000E+00 0. -1.
         21   -1    0    0  502  503 -0.00000000000E+00 -0.00000000000E+00 -0.28043275640E+03  0.28043275640E+03  0.00000000000E+00 0. -1.
         24    1    1    2    0    0 -0.16823037367E+02  0.52723697036E+02  0.10544621973E+02  0.98189652318E+02  0.80419002446E+02 0. -1.
          1    1    1    2  501    0 -0.15043658986E+02 -0.89121839630E+02 -0.13216616824E+03  0.16011530221E+03  0.00000000000E+00 0. -1.
         -2    1    1    2    0  503  0.31866696354E+02  0.36398142594E+02 -0.84002379059E+02  0.96936632953E+02  0.00000000000E+00 0.  1.
<mgrwt>
<rscale>  2 0.11819059E+03</rscale>
<asrwt>0</asrwt>
<pdfrwt beam="1">  1       21 0.11509051E-01 0.11819059E+03</pdfrwt>
<pdfrwt beam="2">  1       21 0.43143501E-01 0.11819059E+03</pdfrwt>
<totfact> 0.33132790E+05</totfact>
</mgrwt>
</event>
<event>
 5    1  0.1855960E+000  0.7270591E+02  0.7546771E-02  0.1351126E+00
         21   -1    0    0  501  502  0.00000000000E+00  0.00000000000E+00  0.11428650721E+03  0.11428650721E+03  0.00000000000E+00 0. -1.
         21   -1    0    0  502  503 -0.00000000000E+00 -0.00000000000E+00 -0.10344638519E+03  0.10344638519E+03  0.00000000000E+00 0.  1.
         24    1    1    2    0    0 -0.22464489897E+01 -0.15137304004E+02  0.41382294991E+01  0.81966611515E+02  0.80419002446E+02 0. -1.
          1    1    1    2  501    0  0.39596789516E+01  0.39213377129E+02  0.63112893063E+02  0.74408368307E+02  0.00000000000E+00 0. -1.
         -2    1    1    2    0  503 -0.17132299619E+01 -0.24076073126E+02 -0.56411000539E+02  0.61357912577E+02  0.00000000000E+00 0.  1.
<mgrwt>
<rscale>  2 0.72705912E+02</rscale>
<asrwt>0</asrwt>
<pdfrwt beam="1">  1       21 0.17582540E-01 0.72705912E+02</pdfrwt>
<pdfrwt beam="2">  1       21 0.15914828E-01 0.72705912E+02</pdfrwt>
<totfact> 0.10221704E+06</totfact>
</mgrwt>
</event>
<event>
 5    1  0.1855960E+000  0.6823207E+02  0.7546771E-02  0.1366210E+00
         21   -1    0    0  501  502  0.00000000000E+00  0.00000000000E+00  0.50067261799E+02  0.50067261799E+02  0.00000000000E+00 0. -1.
         21   -1    0    0  502  503 -0.00000000000E+00 -0.00000000000E+00 -0.11094540326E+04  0.11094540326E+04  0.00000000000E+00 0.  1.
         24    1    1    2    0    0  0.23864742034E+02  0.18645207449E+02 -0.10313057133E+03  0.13423971234E+03  0.80419002446E+02 0.  1.
          1    1    1    2  501    0  0.65653961171E+01 -0.18997010403E+02  0.31331904856E+02  0.37224710775E+02  0.00000000000E+00 0. -1.
         -2    1    1    2    0  503 -0.30430138151E+02  0.35180295412E+00 -0.98758810430E+03  0.98805687125E+03  0.00000000000E+00 0.  1.
<mgrwt>
<rscale>  2 0.68232071E+02</rscale>
<asrwt>0</asrwt>
<pdfrwt beam="1">  1       21 0.77026563E-02 0.68232071E+02</pdfrwt>
<pdfrwt beam="2">  1       21 0.17068522E+00 0.68232071E+02</pdfrwt>
<totfact> 0.30321864E+04</totfact>
</mgrwt>
</event>
<event>
 5    1  0.1855960E+000  0.1060628E+03  0.7546771E-02  0.1268040E+00
         21   -1    0    0  501  502  0.00000000000E+00  0.00000000000E+00  0.78385775717E+02  0.78385775717E+02  0.00000000000E+00 0.  1.
         21   -1    0    0  502  503 -0.00000000000E+00 -0.00000000000E+00 -0.16036047313E+03  0.16036047313E+03  0.00000000000E+00 0. -1.
         24    1    1    2    0    0 -0.55433951588E+01  0.48439081926E+02 -0.22459370925E+01  0.94070899196E+02  0.80419002446E+02 0.  1.
          1    1    1    2  501    0 -0.51039119441E+02 -0.20888249431E+02 -0.22329261462E+02  0.59497114175E+02  0.00000000000E+00 0. -1.
         -2    1    1    2    0  503  0.56582514600E+02 -0.27550832495E+02 -0.57399498856E+02  0.85178235475E+02  0.00000000000E+00 0.  1.
<mgrwt>
<rscale>  2 0.10606285E+03</rscale>
<asrwt>0</asrwt>
<pdfrwt beam="1">  1       21 0.12059350E-01 0.10606285E+03</pdfrwt>
<pdfrwt beam="2">  1       21 0.24670842E-01 0.10606285E+03</pdfrwt>
<totfact> 0.90390846E+05</totfact>
</mgrwt>
</event>
<event>
 5    1  0.1855960E+000  0.1008081E+03  0.7546771E-02  0.1278606E+00
         21   -1    0    0  503  502  0.00000000000E+00  0.00000000000E+00  0.28687621818E+03  0.28687621818E+03  0.00000000000E+00 0.  1.
         21   -1    0    0  501  503 -0.00000000000E+00 -0.00000000000E+00 -0.10060898661E+03  0.10060898661E+03  0.00000000000E+00 0.  1.
         24    1    1    2    0    0  0.45707438394E+02  0.43373262054E+01 -0.38023153493E+02  0.10010473755E+03  0.80419002446E+02 0.  1.
          1    1    1    2  501    0 -0.35848566525E+02 -0.50433003874E+02  0.38925146885E+01  0.61998058617E+02  0.00000000000E+00 0. -1.
         -2    1    1    2    0  502 -0.98588718689E+01  0.46095677669E+02  0.22039787037E+03  0.22538240863E+03  0.00000000000E+00 0.  1.
<mgrwt>
<rscale>  2 0.10080815E+03</rscale>
<asrwt>0</asrwt>
<pdfrwt beam="1">  1       21 0.44134802E-01 0.10080815E+03</pdfrwt>
<pdfrwt beam="2">  1       21 0.15478306E-01 0.10080815E+03</pdfrwt>
<totfact> 0.18762983E+05</totfact>
</mgrwt>
</event>
<event>
 5    1  0.1855960E+000  0.1268955E+03  0.7546771E-02  0.1232136E+00
         21   -1    0    0  503  502  0.00000000000E+00  0.00000000000E+00  0.17490750673E+03  0.17490750673E+03  0.00000000000E+00 0. -1.
         21   -1    0    0  501  503 -0.00000000000E+00 -0.00000000000E+00 -0.17304604975E+03  0.17304604975E+03  0.00000000000E+00 0. -1.
         24    1    1    2    0    0  0.81920206011E+02  0.53814445974E+02  0.90077301024E+02  0.15552508114E+03  0.80419002446E+02 0. -1.
          1    1    1    2  501    0 -0.50852785081E+01  0.19894251089E+02 -0.83352047010E+02  0.85844073906E+02  0.00000000000E+00 0. -1.
         -2    1    1    2    0  502 -0.76834927503E+02 -0.73708697063E+02 -0.48637970338E+01  0.10658440143E+03  0.00000000000E+00 0.  1.
<mgrwt>
<rscale>  2 0.12689553E+03</rscale>
<asrwt>0</asrwt>
<pdfrwt beam="1">  1       21 0.26908847E-01 0.12689553E+03</pdfrwt>
<pdfrwt beam="2">  1       21 0.26622469E-01 0.12689553E+03</pdfrwt>
<totfact> 0.18003150E+05</totfact>
</mgrwt>
</event>
<event>
 5    1  0.1855960E+000  0.6216905E+02  0.7546771E-02  0.1388948E+00
         21   -1    0    0  503  502  0.00000000000E+00  0.00000000000E+00  0.83805059258E+02  0.83805059258E+02  0.00000000000E+00 0. -1.
         21   -1    0    0  501  503 -0.00000000000E+00 -0.00000000000E+00 -0.91122696891E+02  0.91122696891E+02  0.00000000000E+00 0.  1.
         24    1    1    2    0    0 -0.23106074588E+01  0.87074354552E+01 -0.13406446334E+02  0.82025039450E+02  0.80419002446E+02 0.  0.
          1    1    1    2  501    0 -0.20071788905E+02 -0.54443938100E+01 -0.38017827436E+02  0.43334435923E+02  0.00000000000E+00 0. -1.
         -2    1    1    2    0  502  0.22382396364E+02 -0.32630416452E+01  0.44106636137E+02  0.49568280777E+02  0.00000000000E+00 0.  1.
<mgrwt>
<rscale>  2 0.62169048E+02</rscale>
<asrwt>0</asrwt>
<pdfrwt beam="1">  1       21 0.12893086E-01 0.62169048E+02</pdfrwt>
<pdfrwt beam="2">  1       21 0.14018876E-01 0.62169048E+02</pdfrwt>
<totfact> 0.22011792E+06</totfact>
</mgrwt>
</event>
<event>
 5    1  0.1855960E+000  0.6484684E+02  0.7546771E-02  0.1378549E+00
         21   -1    0    0  501  502  0.00000000000E+00  0.00000000000E+00  0.19624899504E+02  0.19624899504E+02  0.00000000000E+00 0.  1.
         21   -1    0    0  502  503 -0.00000000000E+00 -0.00000000000E+00 -0.87850850738E+03  0.87850850738E+03  0.00000000000E+00 0.  1.
         24    1    1    2    0    0  0.75389049796E+01 -0.23029661459E+02 -0.10093819441E+03  0.13131235829E+03  0.80419002446E+02 0.  1.
          1    1    1    2  501    0 -0.22026388489E+02  0.50229014551E+01 -0.25728754129E+02  0.34239744712E+02  0.00000000000E+00 0. -1.
         -2    1    1    2    0  503  0.14487483510E+02  0.18006760004E+02 -0.73221665933E+03  0.73258130388E+03  0.00000000000E+00 0.  1.
<mgrwt>
<rscale>  2 0.64846840E+02</rscale>
<asrwt>0</asrwt>
<pdfrwt beam="1">  1       21 0.30192154E-02 0.64846840E+02</pdfrwt>
<pdfrwt beam="2">  1       21 0.13515515E+00 0.64846840E+02</pdfrwt>
<totfact> 0.25695974E+05</totfact>
</mgrwt>
</event>
<event>
 5    1  0.1855960E+000  0.7136731E+02  0.7546771E-02  0.1355504E+00
         21   -1    0    0  503  502  0.00000000000E+00  0.00000000000E+00  0.22067102407E+03  0.22067102407E+03  0.00000000000E+00 0.  1.
         21   -1    0    0  501  503 -0.00000000000E+00 -0.00000000000E+00 -0.13484514208E+03  0.13484514208E+03  0.00000000000E+00 0. -1.
         24    1    1    2    0    0 -0.10839810203E+02  0.93022713105E+01 -0.67286811950E+01  0.81954407092E+02  0.80419002446E+02 0.  0.
          1    1    1    2  501    0  0.34878596906E+02  0.10249967610E+01 -0.86151991862E+02  0.92950163218E+02  0.00000000000E+00 0. -1.
         -2    1    1    2    0  502 -0.24038786703E+02 -0.10327268071E+02  0.17870655505E+03  0.18061159584E+03  0.00000000000E+00 0.  1.
<mgrwt>
<rscale>  2 0.71367312E+02</rscale>
<asrwt>0</asrwt>
<pdfrwt beam="1">  1       21 0.33949388E-01 0.71367312E+02</pdfrwt>
<pdfrwt beam="2">  1       21 0.20745407E-01 0.71367312E+02</pdfrwt>
<totfact> 0.18683316E+05</totfact>
</mgrwt>
</event>
<event>
 5    1  0.1855960E+000  0.1050715E+03  0.7546771E-02  0.1269979E+00
         21   -1    0    0  503  502  0.00000000000E+00  0.00000000000E+00  0.46841611652E+02  0.46841611652E+02  0.00000000000E+00 0.  1.
         21   -1    0    0  501  503 -0.00000000000E+00 -0.00000000000E+00 -0.24296076832E+03  0.24296076832E+03  0.00000000000E+00 0. -1.
         24    1    1    2    0    0 -0.34546783758E+02  0.75964803000E+02 -0.10005037131E+03  0.15310592515E+03  0.80419002446E+02 0. -1.
          1    1    1    2  501    0  0.14780483796E+01 -0.55161326229E+02 -0.72350917733E+02  0.90992372401E+02  0.00000000000E+00 0. -1.
         -2    1    1    2    0  502  0.33068735378E+02 -0.20803476770E+02 -0.23717867629E+02  0.45704082423E+02  0.00000000000E+00 0.  1.
<mgrwt>
<rscale>  2 0.10507152E+03</rscale>
<asrwt>0</asrwt>
<pdfrwt beam="1">  1       21 0.72064018E-02 0.10507152E+03</pdfrwt>
<pdfrwt beam="2">  1       21 0.37378580E-01 0.10507152E+03</pdfrwt>
<totfact> 0.99255630E+05</totfact>
</mgrwt>
</event>
<event>
 5    1  0.1855960E+000  0.8923865E+02  0.7546771E-02  0.1304706E+00
         21   -1    0    0  501  502  0.00000000000E+00  0.00000000000E+00  0.31542013002E+03  0.31542013002E+03  0.00000000000E+00 0.  1.
         21   -1    0    0  502  503 -0.00000000000E+00 -0.00000000000E+00 -0.68424577129E+02  0.68424577129E+02  0.00000000000E+00 0.  1.
         24    1    1    2    0    0  0.13854934925E+02  0.38177983812E+02 -0.28346201830E+02  0.94447026329E+02  0.80419002446E+02 0.  1.
          1    1    1    2  501    0  0.32204716921E+02 -0.75710376577E+01  0.12127571473E+03  0.12570705385E+03  0.00000000000E+00 0. -1.
         -2    1    1    2    0  503 -0.46059651846E+02 -0.30606946155E+02  0.15406603999E+03  0.16369062697E+03  0.00000000000E+00 0.  1.
<mgrwt>
<rscale>  2 0.89238647E+02</rscale>
<asrwt>0</asrwt>
<pdfrwt beam="1">  1       21 0.48526173E-01 0.89238647E+02</pdfrwt>
<pdfrwt beam="2">  1       21 0.10526858E-01 0.89238647E+02</pdfrwt>
<totfact> 0.30683758E+05</totfact>
</mgrwt>
</event>
<event>
 5    1  0.1855960E+000  0.6997200E+02  0.7546771E-02  0.1360188E+00
         21   -1    0    0  503  502  0.00000000000E+00  0.00000000000E+00  0.84606193889E+01  0.84606193889E+01  0.00000000000E+00 0. -1.
         21   -1    0    0  501  503 -0.00000000000E+00 -0.00000000000E+00 -0.92101020369E+03  0.92101020369E+03  0.00000000000E+00 0.  1.
         24    1    1    2    0    0 -0.58994041628E+01 -0.35019045665E+02 -0.55378454942E+03  0.56071889540E+03  0.80419002446E+02 0.  1.
          1    1    1    2  501    0 -0.15266272894E+02  0.23253470965E+02 -0.32991565120E+03  0.33108627261E+03  0.00000000000E+00 0. -1.
         -2    1    1    2    0  502  0.21165677057E+02  0.11765574700E+02 -0.28849383676E+02  0.37665655069E+02  0.00000000000E+00 0.  1.
<mgrwt>
<rscale>  2 0.69972002E+02</rscale>
<asrwt>0</asrwt>
<pdfrwt beam="1">  1       21 0.13016337E-02 0.69972002E+02</pdfrwt>
<pdfrwt beam="2">  1       21 0.14169388E+00 0.69972002E+02</pdfrwt>
<totfact> 0.86896024E+05</totfact>
</mgrwt>
</event>
<event>
 5    1  0.1855960E+000  0.1199210E+03  0.7546771E-02  0.1243227E+00
         21   -1    0    0  503  502  0.00000000000E+00  0.00000000000E+00  0.21257265687E+04  0.21257265687E+04  0.00000000000E+00 0.  1.
         21   -1    0    0  501  503 -0.00000000000E+00 -0.00000000000E+00 -0.33330812756E+02  0.33330812756E+02  0.00000000000E+00 0. -1.
         24    1    1    2    0    0  0.83431546357E+02 -0.70067497826E+01  0.26437493826E+03  0.28874078584E+03  0.80419002446E+02 0.  1.
          1    1    1    2  501    0  0.15743194591E+02 -0.15458321031E+02 -0.13581638190E+02  0.25908854875E+02  0.00000000000E+00 0. -1.
         -2    1    1    2    0  502 -0.99174740948E+02  0.22465070814E+02  0.18416024559E+04  0.18444077408E+04  0.00000000000E+00 0.  1.
<mgrwt>
<rscale>  2 0.11992104E+03</rscale>
<asrwt>0</asrwt>
<pdfrwt beam="1">  1       21 0.32703475E+00 0.11992104E+03</pdfrwt>
<pdfrwt beam="2">  1       21 0.51278190E-02 0.11992104E+03</pdfrwt>
<totfact> 0.68245079E+03</totfact>
</mgrwt>
</event>
<event>
 5    1  0.1855960E+000  0.9624357E+02  0.7546771E-02  0.1288400E+00
         21   -1    0    0  501  502  0.00000000000E+00  0.00000000000E+00  0.33988681896E+02  0.33988681896E+02  0.00000000000E+00 0. -1.
         21   -1    0    0  502  503 -0.00000000000E+00 -0.00000000000E+00 -0.32240628778E+03  0.32240628778E+03  0.00000000000E+00 0.  1.
         24    1    1    2    0    0  0.40534628644E+02 -0.30181518225E+02 -0.21078639732E+03  0.23119710511E+03  0.80419002446E+02 0.  1.
          1    1    1    2  501    0 -0.51219234056E+02  0.52138923423E+02 -0.51352226871E+02  0.89324848042E+02  0.00000000000E+00 0. -1.
         -2    1    1    2    0  503  0.10684605412E+02 -0.21957405198E+02 -0.26278981696E+02  0.35873016528E+02  0.00000000000E+00 0.  1.
<mgrwt>
<rscale>  2 0.96243571E+02</rscale>
<asrwt>0</asrwt>
<pdfrwt beam="1">  1       21 0.52290280E-02 0.96243571E+02</pdfrwt>
<pdfrwt beam="2">  1       21 0.49600967E-01 0.96243571E+02</pdfrwt>
<totfact> 0.96573052E+05</totfact>
</mgrwt>
</event>
<event>
 5    1  0.1855960E+000  0.1561114E+03  0.7546771E-02  0.1193158E+00
         21   -1    0    0  501  502  0.00000000000E+00  0.00000000000E+00  0.25443563819E+02  0.25443563819E+02  0.00000000000E+00 0. -1.
         21   -1    0    0  502  503 -0.00000000000E+00 -0.00000000000E+00 -0.13647031136E+04  0.13647031136E+04  0.00000000000E+00 0.  1.
         24    1    1    2    0    0 -0.11352949515E+03 -0.41037493302E+01 -0.71104630147E+03  0.72454112776E+03  0.80419002446E+02 0.  1.
          1    1    1    2  501    0 -0.11939187037E+02 -0.38674205360E+02 -0.24072948116E+02  0.47092941916E+02  0.00000000000E+00 0. -1.
         -2    1    1    2    0  503  0.12546868219E+03  0.42777954690E+02 -0.60414030024E+03  0.61851260779E+03  0.00000000000E+00 0.  1.
<mgrwt>
<rscale>  2 0.15611140E+03</rscale>
<asrwt>0</asrwt>
<pdfrwt beam="1">  1       21 0.39143939E-02 0.15611140E+03</pdfrwt>
<pdfrwt beam="2">  1       21 0.20995435E+00 0.15611140E+03</pdfrwt>
<totfact> 0.48434549E+04</totfact>
</mgrwt>
</event>
<event>
 5    1  0.1855960E+000  0.9800053E+02  0.7546771E-02  0.1284558E+00
         21   -1    0    0  501  502  0.00000000000E+00  0.00000000000E+00  0.88504872903E+03  0.88504872903E+03  0.00000000000E+00 0. -1.
         21   -1    0    0  502  503 -0.00000000000E+00 -0.00000000000E+00 -0.18634787994E+02  0.18634787994E+02  0.00000000000E+00 0. -1.
         24    1    1    2    0    0 -0.48947238368E+02 -0.57163774016E+02  0.29018335913E+03  0.31038222738E+03  0.80419002446E+02 0. -1.
          1    1    1    2  501    0  0.12139663011E+02  0.45737386453E+02  0.53413729706E+03  0.53622936515E+03  0.00000000000E+00 0. -1.
         -2    1    1    2    0  503  0.36807575357E+02  0.11426387563E+02  0.42093284846E+02  0.57071924495E+02  0.00000000000E+00 0.  1.
<mgrwt>
<rscale>  2 0.98000530E+02</rscale>
<asrwt>0</asrwt>
<pdfrwt beam="1">  1       21 0.13616131E+00 0.98000530E+02</pdfrwt>
<pdfrwt beam="2">  1       21 0.28668912E-02 0.98000530E+02</pdfrwt>
<totfact> 0.27072045E+05</totfact>
</mgrwt>
</event>
<event>
 5    1  0.1855960E+000  0.7832492E+02  0.7546771E-02  0.1333873E+00
         21   -1    0    0  501  502  0.00000000000E+00  0.00000000000E+00  0.46203498107E+02  0.46203498107E+02  0.00000000000E+00 0. -1.
         21   -1    0    0  502  503 -0.00000000000E+00 -0.00000000000E+00 -0.45248857650E+03  0.45248857650E+03  0.00000000000E+00 0.  1.
         24    1    1    2    0    0  0.22585285324E+02  0.16481805115E+01 -0.87044967262E+02  0.12065178777E+03  0.80419002446E+02 0. -1.
          1    1    1    2  501    0 -0.89113562004E+01 -0.35496141393E+02  0.16625230992E+02  0.40196848492E+02  0.00000000000E+00 0. -1.
         -2    1    1    2    0  503 -0.13673929123E+02  0.33847960882E+02 -0.33586534213E+03  0.33784343835E+03  0.00000000000E+00 0.  1.
<mgrwt>
<rscale>  2 0.78324920E+02</rscale>
<asrwt>0</asrwt>
<pdfrwt beam="1">  1       21 0.71082304E-02 0.78324920E+02</pdfrwt>
<pdfrwt beam="2">  1       21 0.69613628E-01 0.78324920E+02</pdfrwt>
<totfact> 0.28375724E+05</totfact>
</mgrwt>
</event>
<event>
 5    1  0.1855960E+000  0.1096936E+03  0.7546771E-02  0.1261138E+00
         21   -1    0    0  503  502  0.00000000000E+00  0.00000000000E+00  0.62261713297E+03  0.62261713297E+03  0.00000000000E+00 0. -1.
         21   -1    0    0  501  503 -0.00000000000E+00 -0.00000000000E+00 -0.22164764378E+02  0.22164764378E+02  0.00000000000E+00 0.  1.
         24    1    1    2    0    0 -0.18420439203E+02 -0.78499458148E+02  0.26084551666E+03  0.28462093567E+03  0.80419002446E+02 0.  1.
          1    1    1    2  501    0  0.39499601290E+02  0.74104835871E+02  0.17448189501E+03  0.19363800476E+03  0.00000000000E+00 0. -1.
         -2    1    1    2    0  502 -0.21079162087E+02  0.43946222770E+01  0.16512495692E+03  0.16652295691E+03  0.00000000000E+00 0.  1.
<mgrwt>
<rscale>  2 0.10969362E+03</rscale>
<asrwt>0</asrwt>
<pdfrwt beam="1">  1       21 0.95787238E-01 0.10969362E+03</pdfrwt>
<pdfrwt beam="2">  1       21 0.34099642E-02 0.10969362E+03</pdfrwt>
<totfact> 0.47185434E+05</totfact>
</mgrwt>
</event>
<event>
 5    1  0.1855960E+000  0.8486672E+02  0.7546771E-02  0.1315781E+00
         21   -1    0    0  503  502  0.00000000000E+00  0.00000000000E+00  0.27637049054E+03  0.27637049054E+03  0.00000000000E+00 0.  1.
         21   -1    0    0  501  503 -0.00000000000E+00 -0.00000000000E+00 -0.71731858629E+02  0.71731858629E+02  0.00000000000E+00 0.  1.
         24    1    1    2    0    0  0.19708769079E+01 -0.16227668515E+02  0.14094359721E+03  0.16309363914E+03  0.80419002446E+02 0.  1.
          1    1    1    2  501    0  0.85992838763E+01 -0.34652365904E+02 -0.49163907809E+02  0.60760381639E+02  0.00000000000E+00 0. -1.
         -2    1    1    2    0  502 -0.10570160784E+02  0.50880034418E+02  0.11285894252E+03  0.12424832839E+03  0.00000000000E+00 0.  1.
<mgrwt>
<rscale>  2 0.84866717E+02</rscale>
<asrwt>0</asrwt>
<pdfrwt beam="1">  1       21 0.42518537E-01 0.84866717E+02</pdfrwt>
<pdfrwt beam="2">  1       21 0.11035671E-01 0.84866717E+02</pdfrwt>
<totfact> 0.36894024E+05</totfact>
</mgrwt>
</event>
<event>
 5    1  0.1855960E+000  0.6930609E+02  0.7546771E-02  0.1362469E+00
         21   -1    0    0  503  502  0.00000000000E+00  0.00000000000E+00  0.83111117760E+02  0.83111117760E+02  0.00000000000E+00 0.  1.
         21   -1    0    0  501  503 -0.00000000000E+00 -0.00000000000E+00 -0.92959564907E+02  0.92959564907E+02  0.00000000000E+00 0. -1.
         24    1    1    2    0    0  0.11835750830E+02 -0.30866656548E+02 -0.38332383226E+02  0.95023276319E+02  0.80419002446E+02 0.  0.
          1    1    1    2  501    0  0.97758968487E+01  0.28250589869E+02 -0.14228217582E+02  0.33107494056E+02  0.00000000000E+00 0. -1.
         -2    1    1    2    0  502 -0.21611647678E+02  0.26160666795E+01  0.42712153661E+02  0.47939912292E+02  0.00000000000E+00 0.  1.
<mgrwt>
<rscale>  2 0.69306089E+02</rscale>
<asrwt>0</asrwt>
<pdfrwt beam="1">  1       21 0.12786326E-01 0.69306089E+02</pdfrwt>
<pdfrwt beam="2">  1       21 0.14301472E-01 0.69306089E+02</pdfrwt>
<totfact> 0.21689719E+06</totfact>
</mgrwt>
</event>
<event>
 5    1  0.1855960E+000  0.9202322E+02  0.7546771E-02  0.1298025E+00
         21   -1    0    0  501  502  0.00000000000E+00  0.00000000000E+00  0.34190780369E+02  0.34190780369E+02  0.00000000000E+00 0. -1.
         21   -1    0    0  502  503 -0.00000000000E+00 -0.00000000000E+00 -0.48846158144E+03  0.48846158144E+03  0.00000000000E+00 0.  1.
         24    1    1    2    0    0  0.61635650829E+02  0.10388838395E+02 -0.31037721917E+03  0.32666208160E+03  0.80419002446E+02 0.  1.
          1    1    1    2  501    0 -0.33741481281E+02  0.21357668561E+02  0.58847668087E+01  0.40364192619E+02  0.00000000000E+00 0. -1.
         -2    1    1    2    0  503 -0.27894169548E+02 -0.31746506955E+02 -0.14977834871E+03  0.15562608759E+03  0.00000000000E+00 0.  1.
<mgrwt>
<rscale>  2 0.92023218E+02</rscale>
<asrwt>0</asrwt>
<pdfrwt beam="1">  1       21 0.52601203E-02 0.92023218E+02</pdfrwt>
<pdfrwt beam="2">  1       21 0.75147932E-01 0.92023218E+02</pdfrwt>
<totfact> 0.39774118E+05</totfact>
</mgrwt>
</event>
<event>
 5    1  0.1855960E+000  0.8498661E+02  0.7546771E-02  0.1315468E+00
         21   -1    0    0  503  502  0.00000000000E+00  0.00000000000E+00  0.74552158946E+02  0.74552158946E+02  0.00000000000E+00 0. -1.
         21   -1    0    0  501  503 -0.00000000000E+00 -0.00000000000E+00 -0.11200643866E+03  0.11200643866E+03  0.00000000000E+00 0.  1.
         24    1    1    2    0    0  0.48503981882E+02 -0.47067292704E+01  0.13244364942E+02  0.94960090121E+02  0.80419002446E+02 0. -1.
          1    1    1    2  501    0 -0.91239130011E+01  0.28504462021E+02 -0.24296047936E+02  0.38549294272E+02  0.00000000000E+00 0. -1.
         -2    1    1    2    0  502 -0.39380068881E+02 -0.23797732750E+02 -0.26402596723E+02  0.53049213216E+02  0.00000000000E+00 0.  1.
<mgrwt>
<rscale>  2 0.84986609E+02</rscale>
<asrwt>0</asrwt>
<pdfrwt beam="1">  1       21 0.11469563E-01 0.84986609E+02</pdfrwt>
<pdfrwt beam="2">  1       21 0.17231760E-01 0.84986609E+02</pdfrwt>
<totfact> 0.18987877E+06</totfact>
</mgrwt>
</event>
<event>
 5    1  0.1855960E+000  0.9652478E+02  0.7546771E-02  0.1287778E+00
         21   -1    0    0  503  502  0.00000000000E+00  0.00000000000E+00  0.90528193272E+02  0.90528193272E+02  0.00000000000E+00 0.  1.
         21   -1    0    0  501  503 -0.00000000000E+00 -0.00000000000E+00 -0.27178190242E+03  0.27178190242E+03  0.00000000000E+00 0. -1.
         24    1    1    2    0    0  0.83328406162E+01  0.38881133805E+02 -0.30079641253E+02  0.94621242705E+02  0.80419002446E+02 0.  0.
          1    1    1    2  501    0  0.17802441735E+01 -0.70304006807E+02 -0.19815825765E+03  0.21026772866E+03  0.00000000000E+00 0. -1.
         -2    1    1    2    0  502 -0.10113084790E+02  0.31422873002E+02  0.46984189756E+02  0.57421124324E+02  0.00000000000E+00 0.  1.
<mgrwt>
<rscale>  2 0.96524780E+02</rscale>
<asrwt>0</asrwt>
<pdfrwt beam="1">  1       21 0.13927415E-01 0.96524780E+02</pdfrwt>
<pdfrwt beam="2">  1       21 0.41812599E-01 0.96524780E+02</pdfrwt>
<totfact> 0.25280064E+05</totfact>
</mgrwt>
</event>
<event>
 5    1  0.1855960E+000  0.7670309E+02  0.7546771E-02  0.1338677E+00
         21   -1    0    0  503  502  0.00000000000E+00  0.00000000000E+00  0.51485932059E+03  0.51485932059E+03  0.00000000000E+00 0.  1.
         21   -1    0    0  501  503 -0.00000000000E+00 -0.00000000000E+00 -0.37253222847E+02  0.37253222847E+02  0.00000000000E+00 0. -1.
         24    1    1    2    0    0  0.13932708788E+02 -0.15200121256E+02  0.40498987318E+03  0.41341163190E+03  0.80419002446E+02 0.  1.
          1    1    1    2  501    0  0.56800635180E+01 -0.25010338890E+02 -0.22160864946E+02  0.33895192994E+02  0.00000000000E+00 0. -1.
         -2    1    1    2    0  502 -0.19612772306E+02  0.40210460146E+02  0.94777089506E+02  0.10480571854E+03  0.00000000000E+00 0.  1.
<mgrwt>
<rscale>  2 0.76703090E+02</rscale>
<asrwt>0</asrwt>
<pdfrwt beam="1">  1       21 0.79209121E-01 0.76703090E+02</pdfrwt>
<pdfrwt beam="2">  1       21 0.57312654E-02 0.76703090E+02</pdfrwt>
<totfact> 0.30793012E+05</totfact>
</mgrwt>
</event>
<event>
 5    1  0.1855960E+000  0.1099423E+03  0.7546771E-02  0.1260677E+00
         21   -1    0    0  503  502  0.00000000000E+00  0.00000000000E+00  0.17386380037E+03  0.17386380037E+03  0.00000000000E+00 0.  1.
         21   -1    0    0  501  503 -0.00000000000E+00 -0.00000000000E+00 -0.28775461739E+03  0.28775461739E+03  0.00000000000E+00 0. -1.
         24    1    1    2    0    0  0.27295285926E+02  0.89061733041E+02 -0.12488413146E+03  0.17532908250E+03  0.80419002446E+02 0.  0.
          1    1    1    2  501    0  0.20290331277E+01 -0.37116355939E+02 -0.12893001657E+03  0.13418155620E+03  0.00000000000E+00 0. -1.
         -2    1    1    2    0  502 -0.29324319054E+02 -0.51945377102E+02  0.13992333100E+03  0.15210777905E+03  0.00000000000E+00 0.  1.
<mgrwt>
<rscale>  2 0.10994234E+03</rscale>
<asrwt>0</asrwt>
<pdfrwt beam="1">  1       21 0.26748277E-01 0.10994234E+03</pdfrwt>
<pdfrwt beam="2">  1       21 0.44269941E-01 0.10994234E+03</pdfrwt>
<totfact> 0.67784803E+04</totfact>
</mgrwt>
</event>
<event>
 5    1  0.1855960E+000  0.6934537E+02  0.7546771E-02  0.1362333E+00
         21   -1    0    0  501  502  0.00000000000E+00  0.00000000000E+00  0.34424927514E+02  0.34424927514E+02  0.00000000000E+00 0.  1.
         21   -1    0    0  502  503 -0.00000000000E+00 -0.00000000000E+00 -0.15329809883E+03  0.15329809883E+03  0.00000000000E+00 0. -1.
         24    1    1    2    0    0  0.13162796233E+02  0.61162633242E+01 -0.71829151987E+02  0.10879940676E+03  0.80419002446E+02 0.  1.
          1    1    1    2  501    0 -0.23246194372E+02 -0.25878581951E+02 -0.10792755585E+02  0.36422110451E+02  0.00000000000E+00 0. -1.
         -2    1    1    2    0  503  0.10083398139E+02  0.19762318627E+02 -0.36251263744E+02  0.42501509133E+02  0.00000000000E+00 0.  1.
<mgrwt>
<rscale>  2 0.69345372E+02</rscale>
<asrwt>0</asrwt>
<pdfrwt beam="1">  1       21 0.52961427E-02 0.69345372E+02</pdfrwt>
<pdfrwt beam="2">  1       21 0.23584323E-01 0.69345372E+02</pdfrwt>
<totfact> 0.39378273E+06</totfact>
</mgrwt>
</event>
<event>
 5    1  0.1855960E+000  0.1630562E+03  0.7546771E-02  0.1185289E+00
         21   -1    0    0  501  502  0.00000000000E+00  0.00000000000E+00  0.15932556422E+03  0.15932556422E+03  0.00000000000E+00 0. -1.
         21   -1    0    0  502  503 -0.00000000000E+00 -0.00000000000E+00 -0.52483632736E+03  0.52483632736E+03  0.00000000000E+00 0. -1.
         24    1    1    2    0    0  0.50997220147E+02 -0.13147305686E+03 -0.24388890438E+03  0.29297592867E+03  0.80419002446E+02 0. -1.
          1    1    1    2  501    0 -0.73782402300E+02  0.89264367675E+02  0.10694745197E+03  0.15763796405E+03  0.00000000000E+00 0. -1.
         -2    1    1    2    0  503  0.22785182153E+02  0.42208689182E+02 -0.22856931073E+03  0.23354799887E+03  0.00000000000E+00 0.  1.
<mgrwt>
<rscale>  2 0.16305622E+03</rscale>
<asrwt>0</asrwt>
<pdfrwt beam="1">  1       21 0.24511625E-01 0.16305622E+03</pdfrwt>
<pdfrwt beam="2">  1       21 0.80744051E-01 0.16305622E+03</pdfrwt>
<totfact> 0.21575900E+04</totfact>
</mgrwt>
</event>
<event>
 5    1  0.1855960E+000  0.1398781E+03  0.7546771E-02  0.1213493E+00
         21   -1    0    0  503  502  0.00000000000E+00  0.00000000000E+00  0.43423933203E+02  0.43423933203E+02  0.00000000000E+00 0. -1.
         21   -1    0    0  501  503 -0.00000000000E+00 -0.00000000000E+00 -0.61671943441E+03  0.61671943441E+03  0.00000000000E+00 0. -1.
         24    1    1    2    0    0  0.11929710566E+03  0.26233140989E+02 -0.21648626905E+03  0.26125370380E+03  0.80419002446E+02 0. -1.
          1    1    1    2  501    0 -0.86826865201E+02 -0.43086024383E+02 -0.34801894500E+03  0.36126513269E+03  0.00000000000E+00 0. -1.
         -2    1    1    2    0  502 -0.32470240463E+02  0.16852883394E+02 -0.87902871612E+01  0.37624531131E+02  0.00000000000E+00 0.  1.
<mgrwt>
<rscale>  2 0.13987815E+03</rscale>
<asrwt>0</asrwt>
<pdfrwt beam="1">  1       21 0.66806056E-02 0.13987815E+03</pdfrwt>
<pdfrwt beam="2">  1       21 0.94879906E-01 0.13987815E+03</pdfrwt>
<totfact> 0.15518821E+05</totfact>
</mgrwt>
</event>
<event>
 5    1  0.2487790E+000  0.1079658E+03  0.7546771E-02  0.1264384E+00
         21   -1    0    0  503  502  0.00000000000E+00  0.00000000000E+00  0.34687953608E+03  0.34687953608E+03  0.00000000000E+00 0. -1.
         21   -1    0    0  501  503 -0.00000000000E+00 -0.00000000000E+00 -0.18095838312E+03  0.18095838312E+03  0.00000000000E+00 0. -1.
         24    1    1    2    0    0 -0.99771161481E+00  0.37570831285E+02  0.59148691876E+02  0.10666933250E+03  0.80419002446E+02 0. -1.
          1    1    1    2  501    0  0.60866370736E+02 -0.11877272316E+02 -0.14679964204E+03  0.15936097260E+03  0.00000000000E+00 0. -1.
         -2    1    1    2    0  502 -0.59868659121E+02 -0.25693558969E+02  0.25357210313E+03  0.26180761410E+03  0.00000000000E+00 0.  1.
<mgrwt>
<rscale>  2 0.10796584E+03</rscale>
<asrwt>0</asrwt>
<pdfrwt beam="1">  1       21 0.53366082E-01 0.10796584E+03</pdfrwt>
<pdfrwt beam="2">  1       21 0.27839751E-01 0.10796584E+03</pdfrwt>
<totfact> 0.42924267E+04</totfact>
</mgrwt>
</event>
<event>
 5    1  0.1855960E+000  0.6774509E+02  0.7546771E-02  0.1367933E+00
         21   -1    0    0  503  502  0.00000000000E+00  0.00000000000E+00  0.55172007965E+02  0.55172007965E+02  0.00000000000E+00 0.  1.
         21   -1    0    0  501  503 -0.00000000000E+00 -0.00000000000E+00 -0.10847094772E+03  0.10847094772E+03  0.00000000000E+00 0.  1.
         24    1    1    2    0    0  0.19123187700E+02  0.36504938887E+01 -0.44943408617E+02  0.94160226985E+02  0.80419002446E+02 0.  1.
          1    1    1    2  501    0 -0.18527067017E+02 -0.25151673620E+02 -0.26791250216E+02  0.41153735994E+02  0.00000000000E+00 0. -1.
         -2    1    1    2    0  502 -0.59612068274E+00  0.21501179731E+02  0.18435719078E+02  0.28328992704E+02  0.00000000000E+00 0.  1.
<mgrwt>
<rscale>  2 0.67745091E+02</rscale>
<asrwt>0</asrwt>
<pdfrwt beam="1">  1       21 0.84880013E-02 0.67745091E+02</pdfrwt>
<pdfrwt beam="2">  1       21 0.16687838E-01 0.67745091E+02</pdfrwt>
<totfact> 0.33379032E+06</totfact>
</mgrwt>
</event>
<event>
 5    1  0.1855960E+000  0.8138560E+02  0.7546771E-02  0.1325165E+00
         21   -1    0    0  503  502  0.00000000000E+00  0.00000000000E+00  0.37363483974E+03  0.37363483974E+03  0.00000000000E+00 0. -1.
         21   -1    0    0  501  503 -0.00000000000E+00 -0.00000000000E+00 -0.29853236969E+02  0.29853236969E+02  0.00000000000E+00 0. -1.
         24    1    1    2    0    0  0.43224026634E+02  0.35599269153E+02  0.30118058067E+03  0.31672161683E+03  0.80419002446E+02 0. -1.
          1    1    1    2  501    0 -0.23066079006E+02 -0.38024650835E+02  0.59534225489E+01  0.44870494892E+02  0.00000000000E+00 0. -1.
         -2    1    1    2    0  502 -0.20157947628E+02  0.24253816821E+01  0.36647599552E+02  0.41895964983E+02  0.00000000000E+00 0.  1.
<mgrwt>
<rscale>  2 0.81385604E+02</rscale>
<asrwt>0</asrwt>
<pdfrwt beam="1">  1       21 0.57482280E-01 0.81385604E+02</pdfrwt>
<pdfrwt beam="2">  1       21 0.45928060E-02 0.81385604E+02</pdfrwt>
<totfact> 0.88194527E+05</totfact>
</mgrwt>
</event>
<event>
 5    1  0.1855960E+000  0.7051442E+02  0.7546771E-02  0.1358352E+00
         21   -1    0    0  503  502  0.00000000000E+00  0.00000000000E+00  0.32702753765E+03  0.32702753765E+03  0.00000000000E+00 0.  1.
         21   -1    0    0  501  503 -0.00000000000E+00 -0.00000000000E+00 -0.17912258831E+02  0.17912258831E+02  0.00000000000E+00 0. -1.
         24    1    1    2    0    0 -0.83383565460E+01 -0.15173572480E+01  0.13060759588E+03  0.15361442191E+03  0.80419002446E+02 0. -1.
          1    1    1    2  501    0  0.11269529060E+01  0.30386939407E+02  0.43481214466E+02  0.53058949489E+02  0.00000000000E+00 0. -1.
         -2    1    1    2    0  502  0.72114036399E+01 -0.28869582159E+02  0.13502646847E+03  0.13826642508E+03  0.00000000000E+00 0.  1.
<mgrwt>
<rscale>  2 0.70514416E+02</rscale>
<asrwt>0</asrwt>
<pdfrwt beam="1">  1       21 0.50311924E-01 0.70514416E+02</pdfrwt>
<pdfrwt beam="2">  1       21 0.27557324E-02 0.70514416E+02</pdfrwt>
<totfact> 0.26534598E+06</totfact>
</mgrwt>
</event>
<event>
 5    1  0.1855960E+000  0.1906100E+03  0.7546771E-02  0.1157912E+00
         21   -1    0    0  501  502  0.00000000000E+00  0.00000000000E+00  0.93556348200E+03  0.93556348200E+03  0.00000000000E+00 0.  1.
         21   -1    0    0  502  503 -0.00000000000E+00 -0.00000000000E+00 -0.94063773647E+02  0.94063773647E+02  0.00000000000E+00 0.  1.
         24    1    1    2    0    0 -0.63668673830E+02  0.13705692234E+03  0.49576312986E+03  0.52448698446E+03  0.80419002446E+02 0.  1.
          1    1    1    2  501    0 -0.28514814755E+02  0.14995762532E+02  0.32446257898E+03  0.32605817381E+03  0.00000000000E+00 0. -1.
         -2    1    1    2    0  503  0.92183488585E+02 -0.15205268487E+03  0.21273999517E+02  0.17908209737E+03  0.00000000000E+00 0.  1.
<mgrwt>
<rscale>  2 0.19061002E+03</rscale>
<asrwt>0</asrwt>
<pdfrwt beam="1">  1       21 0.14393284E+00 0.19061002E+03</pdfrwt>
<pdfrwt beam="2">  1       21 0.14471350E-01 0.19061002E+03</pdfrwt>
<totfact> 0.13964793E+04</totfact>
</mgrwt>
</event>
<event>
 5    1  0.1855960E+000  0.9735316E+02  0.7546771E-02  0.1285962E+00
         21   -1    0    0  503  502  0.00000000000E+00  0.00000000000E+00  0.24348083493E+04  0.24348083493E+04  0.00000000000E+00 0.  1.
         21   -1    0    0  501  503 -0.00000000000E+00 -0.00000000000E+00 -0.48555777811E+01  0.48555777811E+01  0.00000000000E+00 0.  1.
         24    1    1    2    0    0  0.21398470321E+02  0.64889539491E+02  0.11910656327E+04  0.11957312007E+04  0.80419002446E+02 0.  1.
          1    1    1    2  501    0 -0.34809171625E+02 -0.15683116302E+02  0.18954261345E+03  0.19334953033E+03  0.00000000000E+00 0. -1.
         -2    1    1    2    0  502  0.13410701304E+02 -0.49206423189E+02  0.10493445253E+04  0.10505831960E+04  0.00000000000E+00 0.  1.
<mgrwt>
<rscale>  2 0.97353162E+02</rscale>
<asrwt>0</asrwt>
<pdfrwt beam="1">  1       21 0.37458492E+00 0.97353162E+02</pdfrwt>
<pdfrwt beam="2">  1       21 0.74701391E-03 0.97353162E+02</pdfrwt>
<totfact> 0.84418504E+04</totfact>
</mgrwt>
</event>
<event>
 5    1  0.1855960E+000  0.6843467E+02  0.7546771E-02  0.1365498E+00
         21   -1    0    0  503  502  0.00000000000E+00  0.00000000000E+00  0.15789923531E+02  0.15789923531E+02  0.00000000000E+00 0.  1.
         21   -1    0    0  501  503 -0.00000000000E+00 -0.00000000000E+00 -0.76895172863E+03  0.76895172863E+03  0.00000000000E+00 0.  1.
         24    1    1    2    0    0 -0.19700952777E+02  0.99541333936E+01 -0.62633016214E+03  0.63185749998E+03  0.80419002446E+02 0.  1.
          1    1    1    2  501    0  0.32789544146E+02  0.54747396886E+01 -0.12835894051E+03  0.13259390856E+03  0.00000000000E+00 0. -1.
         -2    1    1    2    0  502 -0.13088591369E+02 -0.15428873082E+02  0.15272975468E+01  0.20290243626E+02  0.00000000000E+00 0.  1.
<mgrwt>
<rscale>  2 0.68434673E+02</rscale>
<asrwt>0</asrwt>
<pdfrwt beam="1">  1       21 0.24292192E-02 0.68434673E+02</pdfrwt>
<pdfrwt beam="2">  1       21 0.11830026E+00 0.68434673E+02</pdfrwt>
<totfact> 0.50164298E+05</totfact>
</mgrwt>
</event>
<event>
 5    1  0.1855960E+000  0.8991073E+02  0.7546771E-02  0.1303068E+00
         21   -1    0    0  503  502  0.00000000000E+00  0.00000000000E+00  0.35082479671E+03  0.35082479671E+03  0.00000000000E+00 0.  1.
         21   -1    0    0  501  503 -0.00000000000E+00 -0.00000000000E+00 -0.28198829665E+02  0.28198829665E+02  0.00000000000E+00 0. -1.
         24    1    1    2    0    0  0.18686624935E+02  0.69386245305E+02  0.22138210154E+03  0.24625371434E+03  0.80419002446E+02 0.  1.
          1    1    1    2  501    0 -0.63463894388E+01 -0.31388813951E+02  0.10633844550E+02  0.33743339344E+02  0.00000000000E+00 0. -1.
         -2    1    1    2    0  502 -0.12340235496E+02 -0.37997431354E+02  0.90610020949E+02  0.99026572686E+02  0.00000000000E+00 0.  1.
<mgrwt>
<rscale>  2 0.89910731E+02</rscale>
<asrwt>0</asrwt>
<pdfrwt beam="1">  1       21 0.53973043E-01 0.89910731E+02</pdfrwt>
<pdfrwt beam="2">  1       21 0.43382817E-02 0.89910731E+02</pdfrwt>
<totfact> 0.11061694E+06</totfact>
</mgrwt>
</event>
<event>
 5    1  0.1855960E+000  0.7778701E+02  0.7546771E-02  0.1335451E+00
         21   -1    0    0  501  502  0.00000000000E+00  0.00000000000E+00  0.17300018532E+02  0.17300018532E+02  0.00000000000E+00 0.  1.
         21   -1    0    0  502  503 -0.00000000000E+00 -0.00000000000E+00 -0.73961718799E+03  0.73961718799E+03  0.00000000000E+00 0.  1.
         24    1    1    2    0    0  0.45401415698E+02  0.33877240999E+02 -0.18927026247E+03  0.21330589353E+03  0.80419002446E+02 0.  1.
          1    1    1    2  501    0 -0.14848074275E+02 -0.15908076295E+02 -0.20680343517E+02  0.30020140057E+02  0.00000000000E+00 0. -1.
         -2    1    1    2    0  503 -0.30553341423E+02 -0.17969164704E+02 -0.51236656347E+03  0.51359117293E+03  0.00000000000E+00 0.  1.
<mgrwt>
<rscale>  2 0.77787014E+02</rscale>
<asrwt>0</asrwt>
<pdfrwt beam="1">  1       21 0.26615408E-02 0.77787014E+02</pdfrwt>
<pdfrwt beam="2">  1       21 0.11378728E+00 0.77787014E+02</pdfrwt>
<totfact> 0.47438538E+05</totfact>
</mgrwt>
</event>
<event>
 5    1  0.1855960E+000  0.7929191E+02  0.7546771E-02  0.1331073E+00
         21   -1    0    0  501  502  0.00000000000E+00  0.00000000000E+00  0.20508500462E+03  0.20508500462E+03  0.00000000000E+00 0.  1.
         21   -1    0    0  502  503 -0.00000000000E+00 -0.00000000000E+00 -0.34598725500E+02  0.34598725500E+02  0.00000000000E+00 0.  1.
         24    1    1    2    0    0  0.14474822792E+02  0.30733026936E+02  0.97016996301E+02  0.13051265443E+03  0.80419002446E+02 0.  1.
          1    1    1    2  501    0  0.18997519902E+02 -0.32630593059E+02  0.64043189318E+02  0.74345083656E+02  0.00000000000E+00 0. -1.
         -2    1    1    2    0  503 -0.33472342694E+02  0.18975661232E+01  0.94260934966E+01  0.34825992035E+02  0.00000000000E+00 0.  1.
<mgrwt>
<rscale>  2 0.79291910E+02</rscale>
<asrwt>0</asrwt>
<pdfrwt beam="1">  1       21 0.31551538E-01 0.79291910E+02</pdfrwt>
<pdfrwt beam="2">  1       21 0.53228810E-02 0.79291910E+02</pdfrwt>
<totfact> 0.22781201E+06</totfact>
</mgrwt>
</event>
<event>
 5    1  0.1855960E+000  0.9835013E+02  0.7546771E-02  0.1283804E+00
         21   -1    0    0  501  502  0.00000000000E+00  0.00000000000E+00  0.77129328964E+02  0.77129328964E+02  0.00000000000E+00 0. -1.
         21   -1    0    0  502  503 -0.00000000000E+00 -0.00000000000E+00 -0.22371550312E+03  0.22371550312E+03  0.00000000000E+00 0.  1.
         24    1    1    2    0    0 -0.24223210353E+02  0.67889623977E+02 -0.13284840766E+02  0.10880931905E+03  0.80419002446E+02 0. -1.
          1    1    1    2  501    0  0.40415406181E+02 -0.53448699162E+02 -0.11098496338E+02  0.67921610110E+02  0.00000000000E+00 0. -1.
         -2    1    1    2    0  503 -0.16192195828E+02 -0.14440924815E+02 -0.12220283705E+03  0.12411390292E+03  0.00000000000E+00 0.  1.
<mgrwt>
<rscale>  2 0.98350129E+02</rscale>
<asrwt>0</asrwt>
<pdfrwt beam="1">  1       21 0.11866051E-01 0.98350129E+02</pdfrwt>
<pdfrwt beam="2">  1       21 0.34417770E-01 0.98350129E+02</pdfrwt>
<totfact> 0.49214577E+05</totfact>
</mgrwt>
</event>
<event>
 5    1  0.1855960E+000  0.8457679E+02  0.7546771E-02  0.1316543E+00
         21   -1    0    0  501  502  0.00000000000E+00  0.00000000000E+00  0.81925384751E+03  0.81925384751E+03  0.00000000000E+00 0. -1.
         21   -1    0    0  502  503 -0.00000000000E+00 -0.00000000000E+00 -0.27628319744E+02  0.27628319744E+02  0.00000000000E+00 0.  1.
         24    1    1    2    0    0 -0.18469391684E+02  0.51835180674E+02  0.30236726307E+03  0.31768094390E+03  0.80419002446E+02 0.  1.
          1    1    1    2  501    0 -0.14891640391E+02 -0.24081868160E+02  0.48474503302E+03  0.48557125571E+03  0.00000000000E+00 0. -1.
         -2    1    1    2    0  503  0.33361032075E+02 -0.27753312515E+02  0.45132316689E+01  0.43629967645E+02  0.00000000000E+00 0.  1.
<mgrwt>
<rscale>  2 0.84576795E+02</rscale>
<asrwt>0</asrwt>
<pdfrwt beam="1">  1       21 0.12603903E+00 0.84576795E+02</pdfrwt>
<pdfrwt beam="2">  1       21 0.42505114E-02 0.84576795E+02</pdfrwt>
<totfact> 0.17280402E+05</totfact>
</mgrwt>
</event>
<event>
 5    1  0.1855960E+000  0.8082957E+02  0.7546771E-02  0.1326714E+00
         21   -1    0    0  503  502  0.00000000000E+00  0.00000000000E+00  0.65752383334E+02  0.65752383334E+02  0.00000000000E+00 0.  1.
         21   -1    0    0  501  503 -0.00000000000E+00 -0.00000000000E+00 -0.11501579509E+04  0.11501579509E+04  0.00000000000E+00 0.  1.
         24    1    1    2    0    0  0.42629363633E+02  0.23232784887E+02 -0.83165879843E+03  0.83694718943E+03  0.80419002446E+02 0.  1.
          1    1    1    2  501    0 -0.42964949109E+02  0.14956778086E+01 -0.31189967942E+03  0.31484858889E+03  0.00000000000E+00 0. -1.
         -2    1    1    2    0  502  0.33558547621E+00 -0.24728462695E+02  0.59152910283E+02  0.64114555913E+02  0.00000000000E+00 0.  1.
<mgrwt>
<rscale>  2 0.80829573E+02</rscale>
<asrwt>0</asrwt>
<pdfrwt beam="1">  1       21 0.10115752E-01 0.80829573E+02</pdfrwt>
<pdfrwt beam="2">  1       21 0.17694736E+00 0.80829573E+02</pdfrwt>
<totfact> 0.16968995E+04</totfact>
</mgrwt>
</event>
<event>
 5    1  0.1855960E+000  0.6517450E+02  0.7546771E-02  0.1377316E+00
         21   -1    0    0  503  502  0.00000000000E+00  0.00000000000E+00  0.19623288053E+04  0.19623288053E+04  0.00000000000E+00 0. -1.
         21   -1    0    0  501  503 -0.00000000000E+00 -0.00000000000E+00 -0.44384402474E+01  0.44384402474E+01  0.00000000000E+00 0.  1.
         24    1    1    2    0    0  0.58093407982E+01  0.20965404900E+01  0.54964262821E+03  0.55552891790E+03  0.80419002446E+02 0.  0.
          1    1    1    2  501    0 -0.27456803160E+02  0.24754796803E+01  0.13439016352E+03  0.13718862959E+03  0.00000000000E+00 0. -1.
         -2    1    1    2    0  502  0.21647462362E+02 -0.45720201703E+01  0.12738575733E+04  0.12740496980E+04  0.00000000000E+00 0.  1.
<mgrwt>
<rscale>  2 0.65174495E+02</rscale>
<asrwt>0</asrwt>
<pdfrwt beam="1">  1       21 0.30189605E+00 0.65174495E+02</pdfrwt>
<pdfrwt beam="2">  1       21 0.68283853E-03 0.65174495E+02</pdfrwt>
<totfact> 0.26130415E+05</totfact>
</mgrwt>
</event>
<event>
 5    1  0.1855960E+000  0.8627248E+02  0.7546771E-02  0.1312138E+00
         21   -1    0    0  501  502  0.00000000000E+00  0.00000000000E+00  0.22948966723E+02  0.22948966723E+02  0.00000000000E+00 0.  1.
         21   -1    0    0  502  503 -0.00000000000E+00 -0.00000000000E+00 -0.44096340336E+03  0.44096340336E+03  0.00000000000E+00 0.  1.
         24    1    1    2    0    0  0.15298211816E+02  0.57846287588E+02 -0.28310053563E+03  0.30032208960E+03  0.80419002446E+02 0.  1.
          1    1    1    2  501    0  0.14022510722E+02 -0.20217886417E+02 -0.48821002676E+01  0.25084430253E+02  0.00000000000E+00 0. -1.
         -2    1    1    2    0  503 -0.29320722539E+02 -0.37628401171E+02 -0.13003180074E+03  0.13850585023E+03  0.00000000000E+00 0.  1.
<mgrwt>
<rscale>  2 0.86272477E+02</rscale>
<asrwt>0</asrwt>
<pdfrwt beam="1">  1       21 0.35306103E-02 0.86272477E+02</pdfrwt>
<pdfrwt beam="2">  1       21 0.67840522E-01 0.86272477E+02</pdfrwt>
<totfact> 0.95870817E+05</totfact>
</mgrwt>
</event>
<event>
 5    1  0.1855960E+000  0.7652468E+02  0.7546771E-02  0.1339214E+00
         21   -1    0    0  501  502  0.00000000000E+00  0.00000000000E+00  0.68643760437E+03  0.68643760437E+03  0.00000000000E+00 0.  1.
         21   -1    0    0  502  503 -0.00000000000E+00 -0.00000000000E+00 -0.40688773048E+02  0.40688773048E+02  0.00000000000E+00 0.  1.
         24    1    1    2    0    0  0.25292467429E+02 -0.24435818858E+02  0.55540464666E+03  0.56229739075E+03  0.80419002446E+02 0.  1.
          1    1    1    2  501    0 -0.11272671896E+02  0.41608189923E+02  0.12016928490E+03  0.12766742589E+03  0.00000000000E+00 0. -1.
         -2    1    1    2    0  503 -0.14019795533E+02 -0.17172371066E+02 -0.29825100244E+02  0.37161560777E+02  0.00000000000E+00 0.  1.
<mgrwt>
<rscale>  2 0.76524680E+02</rscale>
<asrwt>0</asrwt>
<pdfrwt beam="1">  1       21 0.10560578E+00 0.76524680E+02</pdfrwt>
<pdfrwt beam="2">  1       21 0.62598117E-02 0.76524680E+02</pdfrwt>
<totfact> 0.13880952E+05</totfact>
</mgrwt>
</event>
<event>
 5    1  0.1855960E+000  0.8368057E+02  0.7546771E-02  0.1318919E+00
         21   -1    0    0  503  502  0.00000000000E+00  0.00000000000E+00  0.50049555648E+02  0.50049555648E+02  0.00000000000E+00 0. -1.
         21   -1    0    0  501  503 -0.00000000000E+00 -0.00000000000E+00 -0.47024289180E+03  0.47024289180E+03  0.00000000000E+00 0. -1.
         24    1    1    2    0    0 -0.31248331672E+02  0.44710051519E+02 -0.13146463034E+03  0.16347969881E+03  0.80419002446E+02 0. -1.
          1    1    1    2  501    0  0.10066911301E+02 -0.47740787419E+02 -0.31734924928E+03  0.32107798353E+03  0.00000000000E+00 0. -1.
         -2    1    1    2    0  502  0.21181420371E+02  0.30307358996E+01  0.28620543467E+02  0.35734765109E+02  0.00000000000E+00 0.  1.
<mgrwt>
<rscale>  2 0.83680571E+02</rscale>
<asrwt>0</asrwt>
<pdfrwt beam="1">  1       21 0.76999313E-02 0.83680571E+02</pdfrwt>
<pdfrwt beam="2">  1       21 0.72345063E-01 0.83680571E+02</pdfrwt>
<totfact> 0.22775337E+05</totfact>
</mgrwt>
</event>
<event>
 5    1  0.1855960E+000  0.8185796E+02  0.7546771E-02  0.1323860E+00
         21   -1    0    0  503  502  0.00000000000E+00  0.00000000000E+00  0.87963763012E+02  0.87963763012E+02  0.00000000000E+00 0.  1.
         21   -1    0    0  501  503 -0.00000000000E+00 -0.00000000000E+00 -0.35022913333E+03  0.35022913333E+03  0.00000000000E+00 0.  1.
         24    1    1    2    0    0 -0.34462759765E+02 -0.41317478806E+02 -0.26501727970E+03  0.28212796806E+03  0.80419002446E+02 0.  1.
          1    1    1    2  501    0  0.29435805103E+01  0.34607981521E+02 -0.69088519470E+02  0.77327877080E+02  0.00000000000E+00 0. -1.
         -2    1    1    2    0  502  0.31519179255E+02  0.67094972855E+01  0.71840428853E+02  0.78737051205E+02  0.00000000000E+00 0.  1.
<mgrwt>
<rscale>  2 0.81857963E+02</rscale>
<asrwt>0</asrwt>
<pdfrwt beam="1">  1       21 0.13532887E-01 0.81857963E+02</pdfrwt>
<pdfrwt beam="2">  1       21 0.53881405E-01 0.81857963E+02</pdfrwt>
<totfact> 0.15985271E+05</totfact>
</mgrwt>
</event>
<event>
 5    1  0.1855960E+000  0.9620705E+02  0.7546771E-02  0.1288480E+00
         21   -1    0    0  503  502  0.00000000000E+00  0.00000000000E+00  0.21814066519E+03  0.21814066519E+03  0.00000000000E+00 0. -1.
         21   -1    0    0  501  503 -0.00000000000E+00 -0.00000000000E+00 -0.56342126828E+02  0.56342126828E+02  0.00000000000E+00 0.  1.
         24    1    1    2    0    0  0.44743576841E+02 -0.33327873969E+02  0.62913339405E+02  0.11635307938E+03  0.80419002446E+02 0.  0.
          1    1    1    2  501    0  0.21584515679E+02  0.37293530267E+01 -0.12451552975E+02  0.25196042598E+02  0.00000000000E+00 0. -1.
         -2    1    1    2    0  502 -0.66328092520E+02  0.29598520942E+02  0.11133675193E+03  0.13293367004E+03  0.00000000000E+00 0.  1.
<mgrwt>
<rscale>  2 0.96207052E+02</rscale>
<asrwt>0</asrwt>
<pdfrwt beam="1">  1       21 0.33560102E-01 0.96207052E+02</pdfrwt>
<pdfrwt beam="2">  1       21 0.86680196E-02 0.96207052E+02</pdfrwt>
<totfact> 0.89206892E+05</totfact>
</mgrwt>
</event>
<event>
 5    1  0.1855960E+000  0.1686416E+03  0.7546771E-02  0.1179272E+00
         21   -1    0    0  501  502  0.00000000000E+00  0.00000000000E+00  0.59301712218E+02  0.59301712218E+02  0.00000000000E+00 0. -1.
         21   -1    0    0  502  503 -0.00000000000E+00 -0.00000000000E+00 -0.17140180767E+04  0.17140180767E+04  0.00000000000E+00 0. -1.
         24    1    1    2    0    0  0.12392021521E+03 -0.29965000099E+02 -0.11071593816E+04  0.11173733634E+04  0.80419002446E+02 0. -1.
          1    1    1    2  501    0 -0.13937680197E+03  0.60795525426E+02 -0.54267229973E+02  0.16145253509E+03  0.00000000000E+00 0. -1.
         -2    1    1    2    0  503  0.15456586756E+02 -0.30830525327E+02 -0.49328975288E+03  0.49449389042E+03  0.00000000000E+00 0.  1.
<mgrwt>
<rscale>  2 0.16864161E+03</rscale>
<asrwt>0</asrwt>
<pdfrwt beam="1">  1       21 0.91233419E-02 0.16864161E+03</pdfrwt>
<pdfrwt beam="2">  1       21 0.26369505E+00 0.16864161E+03</pdfrwt>
<totfact> 0.54185089E+03</totfact>
</mgrwt>
</event>
<event>
 5    1  0.1855960E+000  0.7545763E+02  0.7546771E-02  0.1342460E+00
         21   -1    0    0  503  502  0.00000000000E+00  0.00000000000E+00  0.26083131094E+02  0.26083131094E+02  0.00000000000E+00 0.  1.
         21   -1    0    0  501  503 -0.00000000000E+00 -0.00000000000E+00 -0.42360761713E+03  0.42360761713E+03  0.00000000000E+00 0. -1.
         24    1    1    2    0    0  0.24987859266E+02  0.29660951872E+02 -0.26986339404E+03  0.28424924376E+03  0.80419002446E+02 0. -1.
          1    1    1    2  501    0  0.51067063617E+01 -0.31087667703E+02 -0.13136171471E+03  0.13508671890E+03  0.00000000000E+00 0. -1.
         -2    1    1    2    0  502 -0.30094565628E+02  0.14267158311E+01  0.37006227123E+01  0.30354785568E+02  0.00000000000E+00 0.  1.
<mgrwt>
<rscale>  2 0.75457633E+02</rscale>
<asrwt>0</asrwt>
<pdfrwt beam="1">  1       21 0.40127897E-02 0.75457633E+02</pdfrwt>
<pdfrwt beam="2">  1       21 0.65170397E-01 0.75457633E+02</pdfrwt>
<totfact> 0.84530169E+05</totfact>
</mgrwt>
</event>
<event>
 5    1  0.1855960E+000  0.1033108E+03  0.7546771E-02  0.1273484E+00
         21   -1    0    0  503  502  0.00000000000E+00  0.00000000000E+00  0.91385754020E+03  0.91385754020E+03  0.00000000000E+00 0. -1.
         21   -1    0    0  501  503 -0.00000000000E+00 -0.00000000000E+00 -0.14125796875E+02  0.14125796875E+02  0.00000000000E+00 0.  1.
         24    1    1    2    0    0  0.21706383205E+02 -0.59853315308E+02  0.26342775691E+03  0.28269238668E+03  0.80419002446E+02 0.  1.
          1    1    1    2  501    0 -0.49130510981E+01  0.78673823544E+02  0.40374854829E+03  0.41137160673E+03  0.00000000000E+00 0. -1.
         -2    1    1    2    0  502 -0.16793332107E+02 -0.18820508236E+02  0.23255543813E+03  0.23391934366E+03  0.00000000000E+00 0.  1.
<mgrwt>
<rscale>  2 0.10331080E+03</rscale>
<asrwt>0</asrwt>
<pdfrwt beam="1">  1       21 0.14059342E+00 0.10331080E+03</pdfrwt>
<pdfrwt beam="2">  1       21 0.21732002E-02 0.10331080E+03</pdfrwt>
<totfact> 0.39037743E+05</totfact>
</mgrwt>
</event>
<event>
 5    1  0.1855960E+000  0.6719690E+02  0.7546771E-02  0.1369893E+00
         21   -1    0    0  503  502  0.00000000000E+00  0.00000000000E+00  0.81921481353E+03  0.81921481353E+03  0.00000000000E+00 0.  1.
         21   -1    0    0  501  503 -0.00000000000E+00 -0.00000000000E+00 -0.63799788388E+01  0.63799788388E+01  0.00000000000E+00 0. -1.
         24    1    1    2    0    0  0.18666927058E+02  0.20921113778E+02  0.64041396484E+03  0.64605217241E+03  0.80419002446E+02 0.  1.
          1    1    1    2  501    0 -0.11176218252E+00 -0.28992324077E+02  0.84927058202E+02  0.89739470475E+02  0.00000000000E+00 0. -1.
         -2    1    1    2    0  502 -0.18555164875E+02  0.80712102998E+01  0.87493811649E+02  0.89803149478E+02  0.00000000000E+00 0.  1.
<mgrwt>
<rscale>  2 0.67196903E+02</rscale>
<asrwt>0</asrwt>
<pdfrwt beam="1">  1       21 0.12603297E+00 0.67196903E+02</pdfrwt>
<pdfrwt beam="2">  1       21 0.98153585E-03 0.67196903E+02</pdfrwt>
<totfact> 0.17945762E+06</totfact>
</mgrwt>
</event>
<event>
 5    1  0.1855960E+000  0.1580968E+03  0.7546771E-02  0.1190862E+00
         21   -1    0    0  503  502  0.00000000000E+00  0.00000000000E+00  0.49326878431E+03  0.49326878431E+03  0.00000000000E+00 0.  1.
         21   -1    0    0  501  503 -0.00000000000E+00 -0.00000000000E+00 -0.69857911027E+02  0.69857911027E+02  0.00000000000E+00 0.  1.
         24    1    1    2    0    0 -0.11557978463E+03 -0.71421780934E+02  0.35739534831E+03  0.39071525227E+03  0.80419002446E+02 0.  1.
          1    1    1    2  501    0  0.56220162601E+02 -0.10451261380E+02  0.14864940862E+02  0.59083855782E+02  0.00000000000E+00 0. -1.
         -2    1    1    2    0  502  0.59359622030E+02  0.81873042314E+02  0.51150584112E+02  0.11332758729E+03  0.00000000000E+00 0.  1.
<mgrwt>
<rscale>  2 0.15809679E+03</rscale>
<asrwt>0</asrwt>
<pdfrwt beam="1">  1       21 0.75887503E-01 0.15809679E+03</pdfrwt>
<pdfrwt beam="2">  1       21 0.10747371E-01 0.15809679E+03</pdfrwt>
<totfact> 0.11211629E+05</totfact>
</mgrwt>
</event>
<event>
 5    1  0.1855960E+000  0.8088055E+02  0.7546771E-02  0.1326571E+00
         21   -1    0    0  501  502  0.00000000000E+00  0.00000000000E+00  0.13128621981E+03  0.13128621981E+03  0.00000000000E+00 0. -1.
         21   -1    0    0  502  503 -0.00000000000E+00 -0.00000000000E+00 -0.68903818022E+03  0.68903818022E+03  0.00000000000E+00 0.  1.
         24    1    1    2    0    0 -0.25814052051E+02  0.48123534034E+02 -0.17885396602E+03  0.20356374168E+03  0.80419002446E+02 0. -1.
          1    1    1    2  501    0  0.29956710887E+02 -0.19756524885E+02  0.11580000736E+03  0.12123269570E+03  0.00000000000E+00 0. -1.
         -2    1    1    2    0  503 -0.41426588354E+01 -0.28367009149E+02 -0.49469800176E+03  0.49552796265E+03  0.00000000000E+00 0.  1.
<mgrwt>
<rscale>  2 0.80880550E+02</rscale>
<asrwt>0</asrwt>
<pdfrwt beam="1">  1       21 0.20197880E-01 0.80880550E+02</pdfrwt>
<pdfrwt beam="2">  1       21 0.10600587E+00 0.80880550E+02</pdfrwt>
<totfact> 0.17774241E+04</totfact>
</mgrwt>
</event>
<event>
 5    1  0.1855960E+000  0.1153710E+03  0.7546771E-02  0.1250935E+00
         21   -1    0    0  503  502  0.00000000000E+00  0.00000000000E+00  0.34578638129E+03  0.34578638129E+03  0.00000000000E+00 0.  1.
         21   -1    0    0  501  503 -0.00000000000E+00 -0.00000000000E+00 -0.59573322567E+02  0.59573322567E+02  0.00000000000E+00 0.  1.
         24    1    1    2    0    0 -0.97727907157E+02 -0.18694282932E+01  0.26075896704E+03  0.28985633242E+03  0.80419002446E+02 0.  1.
          1    1    1    2  501    0  0.53986814629E+02 -0.16897041211E+02 -0.82692022052E+01  0.57170498166E+02  0.00000000000E+00 0. -1.
         -2    1    1    2    0  502  0.43741092528E+02  0.18766469505E+02  0.33723293894E+02  0.58332873273E+02  0.00000000000E+00 0.  1.
<mgrwt>
<rscale>  2 0.11537104E+03</rscale>
<asrwt>0</asrwt>
<pdfrwt beam="1">  1       21 0.53197904E-01 0.11537104E+03</pdfrwt>
<pdfrwt beam="2">  1       21 0.91651267E-02 0.11537104E+03</pdfrwt>
<totfact> 0.32161058E+05</totfact>
</mgrwt>
</event>
<event>
 5    1  0.1855960E+000  0.1178152E+03  0.7546771E-02  0.1246745E+00
         21   -1    0    0  501  502  0.00000000000E+00  0.00000000000E+00  0.13717450944E+03  0.13717450944E+03  0.00000000000E+00 0. -1.
         21   -1    0    0  502  503 -0.00000000000E+00 -0.00000000000E+00 -0.49944685719E+03  0.49944685719E+03  0.00000000000E+00 0.  1.
         24    1    1    2    0    0  0.97239891540E+02 -0.36952050237E+02  0.83242318510E+01  0.13174809036E+03  0.80419002446E+02 0. -1.
          1    1    1    2  501    0 -0.64297010671E+02  0.21874000996E+02  0.48980015201E+02  0.83735412998E+02  0.00000000000E+00 0. -1.
         -2    1    1    2    0  503 -0.32942880869E+02  0.15078049241E+02 -0.41957659481E+03  0.42113786327E+03  0.00000000000E+00 0.  1.
<mgrwt>
<rscale>  2 0.11781519E+03</rscale>
<asrwt>0</asrwt>
<pdfrwt beam="1">  1       21 0.21103771E-01 0.11781519E+03</pdfrwt>
<pdfrwt beam="2">  1       21 0.76837979E-01 0.11781519E+03</pdfrwt>
<totfact> 0.32872077E+04</totfact>
</mgrwt>
</event>
<event>
 5    1  0.1855960E+000  0.7322163E+02  0.7546771E-02  0.1349468E+00
         21   -1    0    0  503  502  0.00000000000E+00  0.00000000000E+00  0.12944178549E+04  0.12944178549E+04  0.00000000000E+00 0.  1.
         21   -1    0    0  501  503 -0.00000000000E+00 -0.00000000000E+00 -0.45713258656E+01  0.45713258656E+01  0.00000000000E+00 0. -1.
         24    1    1    2    0    0  0.95892980761E+01  0.40206327084E+02  0.69205953533E+03  0.69794134408E+03  0.80419002446E+02 0.  0.
          1    1    1    2  501    0 -0.24291263951E+02 -0.25927738229E+02  0.23378255030E+03  0.23646689819E+03  0.00000000000E+00 0. -1.
         -2    1    1    2    0  502  0.14701965875E+02 -0.14278588854E+02  0.36400444340E+03  0.36458093850E+03  0.00000000000E+00 0.  1.
<mgrwt>
<rscale>  2 0.73221632E+02</rscale>
<asrwt>0</asrwt>
<pdfrwt beam="1">  1       21 0.19914092E+00 0.73221632E+02</pdfrwt>
<pdfrwt beam="2">  1       21 0.70328193E-03 0.73221632E+02</pdfrwt>
<totfact> 0.92476575E+05</totfact>
</mgrwt>
</event>
<event>
 5    1  0.1855960E+000  0.9327268E+02  0.7546771E-02  0.1295115E+00
         21   -1    0    0  501  502  0.00000000000E+00  0.00000000000E+00  0.78361173400E+02  0.78361173400E+02  0.00000000000E+00 0. -1.
         21   -1    0    0  502  503 -0.00000000000E+00 -0.00000000000E+00 -0.21677070194E+03  0.21677070194E+03  0.00000000000E+00 0.  1.
         24    1    1    2    0    0 -0.54674271019E+02  0.49452048218E+02 -0.72153671483E+02  0.13079812402E+03  0.80419002446E+02 0.  1.
          1    1    1    2  501    0  0.88528142369E+01 -0.22757739126E+02  0.39263961771E+02  0.46237924953E+02  0.00000000000E+00 0. -1.
         -2    1    1    2    0  503  0.45821456782E+02 -0.26694309092E+02 -0.10551981883E+03  0.11809582637E+03  0.00000000000E+00 0.  1.
<mgrwt>
<rscale>  2 0.93272684E+02</rscale>
<asrwt>0</asrwt>
<pdfrwt beam="1">  1       21 0.12055565E-01 0.93272684E+02</pdfrwt>
<pdfrwt beam="2">  1       21 0.33349339E-01 0.93272684E+02</pdfrwt>
<totfact> 0.50893694E+05</totfact>
</mgrwt>
</event>
<event>
 5    1  0.1855960E+000  0.8014410E+02  0.7546771E-02  0.1328643E+00
         21   -1    0    0  501  502  0.00000000000E+00  0.00000000000E+00  0.32967759035E+03  0.32967759035E+03  0.00000000000E+00 0. -1.
         21   -1    0    0  502  503 -0.00000000000E+00 -0.00000000000E+00 -0.90152778358E+02  0.90152778358E+02  0.00000000000E+00 0. -1.
         24    1    1    2    0    0 -0.39230935118E+02 -0.31952528340E+02  0.43938449323E+02  0.10467967148E+03  0.80419002446E+02 0. -1.
          1    1    1    2  501    0  0.26346694177E+02 -0.43968905848E+01  0.24835738990E+03  0.24978965963E+03  0.00000000000E+00 0. -1.
         -2    1    1    2    0  503  0.12884240941E+02  0.36349418925E+02 -0.52771027231E+02  0.65361037597E+02  0.00000000000E+00 0.  1.
<mgrwt>
<rscale>  2 0.80144103E+02</rscale>
<asrwt>0</asrwt>
<pdfrwt beam="1">  1       21 0.50719629E-01 0.80144103E+02</pdfrwt>
<pdfrwt beam="2">  1       21 0.13869658E-01 0.80144103E+02</pdfrwt>
<totfact> 0.17335944E+05</totfact>
</mgrwt>
</event>
<event>
 5    1  0.1855960E+000  0.7314944E+02  0.7546771E-02  0.1349699E+00
         21   -1    0    0  501  502  0.00000000000E+00  0.00000000000E+00  0.60017280692E+01  0.60017280692E+01  0.00000000000E+00 0.  1.
         21   -1    0    0  502  503 -0.00000000000E+00 -0.00000000000E+00 -0.91788195558E+03  0.91788195558E+03  0.00000000000E+00 0. -1.
         24    1    1    2    0    0  0.32865305996E+02 -0.76679048485E+01 -0.46773407301E+03  0.47579544356E+03  0.80419002446E+02 0.  0.
          1    1    1    2  501    0 -0.98407715378E+01 -0.20479284215E+02 -0.15237557338E+03  0.15406023896E+03  0.00000000000E+00 0. -1.
         -2    1    1    2    0  503 -0.23024534458E+02  0.28147189063E+02 -0.29177058112E+03  0.29402800113E+03  0.00000000000E+00 0.  1.
<mgrwt>
<rscale>  2 0.73149439E+02</rscale>
<asrwt>0</asrwt>
<pdfrwt beam="1">  1       21 0.92334250E-03 0.73149439E+02</pdfrwt>
<pdfrwt beam="2">  1       21 0.14121265E+00 0.73149439E+02</pdfrwt>
<totfact> 0.14969359E+06</totfact>
</mgrwt>
</event>
<event>
 5    1  0.1855960E+000  0.6823717E+02  0.7546771E-02  0.1366192E+00
         21   -1    0    0  501  502  0.00000000000E+00  0.00000000000E+00  0.15142011072E+02  0.15142011072E+02  0.00000000000E+00 0. -1.
         21   -1    0    0  502  503 -0.00000000000E+00 -0.00000000000E+00 -0.36931478849E+03  0.36931478849E+03  0.00000000000E+00 0. -1.
         24    1    1    2    0    0 -0.38935461846E+01  0.16609296252E+02 -0.22030960181E+03  0.23514796412E+03  0.80419002446E+02 0.  0.
          1    1    1    2  501    0 -0.17950992398E+02 -0.25075024250E+02 -0.30682248423E+02  0.43501670514E+02  0.00000000000E+00 0. -1.
         -2    1    1    2    0  503  0.21844538583E+02  0.84657279972E+01 -0.10318092718E+03  0.10580716493E+03  0.00000000000E+00 0.  1.
<mgrwt>
<rscale>  2 0.68237174E+02</rscale>
<asrwt>0</asrwt>
<pdfrwt beam="1">  1       21 0.23295405E-02 0.68237174E+02</pdfrwt>
<pdfrwt beam="2">  1       21 0.56817651E-01 0.68237174E+02</pdfrwt>
<totfact> 0.27038893E+06</totfact>
</mgrwt>
</event>
<event>
 5    1  0.1855960E+000  0.1014741E+03  0.7546771E-02  0.1277226E+00
         21   -1    0    0  503  502  0.00000000000E+00  0.00000000000E+00  0.73603128319E+02  0.73603128319E+02  0.00000000000E+00 0.  1.
         21   -1    0    0  501  503 -0.00000000000E+00 -0.00000000000E+00 -0.34028252968E+03  0.34028252968E+03  0.00000000000E+00 0.  1.
         24    1    1    2    0    0 -0.67463343963E+02 -0.17717758061E+02 -0.24868147014E+03  0.27050861589E+03  0.80419002446E+02 0.  1.
          1    1    1    2  501    0  0.21454222215E+02  0.39987137882E+02 -0.61380548385E+02  0.76333652912E+02  0.00000000000E+00 0. -1.
         -2    1    1    2    0  502  0.46009121749E+02 -0.22269379821E+02  0.43382617165E+02  0.67043389188E+02  0.00000000000E+00 0.  1.
<mgrwt>
<rscale>  2 0.10147407E+03</rscale>
<asrwt>0</asrwt>
<pdfrwt beam="1">  1       21 0.11323558E-01 0.10147407E+03</pdfrwt>
<pdfrwt beam="2">  1       21 0.52351159E-01 0.10147407E+03</pdfrwt>
<totfact> 0.23063508E+05</totfact>
</mgrwt>
</event>
<event>
 5    1  0.1855960E+000  0.6570332E+02  0.7546771E-02  0.1375345E+00
         21   -1    0    0  503  502  0.00000000000E+00  0.00000000000E+00  0.76282767419E+01  0.76282767419E+01  0.00000000000E+00 0. -1.
         21   -1    0    0  501  503 -0.00000000000E+00 -0.00000000000E+00 -0.15500136062E+04  0.15500136062E+04  0.00000000000E+00 0. -1.
         24    1    1    2    0    0 -0.72552167679E+01 -0.16182387527E+02 -0.27671592951E+03  0.28870993996E+03  0.80419002446E+02 0. -1.
          1    1    1    2  501    0  0.17364033944E+02 -0.10658303422E+02 -0.11336455071E+04  0.11338285782E+04  0.00000000000E+00 0. -1.
         -2    1    1    2    0  502 -0.10108817176E+02  0.26840690948E+02 -0.13202389287E+03  0.13510336474E+03  0.00000000000E+00 0.  1.
<mgrwt>
<rscale>  2 0.65703321E+02</rscale>
<asrwt>0</asrwt>
<pdfrwt beam="1">  1       21 0.11735810E-02 0.65703321E+02</pdfrwt>
<pdfrwt beam="2">  1       21 0.23846365E+00 0.65703321E+02</pdfrwt>
<totfact> 0.24895431E+05</totfact>
</mgrwt>
</event>
<event>
 5    1  0.1855960E+000  0.1137509E+03  0.7546771E-02  0.1253777E+00
         21   -1    0    0  503  502  0.00000000000E+00  0.00000000000E+00  0.35866902313E+02  0.35866902313E+02  0.00000000000E+00 0. -1.
         21   -1    0    0  501  503 -0.00000000000E+00 -0.00000000000E+00 -0.10531906333E+04  0.10531906333E+04  0.00000000000E+00 0. -1.
         24    1    1    2    0    0  0.57019285244E+02 -0.80805178860E+02 -0.13967608087E+03  0.18909600562E+03  0.80419002446E+02 0. -1.
          1    1    1    2  501    0 -0.28878696416E+02  0.28134661119E+02 -0.80460628889E+03  0.80561580073E+03  0.00000000000E+00 0. -1.
         -2    1    1    2    0  502 -0.28140588828E+02  0.52670517741E+02 -0.73041361184E+02  0.94345729222E+02  0.00000000000E+00 0.  1.
<mgrwt>
<rscale>  2 0.11375091E+03</rscale>
<asrwt>0</asrwt>
<pdfrwt beam="1">  1       21 0.55179844E-02 0.11375091E+03</pdfrwt>
<pdfrwt beam="2">  1       21 0.16202934E+00 0.11375091E+03</pdfrwt>
<totfact> 0.58162881E+04</totfact>
</mgrwt>
</event>
<event>
 5    1  0.1855960E+000  0.1111367E+03  0.7546771E-02  0.1258479E+00
         21   -1    0    0  501  502  0.00000000000E+00  0.00000000000E+00  0.17121250106E+04  0.17121250106E+04  0.00000000000E+00 0. -1.
         21   -1    0    0  502  503 -0.00000000000E+00 -0.00000000000E+00 -0.21760728597E+02  0.21760728597E+02  0.00000000000E+00 0.  1.
         24    1    1    2    0    0 -0.39166707399E+02 -0.59373014354E+02  0.88462805432E+03  0.89111906962E+03  0.80419002446E+02 0. -1.
          1    1    1    2  501    0  0.68480526708E+02  0.35665042369E+02  0.80106490966E+03  0.80477734019E+03  0.00000000000E+00 0. -1.
         -2    1    1    2    0  503 -0.29313819309E+02  0.23707971986E+02  0.46713180643E+01  0.37989329431E+02  0.00000000000E+00 0.  1.
<mgrwt>
<rscale>  2 0.11113668E+03</rscale>
<asrwt>0</asrwt>
<pdfrwt beam="1">  1       21 0.26340374E+00 0.11113668E+03</pdfrwt>
<pdfrwt beam="2">  1       21 0.33478058E-02 0.11113668E+03</pdfrwt>
<totfact> 0.31863047E+04</totfact>
</mgrwt>
</event>
<event>
 5    1  0.1855960E+000  0.8171720E+02  0.7546771E-02  0.1324248E+00
         21   -1    0    0  503  502  0.00000000000E+00  0.00000000000E+00  0.22617461157E+03  0.22617461157E+03  0.00000000000E+00 0.  1.
         21   -1    0    0  501  503 -0.00000000000E+00 -0.00000000000E+00 -0.40294543081E+02  0.40294543081E+02  0.00000000000E+00 0. -1.
         24    1    1    2    0    0  0.27215019839E+01  0.13661595899E+02  0.91957010302E+02  0.12295264728E+03  0.80419002446E+02 0.  1.
          1    1    1    2  501    0  0.38422504056E+02  0.13354417924E+00 -0.17493078803E+01  0.38462536708E+02  0.00000000000E+00 0. -1.
         -2    1    1    2    0  502 -0.41144006040E+02 -0.13795140078E+02  0.95672366066E+02  0.10505397066E+03  0.00000000000E+00 0.  1.
<mgrwt>
<rscale>  2 0.81717197E+02</rscale>
<asrwt>0</asrwt>
<pdfrwt beam="1">  1       21 0.34796093E-01 0.81717197E+02</pdfrwt>
<pdfrwt beam="2">  1       21 0.61991606E-02 0.81717197E+02</pdfrwt>
<totfact> 0.14643424E+06</totfact>
</mgrwt>
</event>
<event>
 5    1  0.1855960E+000  0.9984624E+02  0.7546771E-02  0.1280620E+00
         21   -1    0    0  501  502  0.00000000000E+00  0.00000000000E+00  0.38612145249E+02  0.38612145249E+02  0.00000000000E+00 0.  1.
         21   -1    0    0  502  503 -0.00000000000E+00 -0.00000000000E+00 -0.10406663540E+04  0.10406663540E+04  0.00000000000E+00 0.  1.
         24    1    1    2    0    0 -0.37131951830E+02  0.83794431973E+01 -0.58622686679E+02  0.10654967040E+03  0.80419002446E+02 0.  1.
          1    1    1    2  501    0 -0.22013504857E+02  0.32189941469E+02 -0.15396716789E+02  0.41926669505E+02  0.00000000000E+00 0. -1.
         -2    1    1    2    0  503  0.59145456687E+02 -0.40569384666E+02 -0.92803480523E+03  0.93080215929E+03  0.00000000000E+00 0.  1.
<mgrwt>
<rscale>  2 0.99846235E+02</rscale>
<asrwt>0</asrwt>
<pdfrwt beam="1">  1       21 0.59403291E-02 0.99846235E+02</pdfrwt>
<pdfrwt beam="2">  1       21 0.16010254E+00 0.99846235E+02</pdfrwt>
<totfact> 0.53622559E+04</totfact>
</mgrwt>
</event>
<event>
 5    1  0.1855960E+000  0.8941267E+02  0.7546771E-02  0.1304280E+00
         21   -1    0    0  503  502  0.00000000000E+00  0.00000000000E+00  0.21565886992E+02  0.21565886992E+02  0.00000000000E+00 0. -1.
         21   -1    0    0  501  503 -0.00000000000E+00 -0.00000000000E+00 -0.52132226603E+03  0.52132226603E+03  0.00000000000E+00 0. -1.
         24    1    1    2    0    0  0.68057126162E+02  0.95014659087E+01 -0.31826769894E+03  0.33538573973E+03  0.80419002446E+02 0. -1.
          1    1    1    2  501    0 -0.27767639369E+02  0.83252806343E+01 -0.15140189780E+03  0.15415215455E+03  0.00000000000E+00 0. -1.
         -2    1    1    2    0  502 -0.40289486793E+02 -0.17826746543E+02 -0.30086782297E+02  0.53350258737E+02  0.00000000000E+00 0.  1.
<mgrwt>
<rscale>  2 0.89412671E+02</rscale>
<asrwt>0</asrwt>
<pdfrwt beam="1">  1       21 0.33178293E-02 0.89412671E+02</pdfrwt>
<pdfrwt beam="2">  1       21 0.80203414E-01 0.89412671E+02</pdfrwt>
<totfact> 0.73753807E+05</totfact>
</mgrwt>
</event>
<event>
 5    1  0.1855960E+000  0.1006527E+03  0.7546771E-02  0.1278929E+00
         21   -1    0    0  503  502  0.00000000000E+00  0.00000000000E+00  0.37073310201E+02  0.37073310201E+02  0.00000000000E+00 0.  1.
         21   -1    0    0  501  503 -0.00000000000E+00 -0.00000000000E+00 -0.34523260243E+03  0.34523260243E+03  0.00000000000E+00 0. -1.
         24    1    1    2    0    0 -0.76031953893E+01  0.12097470421E+02 -0.97955589133E+02  0.12754085921E+03  0.80419002446E+02 0.  1.
          1    1    1    2  501    0  0.10582730982E+01  0.53596876903E+02 -0.16815202590E+03  0.17649036509E+03  0.00000000000E+00 0. -1.
         -2    1    1    2    0  502  0.65449222911E+01 -0.65694347324E+02 -0.42051677191E+02  0.78274688327E+02  0.00000000000E+00 0.  1.
<mgrwt>
<rscale>  2 0.10065268E+03</rscale>
<asrwt>0</asrwt>
<pdfrwt beam="1">  1       21 0.57035866E-02 0.10065268E+03</pdfrwt>
<pdfrwt beam="2">  1       21 0.53112704E-01 0.10065268E+03</pdfrwt>
<totfact> 0.72568770E+05</totfact>
</mgrwt>
</event>
<event>
 5    1  0.1855960E+000  0.1107205E+03  0.7546771E-02  0.1259241E+00
         21   -1    0    0  503  502  0.00000000000E+00  0.00000000000E+00  0.29035206419E+03  0.29035206419E+03  0.00000000000E+00 0. -1.
         21   -1    0    0  501  503 -0.00000000000E+00 -0.00000000000E+00 -0.97594042272E+02  0.97594042272E+02  0.00000000000E+00 0. -1.
         24    1    1    2    0    0  0.28854223394E+02  0.11826175740E+02  0.76309453082E+02  0.11516411431E+03  0.80419002446E+02 0. -1.
          1    1    1    2  501    0 -0.46289738710E+02  0.51651686684E+02 -0.55392503952E+02  0.88763540608E+02  0.00000000000E+00 0. -1.
         -2    1    1    2    0  502  0.17435515316E+02 -0.63477862424E+02  0.17184107278E+03  0.18401845154E+03  0.00000000000E+00 0.  1.
<mgrwt>
<rscale>  2 0.11072047E+03</rscale>
<asrwt>0</asrwt>
<pdfrwt beam="1">  1       21 0.44669548E-01 0.11072047E+03</pdfrwt>
<pdfrwt beam="2">  1       21 0.15014468E-01 0.11072047E+03</pdfrwt>
<totfact> 0.19283780E+05</totfact>
</mgrwt>
</event>
<event>
 5    1  0.1855960E+000  0.1874064E+03  0.7546771E-02  0.1160822E+00
         21   -1    0    0  501  502  0.00000000000E+00  0.00000000000E+00  0.28046820673E+03  0.28046820673E+03  0.00000000000E+00 0.  1.
         21   -1    0    0  502  503 -0.00000000000E+00 -0.00000000000E+00 -0.14850835631E+03  0.14850835631E+03  0.00000000000E+00 0.  1.
         24    1    1    2    0    0  0.93513956967E+02 -0.12131524460E+03  0.97609259782E+02  0.19863794268E+03  0.80419002446E+02 0.  1.
          1    1    1    2  501    0 -0.81299590162E+02  0.14367740360E+01  0.67150071093E+02  0.10545529730E+03  0.00000000000E+00 0. -1.
         -2    1    1    2    0  503 -0.12214366805E+02  0.11987847057E+03 -0.32799480462E+02  0.12488332307E+03  0.00000000000E+00 0.  1.
<mgrwt>
<rscale>  2 0.18740638E+03</rscale>
<asrwt>0</asrwt>
<pdfrwt beam="1">  1       21 0.43148955E-01 0.18740638E+03</pdfrwt>
<pdfrwt beam="2">  1       21 0.22847440E-01 0.18740638E+03</pdfrwt>
<totfact> 0.93007464E+04</totfact>
</mgrwt>
</event>
<event>
 5    1  0.2293235E+000  0.1066044E+03  0.7546771E-02  0.1266990E+00
         21   -1    0    0  503  502  0.00000000000E+00  0.00000000000E+00  0.61963132423E+03  0.61963132423E+03  0.00000000000E+00 0.  1.
         21   -1    0    0  501  503 -0.00000000000E+00 -0.00000000000E+00 -0.11101561648E+03  0.11101561648E+03  0.00000000000E+00 0. -1.
         24    1    1    2    0    0  0.44532706969E+01 -0.33003830529E+02  0.11632069112E+03  0.14528180748E+03  0.80419002446E+02 0.  0.
          1    1    1    2  501    0 -0.62891029421E+02  0.22486564326E+02 -0.82909439925E+02  0.10646549857E+03  0.00000000000E+00 0. -1.
         -2    1    1    2    0  502  0.58437758724E+02  0.10517266202E+02  0.47520445656E+03  0.47889963465E+03  0.00000000000E+00 0.  1.
<mgrwt>
<rscale>  2 0.10660438E+03</rscale>
<asrwt>0</asrwt>
<pdfrwt beam="1">  1       21 0.95327894E-01 0.10660438E+03</pdfrwt>
<pdfrwt beam="2">  1       21 0.17079326E-01 0.10660438E+03</pdfrwt>
<totfact> 0.30052351E+04</totfact>
</mgrwt>
</event>
<event>
 5    1  0.1855960E+000  0.7118006E+02  0.7546771E-02  0.1356126E+00
         21   -1    0    0  501  502  0.00000000000E+00  0.00000000000E+00  0.15334230823E+03  0.15334230823E+03  0.00000000000E+00 0. -1.
         21   -1    0    0  502  503 -0.00000000000E+00 -0.00000000000E+00 -0.77580033753E+02  0.77580033753E+02  0.00000000000E+00 0. -1.
         24    1    1    2    0    0  0.15652499821E+02 -0.33436791183E+02 -0.39845312437E+02  0.97045786270E+02  0.80419002446E+02 0. -1.
          1    1    1    2  501    0 -0.25366647218E+02  0.79296132860E+01  0.97656019460E+02  0.10120792308E+03  0.00000000000E+00 0. -1.
         -2    1    1    2    0  503  0.97141473973E+01  0.25507177897E+02  0.17951567458E+02  0.32668632633E+02  0.00000000000E+00 0.  1.
<mgrwt>
<rscale>  2 0.71180059E+02</rscale>
<asrwt>0</asrwt>
<pdfrwt beam="1">  1       21 0.23591124E-01 0.71180059E+02</pdfrwt>
<pdfrwt beam="2">  1       21 0.11935390E-01 0.71180059E+02</pdfrwt>
<totfact> 0.99276044E+05</totfact>
</mgrwt>
</event>
<event>
 5    1  0.1855960E+000  0.8831655E+02  0.7546771E-02  0.1306980E+00
         21   -1    0    0  501  502  0.00000000000E+00  0.00000000000E+00  0.11463909246E+02  0.11463909246E+02  0.00000000000E+00 0.  1.
         21   -1    0    0  502  503 -0.00000000000E+00 -0.00000000000E+00 -0.18033363405E+04  0.18033363405E+04  0.00000000000E+00 0.  1.
         24    1    1    2    0    0  0.14251465598E+02 -0.47817870947E+02 -0.40638484567E+03  0.41725952572E+03  0.80419002446E+02 0.  0.
          1    1    1    2  501    0  0.22077618781E+02  0.17449231256E+00 -0.17318301165E+02  0.28060207659E+02  0.00000000000E+00 0. -1.
         -2    1    1    2    0  503 -0.36329084379E+02  0.47643378635E+02 -0.13681692844E+04  0.13694805164E+04  0.00000000000E+00 0.  1.
<mgrwt>
<rscale>  2 0.88316550E+02</rscale>
<asrwt>0</asrwt>
<pdfrwt beam="1">  1       21 0.17636783E-02 0.88316550E+02</pdfrwt>
<pdfrwt beam="2">  1       21 0.27743636E+00 0.88316550E+02</pdfrwt>
<totfact> 0.77514978E+04</totfact>
</mgrwt>
</event>
<event>
 5    1  0.1855960E+000  0.8051301E+02  0.7546771E-02  0.1327602E+00
         21   -1    0    0  501  502  0.00000000000E+00  0.00000000000E+00  0.93734049828E+03  0.93734049828E+03  0.00000000000E+00 0. -1.
         21   -1    0    0  502  503 -0.00000000000E+00 -0.00000000000E+00 -0.59236440259E+02  0.59236440259E+02  0.00000000000E+00 0. -1.
         24    1    1    2    0    0 -0.38182267105E+02 -0.46497224264E+02  0.46766230714E+02  0.11078886982E+03  0.80419002446E+02 0. -1.
          1    1    1    2  501    0  0.25722217343E+02  0.25790892926E+02  0.85273370402E+03  0.85351131954E+03  0.00000000000E+00 0. -1.
         -2    1    1    2    0  503  0.12460049762E+02  0.20706331339E+02 -0.21395876708E+02  0.32276749181E+02  0.00000000000E+00 0.  1.
<mgrwt>
<rscale>  2 0.80513010E+02</rscale>
<asrwt>0</asrwt>
<pdfrwt beam="1">  1       21 0.14420622E+00 0.80513010E+02</pdfrwt>
<pdfrwt beam="2">  1       21 0.91132992E-02 0.80513010E+02</pdfrwt>
<totfact> 0.34520167E+04</totfact>
</mgrwt>
</event>
<event>
 5    1  0.1855960E+000  0.9128814E+02  0.7546771E-02  0.1299762E+00
         21   -1    0    0  501  502  0.00000000000E+00  0.00000000000E+00  0.69176626147E+02  0.69176626147E+02  0.00000000000E+00 0. -1.
         21   -1    0    0  502  503 -0.00000000000E+00 -0.00000000000E+00 -0.63772527949E+03  0.63772527949E+03  0.00000000000E+00 0.  1.
         24    1    1    2    0    0  0.36642138972E+02 -0.37626405021E+02 -0.35304080595E+02  0.10233272577E+03  0.80419002446E+02 0.  1.
          1    1    1    2  501    0 -0.56872859883E+02  0.33070396452E+02  0.49503938106E+01  0.65974841505E+02  0.00000000000E+00 0. -1.
         -2    1    1    2    0  503  0.20230720911E+02  0.45560085695E+01 -0.53819496656E+03  0.53859433836E+03  0.00000000000E+00 0.  1.
<mgrwt>
<rscale>  2 0.91288137E+02</rscale>
<asrwt>0</asrwt>
<pdfrwt beam="1">  1       21 0.10642558E-01 0.91288137E+02</pdfrwt>
<pdfrwt beam="2">  1       21 0.98111581E-01 0.91288137E+02</pdfrwt>
<totfact> 0.65910746E+04</totfact>
</mgrwt>
</event>
<event>
 5    1  0.1855960E+000  0.9975958E+02  0.7546771E-02  0.1280802E+00
         21   -1    0    0  503  502  0.00000000000E+00  0.00000000000E+00  0.37376761386E+03  0.37376761386E+03  0.00000000000E+00 0.  1.
         21   -1    0    0  501  503 -0.00000000000E+00 -0.00000000000E+00 -0.44287173828E+02  0.44287173828E+02  0.00000000000E+00 0.  1.
         24    1    1    2    0    0 -0.46021733011E+02 -0.59431525495E+02  0.68142991106E+02  0.12946346714E+03  0.80419002446E+02 0.  1.
          1    1    1    2  501    0  0.35430540762E+02  0.72112337603E+01  0.19753446116E+02  0.41201016304E+02  0.00000000000E+00 0. -1.
         -2    1    1    2    0  502  0.10591192249E+02  0.52220291734E+02  0.24158400281E+03  0.24739030425E+03  0.00000000000E+00 0.  1.
<mgrwt>
<rscale>  2 0.99759584E+02</rscale>
<asrwt>0</asrwt>
<pdfrwt beam="1">  1       21 0.57502708E-01 0.99759584E+02</pdfrwt>
<pdfrwt beam="2">  1       21 0.68134116E-02 0.99759584E+02</pdfrwt>
<totfact> 0.45567858E+05</totfact>
</mgrwt>
</event>
<event>
 5    1  0.1855960E+000  0.9367388E+02  0.7546771E-02  0.1294191E+00
         21   -1    0    0  503  502  0.00000000000E+00  0.00000000000E+00  0.15374810694E+02  0.15374810694E+02  0.00000000000E+00 0.  1.
         21   -1    0    0  501  503 -0.00000000000E+00 -0.00000000000E+00 -0.84651519317E+03  0.84651519317E+03  0.00000000000E+00 0. -1.
         24    1    1    2    0    0  0.70641725522E+01 -0.35939964869E+02 -0.23858723111E+03  0.25442615119E+03  0.80419002446E+02 0. -1.
          1    1    1    2  501    0 -0.49641584871E+02  0.19903417368E+02 -0.51330686481E+03  0.51608562316E+03  0.00000000000E+00 0. -1.
         -2    1    1    2    0  502  0.42577412319E+02  0.16036547501E+02 -0.79246286568E+02  0.91378229520E+02  0.00000000000E+00 0.  1.
<mgrwt>
<rscale>  2 0.93673878E+02</rscale>
<asrwt>0</asrwt>
<pdfrwt beam="1">  1       21 0.23653551E-02 0.93673878E+02</pdfrwt>
<pdfrwt beam="2">  1       21 0.13023313E+00 0.93673878E+02</pdfrwt>
<totfact> 0.41307583E+05</totfact>
</mgrwt>
</event>
<event>
 5    1  0.1855960E+000  0.1206648E+03  0.7546771E-02  0.1242004E+00
         21   -1    0    0  501  502  0.00000000000E+00  0.00000000000E+00  0.25240364622E+04  0.25240364622E+04  0.00000000000E+00 0. -1.
         21   -1    0    0  502  503 -0.00000000000E+00 -0.00000000000E+00 -0.64961540328E+01  0.64961540328E+01  0.00000000000E+00 0. -1.
         24    1    1    2    0    0 -0.94096635365E+01  0.95456359086E+02  0.91951115153E+03  0.92799161203E+03  0.80419002446E+02 0. -1.
          1    1    1    2  501    0  0.30394310758E+02 -0.89238513551E+02  0.14280959010E+04  0.14312041186E+04  0.00000000000E+00 0. -1.
         -2    1    1    2    0  503 -0.20984647222E+02 -0.62178455343E+01  0.16993325560E+03  0.17133688564E+03  0.00000000000E+00 0.  1.
<mgrwt>
<rscale>  2 0.12066483E+03</rscale>
<asrwt>0</asrwt>
<pdfrwt beam="1">  1       21 0.38831252E+00 0.12066483E+03</pdfrwt>
<pdfrwt beam="2">  1       21 0.99941033E-03 0.12066483E+03</pdfrwt>
<totfact> 0.42590381E+04</totfact>
</mgrwt>
</event>
<event>
 5    1  0.1855960E+000  0.6851262E+02  0.7546771E-02  0.1365225E+00
         21   -1    0    0  503  502  0.00000000000E+00  0.00000000000E+00  0.45036254555E+03  0.45036254555E+03  0.00000000000E+00 0.  1.
         21   -1    0    0  501  503 -0.00000000000E+00 -0.00000000000E+00 -0.12266496033E+02  0.12266496033E+02  0.00000000000E+00 0. -1.
         24    1    1    2    0    0 -0.13424795754E+00  0.47859102691E+01  0.27816977184E+03  0.28960069212E+03  0.80419002446E+02 0.  1.
          1    1    1    2  501    0 -0.26478663449E+02  0.69538927874E+01  0.33322622732E+02  0.43126249880E+02  0.00000000000E+00 0. -1.
         -2    1    1    2    0  502  0.26612911407E+02 -0.11739803057E+02  0.12660365494E+03  0.12990209958E+03  0.00000000000E+00 0.  1.
<mgrwt>
<rscale>  2 0.68512623E+02</rscale>
<asrwt>0</asrwt>
<pdfrwt beam="1">  1       21 0.69286533E-01 0.68512623E+02</pdfrwt>
<pdfrwt beam="2">  1       21 0.18871536E-02 0.68512623E+02</pdfrwt>
<totfact> 0.24931747E+06</totfact>
</mgrwt>
</event>
<event>
 5    1  0.1855960E+000  0.6642098E+02  0.7546771E-02  0.1372705E+00
         21   -1    0    0  501  502  0.00000000000E+00  0.00000000000E+00  0.27661821680E+03  0.27661821680E+03  0.00000000000E+00 0.  1.
         21   -1    0    0  502  503 -0.00000000000E+00 -0.00000000000E+00 -0.42199702801E+02  0.42199702801E+02  0.00000000000E+00 0.  1.
         24    1    1    2    0    0  0.20321096708E+02 -0.19477759944E+02  0.24843145418E+03  0.26263612373E+03  0.80419002446E+02 0.  1.
          1    1    1    2  501    0 -0.57140683539E+00  0.26628502055E+02  0.58538468893E+01  0.27270334631E+02  0.00000000000E+00 0. -1.
         -2    1    1    2    0  503 -0.19749689873E+02 -0.71507421105E+01 -0.19866787071E+02  0.28911461246E+02  0.00000000000E+00 0.  1.
<mgrwt>
<rscale>  2 0.66420984E+02</rscale>
<asrwt>0</asrwt>
<pdfrwt beam="1">  1       21 0.42556648E-01 0.66420984E+02</pdfrwt>
<pdfrwt beam="2">  1       21 0.64922621E-02 0.66420984E+02</pdfrwt>
<totfact> 0.90849733E+05</totfact>
</mgrwt>
</event>
<event>
 5    1  0.1855960E+000  0.7334290E+02  0.7546771E-02  0.1349081E+00
         21   -1    0    0  501  502  0.00000000000E+00  0.00000000000E+00  0.17697661316E+02  0.17697661316E+02  0.00000000000E+00 0.  1.
         21   -1    0    0  502  503 -0.00000000000E+00 -0.00000000000E+00 -0.32609925322E+03  0.32609925322E+03  0.00000000000E+00 0. -1.
         24    1    1    2    0    0  0.49083962362E+02  0.75154333271E+01 -0.22522087750E+03  0.24424859614E+03  0.80419002446E+02 0.  1.
          1    1    1    2  501    0 -0.25195636896E+02 -0.11932413467E+02 -0.29297148020E+02  0.40441630677E+02  0.00000000000E+00 0. -1.
         -2    1    1    2    0  503 -0.23888325466E+02  0.44169801404E+01 -0.53883566383E+02  0.59106687721E+02  0.00000000000E+00 0.  1.
<mgrwt>
<rscale>  2 0.73342897E+02</rscale>
<asrwt>0</asrwt>
<pdfrwt beam="1">  1       21 0.27227171E-02 0.73342897E+02</pdfrwt>
<pdfrwt beam="2">  1       21 0.50169117E-01 0.73342897E+02</pdfrwt>
<totfact> 0.27267979E+06</totfact>
</mgrwt>
</event>
<event>
 5    1  0.1855960E+000  0.1003191E+03  0.7546771E-02  0.1279626E+00
         21   -1    0    0  501  502  0.00000000000E+00  0.00000000000E+00  0.53484811902E+02  0.53484811902E+02  0.00000000000E+00 0.  1.
         21   -1    0    0  502  503 -0.00000000000E+00 -0.00000000000E+00 -0.23538584232E+03  0.23538584232E+03  0.00000000000E+00 0. -1.
         24    1    1    2    0    0  0.17669067449E+02 -0.68794501597E+01 -0.12099907256E+03  0.14651796577E+03  0.80419002446E+02 0. -1.
          1    1    1    2  501    0 -0.65949454989E+02  0.18219386571E+02 -0.64847866505E+01  0.68726480474E+02  0.00000000000E+00 0. -1.
         -2    1    1    2    0  503  0.48280387540E+02 -0.11339936411E+02 -0.54417171211E+02  0.73626207980E+02  0.00000000000E+00 0.  1.
<mgrwt>
<rscale>  2 0.10031910E+03</rscale>
<asrwt>0</asrwt>
<pdfrwt beam="1">  1       21 0.82284326E-02 0.10031910E+03</pdfrwt>
<pdfrwt beam="2">  1       21 0.36213206E-01 0.10031910E+03</pdfrwt>
<totfact> 0.84145690E+05</totfact>
</mgrwt>
</event>
<event>
 5    1  0.1855960E+000  0.6980436E+02  0.7546771E-02  0.1360760E+00
         21   -1    0    0  501  502  0.00000000000E+00  0.00000000000E+00  0.15309649358E+04  0.15309649358E+04  0.00000000000E+00 0. -1.
         21   -1    0    0  502  503 -0.00000000000E+00 -0.00000000000E+00 -0.40113896550E+01  0.40113896550E+01  0.00000000000E+00 0.  1.
         24    1    1    2    0    0 -0.80502065845E+01  0.67198971184E+01  0.11594660118E+04  0.11622988477E+04  0.80419002446E+02 0. -1.
          1    1    1    2  501    0  0.27121185563E+02  0.13854725737E+02  0.25189426565E+03  0.25372866058E+03  0.00000000000E+00 0. -1.
         -2    1    1    2    0  503 -0.19070978979E+02 -0.20574622855E+02  0.11559326868E+03  0.11894881718E+03  0.00000000000E+00 0.  1.
<mgrwt>
<rscale>  2 0.69804360E+02</rscale>
<asrwt>0</asrwt>
<pdfrwt beam="1">  1       21 0.23553260E+00 0.69804360E+02</pdfrwt>
<pdfrwt beam="2">  1       21 0.61713809E-03 0.69804360E+02</pdfrwt>
<totfact> 0.69491293E+05</totfact>
</mgrwt>
</event>
<event>
 5    1  0.1855960E+000  0.1752413E+03  0.7546771E-02  0.1172490E+00
         21   -1    0    0  503  502  0.00000000000E+00  0.00000000000E+00  0.27226579587E+03  0.27226579587E+03  0.00000000000E+00 0.  1.
         21   -1    0    0  501  503 -0.00000000000E+00 -0.00000000000E+00 -0.27139859521E+03  0.27139859521E+03  0.00000000000E+00 0. -1.
         24    1    1    2    0    0 -0.11406444629E+03 -0.34320506267E+02 -0.28947663418E+02  0.14660756539E+03  0.80419002446E+02 0.  1.
          1    1    1    2  501    0 -0.41566197087E+02 -0.13904650335E+02 -0.14890117532E+03  0.15521806613E+03  0.00000000000E+00 0. -1.
         -2    1    1    2    0  502  0.15563064338E+03  0.48225156602E+02  0.17871603939E+03  0.24183875956E+03  0.00000000000E+00 0.  1.
<mgrwt>
<rscale>  2 0.17524134E+03</rscale>
<asrwt>0</asrwt>
<pdfrwt beam="1">  1       21 0.41887046E-01 0.17524134E+03</pdfrwt>
<pdfrwt beam="2">  1       21 0.41753630E-01 0.17524134E+03</pdfrwt>
<totfact> 0.30581840E+04</totfact>
</mgrwt>
</event>
<event>
 5    1  0.1855960E+000  0.8733138E+02  0.7546771E-02  0.1309446E+00
         21   -1    0    0  503  502  0.00000000000E+00  0.00000000000E+00  0.70154822231E+02  0.70154822231E+02  0.00000000000E+00 0.  1.
         21   -1    0    0  501  503 -0.00000000000E+00 -0.00000000000E+00 -0.18800411013E+03  0.18800411013E+03  0.00000000000E+00 0.  1.
         24    1    1    2    0    0 -0.64072067514E+02  0.56582850354E+01 -0.11031975718E+03  0.15091358721E+03  0.80419002446E+02 0.  1.
          1    1    1    2  501    0  0.15339254810E+02 -0.15676653886E+02 -0.41543348456E+02  0.46977654434E+02  0.00000000000E+00 0. -1.
         -2    1    1    2    0  502  0.48732812704E+02  0.10018368851E+02  0.34013817733E+02  0.60267690724E+02  0.00000000000E+00 0.  1.
<mgrwt>
<rscale>  2 0.87331379E+02</rscale>
<asrwt>0</asrwt>
<pdfrwt beam="1">  1       21 0.10793050E-01 0.87331379E+02</pdfrwt>
<pdfrwt beam="2">  1       21 0.28923709E-01 0.87331379E+02</pdfrwt>
<totfact> 0.81100321E+05</totfact>
</mgrwt>
</event>
<event>
 5    1  0.1855960E+000  0.7364075E+02  0.7546771E-02  0.1348133E+00
         21   -1    0    0  503  502  0.00000000000E+00  0.00000000000E+00  0.43577865172E+03  0.43577865172E+03  0.00000000000E+00 0. -1.
         21   -1    0    0  501  503 -0.00000000000E+00 -0.00000000000E+00 -0.20593833398E+02  0.20593833398E+02  0.00000000000E+00 0.  1.
         24    1    1    2    0    0 -0.21233568182E+02 -0.18266581668E+02  0.16532453117E+03  0.18596760198E+03  0.80419002446E+02 0.  1.
          1    1    1    2  501    0  0.29694730277E+02 -0.10994280731E+02  0.17741634389E+02  0.36296236800E+02  0.00000000000E+00 0. -1.
         -2    1    1    2    0  502 -0.84611620951E+01  0.29260862399E+02  0.23211865276E+03  0.23410864634E+03  0.00000000000E+00 0.  1.
<mgrwt>
<rscale>  2 0.73640750E+02</rscale>
<asrwt>0</asrwt>
<pdfrwt beam="1">  1       21 0.67042862E-01 0.73640750E+02</pdfrwt>
<pdfrwt beam="2">  1       21 0.31682824E-02 0.73640750E+02</pdfrwt>
<totfact> 0.11691612E+06</totfact>
</mgrwt>
</event>
<event>
 5    1  0.1855960E+000  0.9293303E+02  0.7546771E-02  0.1295900E+00
         21   -1    0    0  501  502  0.00000000000E+00  0.00000000000E+00  0.51665326584E+02  0.51665326584E+02  0.00000000000E+00 0.  1.
         21   -1    0    0  502  503 -0.00000000000E+00 -0.00000000000E+00 -0.75735803900E+03  0.75735803900E+03  0.00000000000E+00 0.  1.
         24    1    1    2    0    0  0.55084086990E+01  0.46858334997E+02 -0.83205157846E+02  0.12496543671E+03  0.80419002446E+02 0.  1.
          1    1    1    2  501    0  0.13899515041E+02  0.19242346378E+02  0.24090387625E+02  0.33820277770E+02  0.00000000000E+00 0. -1.
         -2    1    1    2    0  503 -0.19407923740E+02 -0.66100681376E+02 -0.64657794219E+03  0.65023765111E+03  0.00000000000E+00 0.  1.
<mgrwt>
<rscale>  2 0.92933027E+02</rscale>
<asrwt>0</asrwt>
<pdfrwt beam="1">  1       21 0.79485125E-02 0.92933027E+02</pdfrwt>
<pdfrwt beam="2">  1       21 0.11651661E+00 0.92933027E+02</pdfrwt>
<totfact> 0.72731997E+04</totfact>
</mgrwt>
</event>
<event>
 5    1  0.1855960E+000  0.1330371E+03  0.7546771E-02  0.1223018E+00
         21   -1    0    0  501  502  0.00000000000E+00  0.00000000000E+00  0.13776472199E+04  0.13776472199E+04  0.00000000000E+00 0. -1.
         21   -1    0    0  502  503 -0.00000000000E+00 -0.00000000000E+00 -0.29948859973E+02  0.29948859973E+02  0.00000000000E+00 0. -1.
         24    1    1    2    0    0  0.73459655422E+02 -0.91108824216E+02  0.53435565178E+03  0.55290172488E+03  0.80419002446E+02 0. -1.
          1    1    1    2  501    0 -0.25918354004E+02  0.64679227680E+02  0.79386678184E+03  0.79691883581E+03  0.00000000000E+00 0. -1.
         -2    1    1    2    0  503 -0.47541301418E+02  0.26429596537E+02  0.19475926333E+02  0.57775519212E+02  0.00000000000E+00 0.  1.
<mgrwt>
<rscale>  2 0.13303709E+03</rscale>
<asrwt>0</asrwt>
<pdfrwt beam="1">  1       21 0.21194568E+00 0.13303709E+03</pdfrwt>
<pdfrwt beam="2">  1       21 0.46075180E-02 0.13303709E+03</pdfrwt>
<totfact> 0.36530159E+04</totfact>
</mgrwt>
</event>
<event>
 5    1  0.1855960E+000  0.8246799E+02  0.7546771E-02  0.1322190E+00
         21   -1    0    0  501  502  0.00000000000E+00  0.00000000000E+00  0.12546768863E+02  0.12546768863E+02  0.00000000000E+00 0. -1.
         21   -1    0    0  502  503 -0.00000000000E+00 -0.00000000000E+00 -0.56643824864E+03  0.56643824864E+03  0.00000000000E+00 0.  1.
         24    1    1    2    0    0  0.34465928071E+02  0.91526955544E+01 -0.26084763682E+03  0.27528235981E+03  0.80419002446E+02 0.  1.
          1    1    1    2  501    0  0.19636280199E+02 -0.11601536340E+02 -0.54341432236E+02  0.58933610130E+02  0.00000000000E+00 0. -1.
         -2    1    1    2    0  503 -0.54102208270E+02  0.24488407860E+01 -0.23870241072E+03  0.24476904756E+03  0.00000000000E+00 0.  1.
<mgrwt>
<rscale>  2 0.82467994E+02</rscale>
<asrwt>0</asrwt>
<pdfrwt beam="1">  1       21 0.19302722E-02 0.82467994E+02</pdfrwt>
<pdfrwt beam="2">  1       21 0.87144344E-01 0.82467994E+02</pdfrwt>
<totfact> 0.14669795E+06</totfact>
</mgrwt>
</event>
<event>
 5    1  0.1855960E+000  0.8042254E+02  0.7546771E-02  0.1327857E+00
         21   -1    0    0  501  502  0.00000000000E+00  0.00000000000E+00  0.22346985643E+03  0.22346985643E+03  0.00000000000E+00 0. -1.
         21   -1    0    0  502  503 -0.00000000000E+00 -0.00000000000E+00 -0.11213167202E+03  0.11213167202E+03  0.00000000000E+00 0. -1.
         24    1    1    2    0    0  0.44292475569E+02  0.30222232519E+02  0.50364835260E+02  0.10899100566E+03  0.80419002446E+02 0.  0.
          1    1    1    2  501    0 -0.51413629269E+01 -0.24002281016E+02  0.13790141172E+03  0.14006906318E+03  0.00000000000E+00 0. -1.
         -2    1    1    2    0  503 -0.39151112643E+02 -0.62199515034E+01 -0.76928062577E+02  0.86541459600E+02  0.00000000000E+00 0.  1.
<mgrwt>
<rscale>  2 0.80422539E+02</rscale>
<asrwt>0</asrwt>
<pdfrwt beam="1">  1       21 0.34379978E-01 0.80422539E+02</pdfrwt>
<pdfrwt beam="2">  1       21 0.17251026E-01 0.80422539E+02</pdfrwt>
<totfact> 0.25408707E+05</totfact>
</mgrwt>
</event>
<event>
 5    1  0.1855960E+000  0.1040988E+03  0.7546771E-02  0.1271905E+00
         21   -1    0    0  501  502  0.00000000000E+00  0.00000000000E+00  0.10893448933E+04  0.10893448933E+04  0.00000000000E+00 0. -1.
         21   -1    0    0  502  503 -0.00000000000E+00 -0.00000000000E+00 -0.31596360156E+02  0.31596360156E+02  0.00000000000E+00 0.  1.
         24    1    1    2    0    0 -0.81902971180E+00 -0.36670732414E+02  0.21288396993E+03  0.23050426033E+03  0.80419002446E+02 0. -1.
          1    1    1    2  501    0 -0.49259179501E+02  0.47657021264E+02  0.83551596797E+03  0.83832248638E+03  0.00000000000E+00 0. -1.
         -2    1    1    2    0  503  0.50078209213E+02 -0.10986288851E+02  0.93485952582E+01  0.52114506752E+02  0.00000000000E+00 0.  1.
<mgrwt>
<rscale>  2 0.10409885E+03</rscale>
<asrwt>0</asrwt>
<pdfrwt beam="1">  1       21 0.16759149E+00 0.10409885E+03</pdfrwt>
<pdfrwt beam="2">  1       21 0.48609793E-02 0.10409885E+03</pdfrwt>
<totfact> 0.66266678E+04</totfact>
</mgrwt>
</event>
<event>
 5    1  0.1855960E+000  0.7722490E+02  0.7546771E-02  0.1337116E+00
         21   -1    0    0  503  502  0.00000000000E+00  0.00000000000E+00  0.59534983289E+03  0.59534983289E+03  0.00000000000E+00 0. -1.
         21   -1    0    0  501  503 -0.00000000000E+00 -0.00000000000E+00 -0.25953521861E+02  0.25953521861E+02  0.00000000000E+00 0.  1.
         24    1    1    2    0    0 -0.55971661790E+01  0.46583752249E+02  0.17516531279E+03  0.19837206709E+03  0.80419002446E+02 0.  0.
          1    1    1    2  501    0 -0.16885977231E+02 -0.15070487909E+02 -0.38622756207E+01  0.22960248383E+02  0.00000000000E+00 0. -1.
         -2    1    1    2    0  502  0.22483143410E+02 -0.31513264340E+02  0.39809327386E+03  0.39997103928E+03  0.00000000000E+00 0.  1.
<mgrwt>
<rscale>  2 0.77224900E+02</rscale>
<asrwt>0</asrwt>
<pdfrwt beam="1">  1       21 0.91592272E-01 0.77224900E+02</pdfrwt>
<pdfrwt beam="2">  1       21 0.39928500E-02 0.77224900E+02</pdfrwt>
<totfact> 0.40519079E+05</totfact>
</mgrwt>
</event>
<event>
 5    1  0.1855960E+000  0.7231088E+02  0.7546771E-02  0.1352407E+00
         21   -1    0    0  503  502  0.00000000000E+00  0.00000000000E+00  0.12808853928E+02  0.12808853928E+02  0.00000000000E+00 0. -1.
         21   -1    0    0  501  503 -0.00000000000E+00 -0.00000000000E+00 -0.41745774396E+03  0.41745774396E+03  0.00000000000E+00 0.  1.
         24    1    1    2    0    0 -0.28898240564E+02  0.26952731451E+01 -0.23642241360E+03  0.25140633725E+03  0.80419002446E+02 0.  1.
          1    1    1    2  501    0  0.12042543520E+02  0.24403049712E+02 -0.98274658909E+02  0.10197274280E+03  0.00000000000E+00 0. -1.
         -2    1    1    2    0  502  0.16855697045E+02 -0.27098322857E+02 -0.69951817525E+02  0.76887517840E+02  0.00000000000E+00 0.  1.
<mgrwt>
<rscale>  2 0.72310876E+02</rscale>
<asrwt>0</asrwt>
<pdfrwt beam="1">  1       21 0.19705930E-02 0.72310876E+02</pdfrwt>
<pdfrwt beam="2">  1       21 0.64224266E-01 0.72310876E+02</pdfrwt>
<totfact> 0.27416921E+06</totfact>
</mgrwt>
</event>
<event>
 5    1  0.1855960E+000  0.9480801E+02  0.7546771E-02  0.1291609E+00
         21   -1    0    0  503  502  0.00000000000E+00  0.00000000000E+00  0.36184568959E+02  0.36184568959E+02  0.00000000000E+00 0.  1.
         21   -1    0    0  501  503 -0.00000000000E+00 -0.00000000000E+00 -0.48753891439E+03  0.48753891439E+03  0.00000000000E+00 0. -1.
         24    1    1    2    0    0  0.43441261612E+02 -0.17676194501E+02 -0.22289922327E+03  0.24155924895E+03  0.80419002446E+02 0. -1.
          1    1    1    2  501    0 -0.68850231018E+02  0.79263335024E+01 -0.24202571563E+03  0.25175310941E+03  0.00000000000E+00 0. -1.
         -2    1    1    2    0  502  0.25408969406E+02  0.97498609984E+01  0.13570593471E+02  0.30411124986E+02  0.00000000000E+00 0.  1.
<mgrwt>
<rscale>  2 0.94808014E+02</rscale>
<asrwt>0</asrwt>
<pdfrwt beam="1">  1       21 0.55668569E-02 0.94808014E+02</pdfrwt>
<pdfrwt beam="2">  1       21 0.75005984E-01 0.94808014E+02</pdfrwt>
<totfact> 0.36310700E+05</totfact>
</mgrwt>
</event>
<event>
 5    1  0.1855960E+000  0.1361275E+03  0.7546771E-02  0.1218637E+00
         21   -1    0    0  501  502  0.00000000000E+00  0.00000000000E+00  0.47037144518E+02  0.47037144518E+02  0.00000000000E+00 0. -1.
         21   -1    0    0  502  503 -0.00000000000E+00 -0.00000000000E+00 -0.12344621514E+04  0.12344621514E+04  0.00000000000E+00 0. -1.
         24    1    1    2    0    0 -0.11885273062E+03  0.22896582960E+02 -0.97070247800E+03  0.98151960848E+03  0.80419002446E+02 0. -1.
          1    1    1    2  501    0  0.99391530362E+02 -0.33360134466E+02 -0.26046591462E+02  0.10802777331E+03  0.00000000000E+00 0. -1.
         -2    1    1    2    0  503  0.19461200263E+02  0.10463551506E+02 -0.19067593742E+03  0.19195191412E+03  0.00000000000E+00 0.  1.
<mgrwt>
<rscale>  2 0.13612746E+03</rscale>
<asrwt>0</asrwt>
<pdfrwt beam="1">  1       21 0.72364849E-02 0.13612746E+03</pdfrwt>
<pdfrwt beam="2">  1       21 0.18991722E+00 0.13612746E+03</pdfrwt>
<totfact> 0.23325488E+04</totfact>
</mgrwt>
</event>
<event>
 5    1  0.1855960E+000  0.9625320E+02  0.7546771E-02  0.1288378E+00
         21   -1    0    0  503  502  0.00000000000E+00  0.00000000000E+00  0.25473777604E+03  0.25473777604E+03  0.00000000000E+00 0.  1.
         21   -1    0    0  501  503 -0.00000000000E+00 -0.00000000000E+00 -0.85346016697E+02  0.85346016697E+02  0.00000000000E+00 0. -1.
         24    1    1    2    0    0  0.14188929152E+02  0.56533449974E+02  0.57358804337E+02  0.11469352670E+03  0.80419002446E+02 0.  1.
          1    1    1    2  501    0  0.24646021120E+02 -0.57392819908E-01 -0.46526498267E+02  0.52651160404E+02  0.00000000000E+00 0. -1.
         -2    1    1    2    0  502 -0.38834950272E+02 -0.56476057155E+02  0.15855945327E+03  0.17273910564E+03  0.00000000000E+00 0.  1.
<mgrwt>
<rscale>  2 0.96253200E+02</rscale>
<asrwt>0</asrwt>
<pdfrwt beam="1">  1       21 0.39190427E-01 0.96253200E+02</pdfrwt>
<pdfrwt beam="2">  1       21 0.13130157E-01 0.96253200E+02</pdfrwt>
<totfact> 0.31921804E+05</totfact>
</mgrwt>
</event>
<event>
 5    1  0.1855960E+000  0.1194967E+03  0.7546771E-02  0.1243930E+00
         21   -1    0    0  503  502  0.00000000000E+00  0.00000000000E+00  0.48521102934E+02  0.48521102934E+02  0.00000000000E+00 0.  1.
         21   -1    0    0  501  503 -0.00000000000E+00 -0.00000000000E+00 -0.12421622202E+04  0.12421622202E+04  0.00000000000E+00 0. -1.
         24    1    1    2    0    0  0.87622620761E+02  0.34636937132E+02 -0.54369191201E+03  0.55762492073E+03  0.80419002446E+02 0. -1.
          1    1    1    2  501    0 -0.67631513390E+02 -0.54560608294E+02 -0.68362137196E+03  0.68912194987E+03  0.00000000000E+00 0. -1.
         -2    1    1    2    0  502 -0.19991107371E+02  0.19923671162E+02  0.33672166735E+02  0.43936452509E+02  0.00000000000E+00 0.  1.
<mgrwt>
<rscale>  2 0.11949671E+03</rscale>
<asrwt>0</asrwt>
<pdfrwt beam="1">  1       21 0.74647858E-02 0.11949671E+03</pdfrwt>
<pdfrwt beam="2">  1       21 0.19110186E+00 0.11949671E+03</pdfrwt>
<totfact> 0.22079651E+04</totfact>
</mgrwt>
</event>
<event>
 5    1  0.1855960E+000  0.1074002E+03  0.7546771E-02  0.1265461E+00
         21   -1    0    0  503  502  0.00000000000E+00  0.00000000000E+00  0.16036744262E+02  0.16036744262E+02  0.00000000000E+00 0. -1.
         21   -1    0    0  501  503 -0.00000000000E+00 -0.00000000000E+00 -0.88122030600E+03  0.88122030600E+03  0.00000000000E+00 0. -1.
         24    1    1    2    0    0 -0.42507470213E+00  0.56414344081E+02 -0.58364699122E+03  0.59185622006E+03  0.80419002446E+02 0. -1.
          1    1    1    2  501    0  0.41553903881E+02 -0.62434991635E+02 -0.20527272480E+03  0.21854461021E+03  0.00000000000E+00 0. -1.
         -2    1    1    2    0  502 -0.41128829179E+02  0.60206475531E+01 -0.76263845712E+02  0.86856219981E+02  0.00000000000E+00 0.  1.
<mgrwt>
<rscale>  2 0.10740024E+03</rscale>
<asrwt>0</asrwt>
<pdfrwt beam="1">  1       21 0.24671911E-02 0.10740024E+03</pdfrwt>
<pdfrwt beam="2">  1       21 0.13557237E+00 0.10740024E+03</pdfrwt>
<totfact> 0.34803183E+05</totfact>
</mgrwt>
</event>
<event>
 5    1  0.1855960E+000  0.6629391E+02  0.7546771E-02  0.1373169E+00
         21   -1    0    0  503  502  0.00000000000E+00  0.00000000000E+00  0.70151377944E+02  0.70151377944E+02  0.00000000000E+00 0.  1.
         21   -1    0    0  501  503 -0.00000000000E+00 -0.00000000000E+00 -0.81861446142E+02  0.81861446142E+02  0.00000000000E+00 0. -1.
         24    1    1    2    0    0 -0.80462788938E+01 -0.93252569843E+01 -0.16145666252E+02  0.82943363297E+02  0.80419002446E+02 0.  0.
          1    1    1    2  501    0  0.24383828232E+02 -0.96212836584E+01 -0.20853683783E+02  0.33496511846E+02  0.00000000000E+00 0. -1.
         -2    1    1    2    0  502 -0.16337549338E+02  0.18946540643E+02  0.25289281837E+02  0.35572948944E+02  0.00000000000E+00 0.  1.
<mgrwt>
<rscale>  2 0.66293915E+02</rscale>
<asrwt>0</asrwt>
<pdfrwt beam="1">  1       21 0.10792520E-01 0.66293915E+02</pdfrwt>
<pdfrwt beam="2">  1       21 0.12594069E-01 0.66293915E+02</pdfrwt>
<totfact> 0.36298679E+06</totfact>
</mgrwt>
</event>
<event>
 5    1  0.1855960E+000  0.1017453E+03  0.7546771E-02  0.1276668E+00
         21   -1    0    0  501  502  0.00000000000E+00  0.00000000000E+00  0.39760956510E+02  0.39760956510E+02  0.00000000000E+00 0. -1.
         21   -1    0    0  502  503 -0.00000000000E+00 -0.00000000000E+00 -0.50036830570E+03  0.50036830570E+03  0.00000000000E+00 0.  1.
         24    1    1    2    0    0 -0.91745118815E+01 -0.40059606896E+02 -0.24794270711E+03  0.26387827825E+03  0.80419002446E+02 0. -1.
          1    1    1    2  501    0  0.36933421516E+02  0.65713440714E+02 -0.17402262583E+02  0.77363897642E+02  0.00000000000E+00 0. -1.
         -2    1    1    2    0  503 -0.27758909634E+02 -0.25653833819E+02 -0.19526237950E+03  0.19888708631E+03  0.00000000000E+00 0.  1.
<mgrwt>
<rscale>  2 0.10174528E+03</rscale>
<asrwt>0</asrwt>
<pdfrwt beam="1">  1       21 0.61170702E-02 0.10174528E+03</pdfrwt>
<pdfrwt beam="2">  1       21 0.76979740E-01 0.10174528E+03</pdfrwt>
<totfact> 0.29231917E+05</totfact>
</mgrwt>
</event>
<event>
 5    1  0.1855960E+000  0.8707232E+02  0.7546771E-02  0.1310100E+00
         21   -1    0    0  503  502  0.00000000000E+00  0.00000000000E+00  0.89652491784E+02  0.89652491784E+02  0.00000000000E+00 0.  1.
         21   -1    0    0  501  503 -0.00000000000E+00 -0.00000000000E+00 -0.17099991039E+03  0.17099991039E+03  0.00000000000E+00 0. -1.
         24    1    1    2    0    0  0.27448182407E+02  0.22555339189E+02 -0.20655379846E+02  0.90310612413E+02  0.80419002446E+02 0. -1.
          1    1    1    2  501    0 -0.13052081916E+02 -0.51913958966E+02 -0.10347096388E+03  0.11649745209E+03  0.00000000000E+00 0. -1.
         -2    1    1    2    0  502 -0.14396100492E+02  0.29358619778E+02  0.42778925120E+02  0.53844337669E+02  0.00000000000E+00 0.  1.
<mgrwt>
<rscale>  2 0.87072316E+02</rscale>
<asrwt>0</asrwt>
<pdfrwt beam="1">  1       21 0.13792691E-01 0.87072316E+02</pdfrwt>
<pdfrwt beam="2">  1       21 0.26307678E-01 0.87072316E+02</pdfrwt>
<totfact> 0.63073817E+05</totfact>
</mgrwt>
</event>
<event>
 5    1  0.1855960E+000  0.8904662E+02  0.7546771E-02  0.1305177E+00
         21   -1    0    0  503  502  0.00000000000E+00  0.00000000000E+00  0.17377144861E+03  0.17377144861E+03  0.00000000000E+00 0.  1.
         21   -1    0    0  501  503 -0.00000000000E+00 -0.00000000000E+00 -0.50341095962E+02  0.50341095962E+02  0.00000000000E+00 0.  1.
         24    1    1    2    0    0 -0.12977128905E+02  0.63262392234E+02  0.70888340435E+02  0.12515154378E+03  0.80419002446E+02 0.  1.
          1    1    1    2  501    0 -0.90139347284E+01 -0.46331427517E+02  0.10129460188E+02  0.48274819096E+02  0.00000000000E+00 0. -1.
         -2    1    1    2    0  502  0.21991063633E+02 -0.16930964717E+02  0.42412552025E+02  0.50686181699E+02  0.00000000000E+00 0.  1.
<mgrwt>
<rscale>  2 0.89046623E+02</rscale>
<asrwt>0</asrwt>
<pdfrwt beam="1">  1       21 0.26734069E-01 0.89046623E+02</pdfrwt>
<pdfrwt beam="2">  1       21 0.77447841E-02 0.89046623E+02</pdfrwt>
<totfact> 0.16675190E+06</totfact>
</mgrwt>
</event>
<event>
 5    1  0.1855960E+000  0.7007748E+02  0.7546771E-02  0.1359830E+00
         21   -1    0    0  501  502  0.00000000000E+00  0.00000000000E+00  0.72052473611E+03  0.72052473611E+03  0.00000000000E+00 0. -1.
         21   -1    0    0  502  503 -0.00000000000E+00 -0.00000000000E+00 -0.12292560787E+02  0.12292560787E+02  0.00000000000E+00 0. -1.
         24    1    1    2    0    0 -0.57378264722E+01  0.41657044388E+02  0.20491578207E+03  0.22411141358E+03  0.80419002446E+02 0. -1.
          1    1    1    2  501    0 -0.90298834956E+01 -0.27513787597E+02  0.45885505875E+03  0.45976788953E+03  0.00000000000E+00 0. -1.
         -2    1    1    2    0  503  0.14767709968E+02 -0.14143256791E+02  0.44461334506E+02  0.48937993792E+02  0.00000000000E+00 0.  1.
<mgrwt>
<rscale>  2 0.70077479E+02</rscale>
<asrwt>0</asrwt>
<pdfrwt beam="1">  1       21 0.11084993E+00 0.70077479E+02</pdfrwt>
<pdfrwt beam="2">  1       21 0.18911638E-02 0.70077479E+02</pdfrwt>
<totfact> 0.87099264E+05</totfact>
</mgrwt>
</event>
<event>
 5    1  0.1855960E+000  0.8425179E+02  0.7546771E-02  0.1317401E+00
         21   -1    0    0  503  502  0.00000000000E+00  0.00000000000E+00  0.12770430382E+04  0.12770430382E+04  0.00000000000E+00 0.  1.
         21   -1    0    0  501  503 -0.00000000000E+00 -0.00000000000E+00 -0.11310772531E+02  0.11310772531E+02  0.00000000000E+00 0. -1.
         24    1    1    2    0    0 -0.44960143936E+02  0.82457232337E+01  0.69124012809E+03  0.69740199106E+03  0.80419002446E+02 0.  0.
          1    1    1    2  501    0  0.14695966913E+02 -0.33501839379E+02  0.37055738995E+02  0.52071801176E+02  0.00000000000E+00 0. -1.
         -2    1    1    2    0  502  0.30264177024E+02  0.25256116145E+02  0.53743639855E+03  0.53888001846E+03  0.00000000000E+00 0.  1.
<mgrwt>
<rscale>  2 0.84251786E+02</rscale>
<asrwt>0</asrwt>
<pdfrwt beam="1">  1       21 0.19646805E+00 0.84251786E+02</pdfrwt>
<pdfrwt beam="2">  1       21 0.17401199E-02 0.84251786E+02</pdfrwt>
<totfact> 0.23171579E+05</totfact>
</mgrwt>
</event>
<event>
 5    1  0.1855960E+000  0.7181780E+02  0.7546771E-02  0.1354018E+00
         21   -1    0    0  501  502  0.00000000000E+00  0.00000000000E+00  0.50980742339E+02  0.50980742339E+02  0.00000000000E+00 0.  1.
         21   -1    0    0  502  503 -0.00000000000E+00 -0.00000000000E+00 -0.14818352198E+03  0.14818352198E+03  0.00000000000E+00 0. -1.
         24    1    1    2    0    0  0.42544732593E+02  0.18649969365E+02 -0.96796572415E+02  0.13414420604E+03  0.80419002446E+02 0.  0.
          1    1    1    2  501    0 -0.25310061730E+02  0.81672253582E-01  0.20110368980E+02  0.32326967622E+02  0.00000000000E+00 0. -1.
         -2    1    1    2    0  503 -0.17234670863E+02 -0.18731641619E+02 -0.20516576211E+02  0.32693090660E+02  0.00000000000E+00 0.  1.
<mgrwt>
<rscale>  2 0.71817804E+02</rscale>
<asrwt>0</asrwt>
<pdfrwt beam="1">  1       21 0.78431911E-02 0.71817804E+02</pdfrwt>
<pdfrwt beam="2">  1       21 0.22797465E-01 0.71817804E+02</pdfrwt>
<totfact> 0.21758381E+06</totfact>
</mgrwt>
</event>
<event>
 5    1  0.1981819E+000  0.9090473E+02  0.7546771E-02  0.1300675E+00
         21   -1    0    0  503  502  0.00000000000E+00  0.00000000000E+00  0.66831026663E+03  0.66831026663E+03  0.00000000000E+00 0.  1.
         21   -1    0    0  501  503 -0.00000000000E+00 -0.00000000000E+00 -0.91647827137E+02  0.91647827137E+02  0.00000000000E+00 0. -1.
         24    1    1    2    0    0  0.13943676141E+01  0.14631542829E+01  0.11583868418E+03  0.14103156309E+03  0.80419002446E+02 0.  0.
          1    1    1    2  501    0  0.48489377265E+02 -0.12922969937E+02 -0.69729906544E+02  0.85909735922E+02  0.00000000000E+00 0. -1.
         -2    1    1    2    0  502 -0.49883744879E+02  0.11459815654E+02  0.53055366186E+03  0.53301679475E+03  0.00000000000E+00 0.  1.
<mgrwt>
<rscale>  2 0.90904725E+02</rscale>
<asrwt>0</asrwt>
<pdfrwt beam="1">  1       21 0.10281696E+00 0.90904725E+02</pdfrwt>
<pdfrwt beam="2">  1       21 0.14099666E-01 0.90904725E+02</pdfrwt>
<totfact> 0.36069854E+04</totfact>
</mgrwt>
</event>
<event>
 5    1  0.1855960E+000  0.1063470E+03  0.7546771E-02  0.1267488E+00
         21   -1    0    0  501  502  0.00000000000E+00  0.00000000000E+00  0.67832670805E+02  0.67832670805E+02  0.00000000000E+00 0.  1.
         21   -1    0    0  502  503 -0.00000000000E+00 -0.00000000000E+00 -0.29130666718E+03  0.29130666718E+03  0.00000000000E+00 0. -1.
         24    1    1    2    0    0 -0.29983873203E+02  0.55484528846E+00 -0.15633150306E+03  0.17834263458E+03  0.80419002446E+02 0.  0.
          1    1    1    2  501    0 -0.25383467440E+02  0.47301607901E+02  0.28173775484E+02  0.60626101262E+02  0.00000000000E+00 0. -1.
         -2    1    1    2    0  503  0.55367340642E+02 -0.47856453189E+02 -0.95316268796E+02  0.12017060214E+03  0.00000000000E+00 0.  1.
<mgrwt>
<rscale>  2 0.10634695E+03</rscale>
<asrwt>0</asrwt>
<pdfrwt beam="1">  1       21 0.10435796E-01 0.10634695E+03</pdfrwt>
<pdfrwt beam="2">  1       21 0.44816410E-01 0.10634695E+03</pdfrwt>
<totfact> 0.36499821E+05</totfact>
</mgrwt>
</event>
<event>
 5    1  0.1855960E+000  0.1100501E+03  0.7546771E-02  0.1260477E+00
         21   -1    0    0  501  502  0.00000000000E+00  0.00000000000E+00  0.87364715261E+03  0.87364715261E+03  0.00000000000E+00 0. -1.
         21   -1    0    0  502  503 -0.00000000000E+00 -0.00000000000E+00 -0.25362728921E+02  0.25362728921E+02  0.00000000000E+00 0.  1.
         24    1    1    2    0    0  0.40318829154E+02  0.31576972664E+02  0.29435409122E+03  0.30940953469E+03  0.80419002446E+02 0.  1.
          1    1    1    2  501    0  0.39269250686E+02 -0.36865103065E+00  0.46349051686E+03  0.46515123259E+03  0.00000000000E+00 0. -1.
         -2    1    1    2    0  503 -0.79588079840E+02 -0.31208321633E+02  0.90439815609E+02  0.12444911426E+03  0.00000000000E+00 0.  1.
<mgrwt>
<rscale>  2 0.11005012E+03</rscale>
<asrwt>0</asrwt>
<pdfrwt beam="1">  1       21 0.13440723E+00 0.11005012E+03</pdfrwt>
<pdfrwt beam="2">  1       21 0.39019590E-02 0.11005012E+03</pdfrwt>
<totfact> 0.16782690E+05</totfact>
</mgrwt>
</event>
<event>
 5    1  0.1855960E+000  0.6977344E+02  0.7546771E-02  0.1360865E+00
         21   -1    0    0  501  502  0.00000000000E+00  0.00000000000E+00  0.45366481999E+02  0.45366481999E+02  0.00000000000E+00 0. -1.
         21   -1    0    0  502  503 -0.00000000000E+00 -0.00000000000E+00 -0.23115046929E+03  0.23115046929E+03  0.00000000000E+00 0.  1.
         24    1    1    2    0    0 -0.38211424229E+02  0.70704357827E+01 -0.17880003506E+02  0.91087949167E+02  0.80419002446E+02 0. -1.
          1    1    1    2  501    0  0.17113801140E+02 -0.19340246055E+02 -0.13562302169E+02  0.29169561997E+02  0.00000000000E+00 0. -1.
         -2    1    1    2    0  503  0.21097623089E+02  0.12269810273E+02 -0.15434168161E+03  0.15625944012E+03  0.00000000000E+00 0.  1.
<mgrwt>
<rscale>  2 0.69773442E+02</rscale>
<asrwt>0</asrwt>
<pdfrwt beam="1">  1       21 0.69794587E-02 0.69773442E+02</pdfrwt>
<pdfrwt beam="2">  1       21 0.35561611E-01 0.69773442E+02</pdfrwt>
<totfact> 0.11445494E+06</totfact>
</mgrwt>
</event>
<event>
 5    1  0.1855960E+000  0.9213068E+02  0.7546771E-02  0.1297772E+00
         21   -1    0    0  503  502  0.00000000000E+00  0.00000000000E+00  0.10112796697E+03  0.10112796697E+03  0.00000000000E+00 0. -1.
         21   -1    0    0  501  503 -0.00000000000E+00 -0.00000000000E+00 -0.89860864072E+02  0.89860864072E+02  0.00000000000E+00 0.  1.
         24    1    1    2    0    0  0.31180173234E+02  0.18895741145E+02  0.25943240258E+02  0.92029994598E+02  0.80419002446E+02 0.  0.
          1    1    1    2  501    0 -0.60271259301E+02 -0.26584389933E+02 -0.19001555943E+02  0.68559562528E+02  0.00000000000E+00 0. -1.
         -2    1    1    2    0  502  0.29091086067E+02  0.76886487880E+01  0.43254185846E+01  0.30399273917E+02  0.00000000000E+00 0.  1.
<mgrwt>
<rscale>  2 0.92130682E+02</rscale>
<asrwt>0</asrwt>
<pdfrwt beam="1">  1       21 0.15558149E-01 0.92130682E+02</pdfrwt>
<pdfrwt beam="2">  1       21 0.13824748E-01 0.92130682E+02</pdfrwt>
<totfact> 0.16473206E+06</totfact>
</mgrwt>
</event>
<event>
 5    1  0.1855960E+000  0.8736761E+02  0.7546771E-02  0.1309355E+00
         21   -1    0    0  501  502  0.00000000000E+00  0.00000000000E+00  0.24639189603E+03  0.24639189603E+03  0.00000000000E+00 0. -1.
         21   -1    0    0  502  503 -0.00000000000E+00 -0.00000000000E+00 -0.60746116676E+02  0.60746116676E+02  0.00000000000E+00 0.  1.
         24    1    1    2    0    0  0.71489330674E+01  0.34022576267E+02  0.17812290632E+03  0.19850347264E+03  0.80419002446E+02 0. -1.
          1    1    1    2  501    0 -0.34289466618E+02 -0.46069097279E+02  0.35764379804E+02  0.67655155811E+02  0.00000000000E+00 0. -1.
         -2    1    1    2    0  503  0.27140533550E+02  0.12046521011E+02 -0.28241506766E+02  0.40979384260E+02  0.00000000000E+00 0.  1.
<mgrwt>
<rscale>  2 0.87367606E+02</rscale>
<asrwt>0</asrwt>
<pdfrwt beam="1">  1       21 0.37906445E-01 0.87367606E+02</pdfrwt>
<pdfrwt beam="2">  1       21 0.93455565E-02 0.87367606E+02</pdfrwt>
<totfact> 0.61744769E+05</totfact>
</mgrwt>
</event>
<event>
 5    1  0.1855960E+000  0.9039061E+02  0.7546771E-02  0.1301909E+00
         21   -1    0    0  501  502  0.00000000000E+00  0.00000000000E+00  0.96510172822E+03  0.96510172822E+03  0.00000000000E+00 0. -1.
         21   -1    0    0  502  503 -0.00000000000E+00 -0.00000000000E+00 -0.86574943240E+01  0.86574943240E+01  0.00000000000E+00 0. -1.
         24    1    1    2    0    0 -0.46210998887E+02  0.43834286954E+01  0.49451586697E+03  0.50315785744E+03  0.80419002446E+02 0. -1.
          1    1    1    2  501    0  0.51033156179E+02 -0.31773334619E+02  0.35819323478E+03  0.36320286517E+03  0.00000000000E+00 0. -1.
         -2    1    1    2    0  503 -0.48221572921E+01  0.27389905923E+02  0.10373513215E+03  0.10739849994E+03  0.00000000000E+00 0.  1.
<mgrwt>
<rscale>  2 0.90390610E+02</rscale>
<asrwt>0</asrwt>
<pdfrwt beam="1">  1       21 0.14847710E+00 0.90390610E+02</pdfrwt>
<pdfrwt beam="2">  1       21 0.13319230E-02 0.90390610E+02</pdfrwt>
<totfact> 0.74390896E+05</totfact>
</mgrwt>
</event>
<event>
 5    1  0.1855960E+000  0.1519165E+03  0.7546771E-02  0.1198138E+00
         21   -1    0    0  503  502  0.00000000000E+00  0.00000000000E+00  0.27282625920E+03  0.27282625920E+03  0.00000000000E+00 0.  1.
         21   -1    0    0  501  503 -0.00000000000E+00 -0.00000000000E+00 -0.30595737942E+03  0.30595737942E+03  0.00000000000E+00 0. -1.
         24    1    1    2    0    0  0.47454375600E+02 -0.13124282978E+03  0.79322750655E+02  0.17954362383E+03  0.80419002446E+02 0.  1.
          1    1    1    2  501    0 -0.23143134386E+02  0.26266748205E+02 -0.23411673953E+03  0.23671965372E+03  0.00000000000E+00 0. -1.
         -2    1    1    2    0  502 -0.24311241214E+02  0.10497608157E+03  0.12166286866E+03  0.16252036107E+03  0.00000000000E+00 0.  1.
<mgrwt>
<rscale>  2 0.15191653E+03</rscale>
<asrwt>0</asrwt>
<pdfrwt beam="1">  1       21 0.41973271E-01 0.15191653E+03</pdfrwt>
<pdfrwt beam="2">  1       21 0.47070366E-01 0.15191653E+03</pdfrwt>
<totfact> 0.24179543E+04</totfact>
</mgrwt>
</event>
<event>
 5    1  0.1855960E+000  0.7922521E+02  0.7546771E-02  0.1331265E+00
         21   -1    0    0  501  502  0.00000000000E+00  0.00000000000E+00  0.64189356303E+02  0.64189356303E+02  0.00000000000E+00 0.  1.
         21   -1    0    0  502  503 -0.00000000000E+00 -0.00000000000E+00 -0.18116014066E+03  0.18116014066E+03  0.00000000000E+00 0.  1.
         24    1    1    2    0    0  0.28383225021E+02 -0.25831376859E+02  0.54885398118E+01  0.89276018710E+02  0.80419002446E+02 0.  1.
          1    1    1    2  501    0  0.16933854585E+02  0.15292193145E+02  0.22889052395E+01  0.22931325506E+02  0.00000000000E+00 0. -1.
         -2    1    1    2    0  503 -0.45317079605E+02  0.10539183714E+02 -0.12474822940E+03  0.13314215274E+03  0.00000000000E+00 0.  1.
<mgrwt>
<rscale>  2 0.79225209E+02</rscale>
<asrwt>0</asrwt>
<pdfrwt beam="1">  1       21 0.98752855E-02 0.79225209E+02</pdfrwt>
<pdfrwt beam="2">  1       21 0.27870791E-01 0.79225209E+02</pdfrwt>
<totfact> 0.10129183E+06</totfact>
</mgrwt>
</event>
<event>
 5    1  0.1855960E+000  0.7105255E+02  0.7546771E-02  0.1356550E+00
         21   -1    0    0  503  502  0.00000000000E+00  0.00000000000E+00  0.23667337073E+02  0.23667337073E+02  0.00000000000E+00 0.  1.
         21   -1    0    0  501  503 -0.00000000000E+00 -0.00000000000E+00 -0.32663252062E+03  0.32663252062E+03  0.00000000000E+00 0. -1.
         24    1    1    2    0    0 -0.17642720104E+02 -0.19041178292E+02 -0.17560064576E+03  0.19487594718E+03  0.80419002446E+02 0.  0.
          1    1    1    2  501    0 -0.10854170737E+02  0.26078722584E+02 -0.12244558654E+03  0.12566158704E+03  0.00000000000E+00 0. -1.
         -2    1    1    2    0  502  0.28496890841E+02 -0.70375442920E+01 -0.49189512473E+01  0.29762323475E+02  0.00000000000E+00 0.  1.
<mgrwt>
<rscale>  2 0.71052546E+02</rscale>
<asrwt>0</asrwt>
<pdfrwt beam="1">  1       21 0.36411290E-02 0.71052546E+02</pdfrwt>
<pdfrwt beam="2">  1       21 0.50251154E-01 0.71052546E+02</pdfrwt>
<totfact> 0.16949331E+06</totfact>
</mgrwt>
</event>
<event>
 5    1  0.1855960E+000  0.1042639E+03  0.7546771E-02  0.1271577E+00
         21   -1    0    0  501  502  0.00000000000E+00  0.00000000000E+00  0.10973257564E+03  0.10973257564E+03  0.00000000000E+00 0.  1.
         21   -1    0    0  502  503 -0.00000000000E+00 -0.00000000000E+00 -0.20423388177E+03  0.20423388177E+03  0.00000000000E+00 0. -1.
         24    1    1    2    0    0  0.64894646081E+02 -0.26077000372E+02  0.26925688737E+02  0.10992512773E+03  0.80419002446E+02 0.  0.
          1    1    1    2  501    0 -0.58648140104E+02 -0.14891728677E+02  0.14259868426E+02  0.62166805999E+02  0.00000000000E+00 0. -1.
         -2    1    1    2    0  503 -0.62465059770E+01  0.40968729049E+02 -0.13568686330E+03  0.14187452368E+03  0.00000000000E+00 0.  1.
<mgrwt>
<rscale>  2 0.10426395E+03</rscale>
<asrwt>0</asrwt>
<pdfrwt beam="1">  1       21 0.16881935E-01 0.10426395E+03</pdfrwt>
<pdfrwt beam="2">  1       21 0.31420597E-01 0.10426395E+03</pdfrwt>
<totfact> 0.31292673E+05</totfact>
</mgrwt>
</event>
<event>
 5    1  0.1855960E+000  0.6461812E+02  0.7546771E-02  0.1379414E+00
         21   -1    0    0  503  502  0.00000000000E+00  0.00000000000E+00  0.22179117837E+02  0.22179117837E+02  0.00000000000E+00 0. -1.
         21   -1    0    0  501  503 -0.00000000000E+00 -0.00000000000E+00 -0.38408130140E+03  0.38408130140E+03  0.00000000000E+00 0.  1.
         24    1    1    2    0    0  0.93078030414E+01 -0.16349968146E+02 -0.14897976828E+03  0.17034125739E+03  0.80419002446E+02 0.  0.
          1    1    1    2  501    0 -0.24928093631E+02  0.13109283789E+01 -0.21277607396E+03  0.21423535197E+03  0.00000000000E+00 0. -1.
         -2    1    1    2    0  502  0.15620290589E+02  0.15039039768E+02 -0.14634132559E+00  0.21683809882E+02  0.00000000000E+00 0.  1.
<mgrwt>
<rscale>  2 0.64618123E+02</rscale>
<asrwt>0</asrwt>
<pdfrwt beam="1">  1       21 0.34121721E-02 0.64618123E+02</pdfrwt>
<pdfrwt beam="2">  1       21 0.59089428E-01 0.64618123E+02</pdfrwt>
<totfact> 0.13463085E+06</totfact>
</mgrwt>
</event>
<event>
 5    1  0.1855960E+000  0.1730289E+03  0.7546771E-02  0.1174726E+00
         21   -1    0    0  503  502  0.00000000000E+00  0.00000000000E+00  0.32564791239E+03  0.32564791239E+03  0.00000000000E+00 0.  1.
         21   -1    0    0  501  503 -0.00000000000E+00 -0.00000000000E+00 -0.13872343551E+03  0.13872343551E+03  0.00000000000E+00 0.  1.
         24    1    1    2    0    0 -0.10646155679E+03 -0.83850913918E+02  0.77889693871E+02  0.17578128229E+03  0.80419002446E+02 0.  1.
          1    1    1    2  501    0 -0.19752983735E+02  0.55783589247E+02 -0.54271094552E+02  0.80295335478E+02  0.00000000000E+00 0. -1.
         -2    1    1    2    0  502  0.12621454053E+03  0.28067324671E+02  0.16330587756E+03  0.20829473013E+03  0.00000000000E+00 0.  1.
<mgrwt>
<rscale>  2 0.17302890E+03</rscale>
<asrwt>0</asrwt>
<pdfrwt beam="1">  1       21 0.50099679E-01 0.17302890E+03</pdfrwt>
<pdfrwt beam="2">  1       21 0.21342067E-01 0.17302890E+03</pdfrwt>
<totfact> 0.78194370E+04</totfact>
</mgrwt>
</event>
<event>
 5    1  0.1855960E+000  0.6979539E+02  0.7546771E-02  0.1360790E+00
         21   -1    0    0  503  502  0.00000000000E+00  0.00000000000E+00  0.16773720586E+04  0.16773720586E+04  0.00000000000E+00 0.  1.
         21   -1    0    0  501  503 -0.00000000000E+00 -0.00000000000E+00 -0.16075446921E+02  0.16075446921E+02  0.00000000000E+00 0.  1.
         24    1    1    2    0    0  0.33150572674E+02  0.32793884921E+02  0.14159180136E+03  0.16938079443E+03  0.80419002446E+02 0.  1.
          1    1    1    2  501    0 -0.18056684364E+02 -0.17821536361E+02  0.74421417490E+02  0.78626957144E+02  0.00000000000E+00 0. -1.
         -2    1    1    2    0  502 -0.15093888310E+02 -0.14972348560E+02  0.14452833928E+04  0.14454397539E+04  0.00000000000E+00 0.  1.
<mgrwt>
<rscale>  2 0.69795390E+02</rscale>
<asrwt>0</asrwt>
<pdfrwt beam="1">  1       21 0.25805710E+00 0.69795390E+02</pdfrwt>
<pdfrwt beam="2">  1       21 0.24731470E-02 0.69795390E+02</pdfrwt>
<totfact> 0.59489532E+04</totfact>
</mgrwt>
</event>
<event>
 5    1  0.1855960E+000  0.9885379E+02  0.7546771E-02  0.1282725E+00
         21   -1    0    0  501  502  0.00000000000E+00  0.00000000000E+00  0.37771606091E+03  0.37771606091E+03  0.00000000000E+00 0. -1.
         21   -1    0    0  502  503 -0.00000000000E+00 -0.00000000000E+00 -0.69078441855E+02  0.69078441855E+02  0.00000000000E+00 0.  1.
         24    1    1    2    0    0 -0.20134076647E+02 -0.41847213500E+02  0.17465013524E+03  0.19780408492E+03  0.80419002446E+02 0.  0.
          1    1    1    2  501    0 -0.31331635478E+02  0.43192733408E+02  0.17513538196E+03  0.18308382128E+03  0.00000000000E+00 0. -1.
         -2    1    1    2    0  503  0.51465712125E+02 -0.13455199071E+01 -0.41147898143E+02  0.65906596558E+02  0.00000000000E+00 0.  1.
<mgrwt>
<rscale>  2 0.98853792E+02</rscale>
<asrwt>0</asrwt>
<pdfrwt beam="1">  1       21 0.58110162E-01 0.98853792E+02</pdfrwt>
<pdfrwt beam="2">  1       21 0.10627453E-01 0.98853792E+02</pdfrwt>
<totfact> 0.20758275E+05</totfact>
</mgrwt>
</event>
<event>
 5    1  0.1855960E+000  0.8527663E+02  0.7546771E-02  0.1314711E+00
         21   -1    0    0  503  502  0.00000000000E+00  0.00000000000E+00  0.36281547533E+03  0.36281547533E+03  0.00000000000E+00 0. -1.
         21   -1    0    0  501  503 -0.00000000000E+00 -0.00000000000E+00 -0.43242026813E+02  0.43242026813E+02  0.00000000000E+00 0. -1.
         24    1    1    2    0    0  0.28293889608E+02  0.19171772991E+02  0.13997290902E+03  0.16500827944E+03  0.80419002446E+02 0. -1.
          1    1    1    2  501    0 -0.50877877736E+02 -0.28978345426E+02 -0.12157482903E+01  0.58564332067E+02  0.00000000000E+00 0. -1.
         -2    1    1    2    0  502  0.22583988128E+02  0.98065724343E+01  0.18081628779E+03  0.18248489064E+03  0.00000000000E+00 0.  1.
<mgrwt>
<rscale>  2 0.85276626E+02</rscale>
<asrwt>0</asrwt>
<pdfrwt beam="1">  1       21 0.55817764E-01 0.85276626E+02</pdfrwt>
<pdfrwt beam="2">  1       21 0.66526197E-02 0.85276626E+02</pdfrwt>
<totfact> 0.50517966E+05</totfact>
</mgrwt>
</event>
<event>
 5    1  0.1855960E+000  0.7957028E+02  0.7546771E-02  0.1330275E+00
         21   -1    0    0  501  502  0.00000000000E+00  0.00000000000E+00  0.74624744340E+02  0.74624744340E+02  0.00000000000E+00 0.  1.
         21   -1    0    0  502  503 -0.00000000000E+00 -0.00000000000E+00 -0.20489323434E+03  0.20489323434E+03  0.00000000000E+00 0.  1.
         24    1    1    2    0    0  0.21515727841E+02  0.15411050179E+02  0.25555492833E+02  0.88434869709E+02  0.80419002446E+02 0.  1.
          1    1    1    2  501    0  0.23165903145E+02  0.73892913288E+01  0.30236966851E+01  0.24503131157E+02  0.00000000000E+00 0. -1.
         -2    1    1    2    0  503 -0.44681630986E+02 -0.22800341507E+02 -0.15884767951E+03  0.16657997781E+03  0.00000000000E+00 0.  1.
<mgrwt>
<rscale>  2 0.79570279E+02</rscale>
<asrwt>0</asrwt>
<pdfrwt beam="1">  1       21 0.11480730E-01 0.79570279E+02</pdfrwt>
<pdfrwt beam="2">  1       21 0.31522036E-01 0.79570279E+02</pdfrwt>
<totfact> 0.61745218E+05</totfact>
</mgrwt>
</event>
<event>
 5    1  0.1855960E+000  0.9539100E+02  0.7546771E-02  0.1290298E+00
         21   -1    0    0  501  502  0.00000000000E+00  0.00000000000E+00  0.20981060324E+03  0.20981060324E+03  0.00000000000E+00 0. -1.
         21   -1    0    0  502  503 -0.00000000000E+00 -0.00000000000E+00 -0.20586027609E+03  0.20586027609E+03  0.00000000000E+00 0.  1.
         24    1    1    2    0    0  0.15094366025E+02 -0.45892753184E+02  0.35136289891E+02  0.10017863795E+03  0.80419002446E+02 0.  0.
          1    1    1    2  501    0 -0.50170881043E+02  0.23964388899E+02  0.13406765506E+03  0.14513974429E+03  0.00000000000E+00 0. -1.
         -2    1    1    2    0  503  0.35076515019E+02  0.21928364285E+02 -0.16525361780E+03  0.17035249708E+03  0.00000000000E+00 0.  1.
<mgrwt>
<rscale>  2 0.95390996E+02</rscale>
<asrwt>0</asrwt>
<pdfrwt beam="1">  1       21 0.32278554E-01 0.95390996E+02</pdfrwt>
<pdfrwt beam="2">  1       21 0.31670812E-01 0.95390996E+02</pdfrwt>
<totfact> 0.92251136E+04</totfact>
</mgrwt>
</event>
<event>
 5    1  0.1855960E+000  0.1256201E+03  0.7546771E-02  0.1234103E+00
         21   -1    0    0  503  502  0.00000000000E+00  0.00000000000E+00  0.39254270260E+02  0.39254270260E+02  0.00000000000E+00 0.  1.
         21   -1    0    0  501  503 -0.00000000000E+00 -0.00000000000E+00 -0.60385333915E+03  0.60385333915E+03  0.00000000000E+00 0. -1.
         24    1    1    2    0    0  0.64405753533E+02 -0.80199907169E+02 -0.10867717424E+03  0.16987663275E+03  0.80419002446E+02 0.  1.
          1    1    1    2  501    0 -0.19561750165E+02  0.72602641541E+02 -0.34950346530E+03  0.35750031872E+03  0.00000000000E+00 0. -1.
         -2    1    1    2    0  502 -0.44844003368E+02  0.75972656278E+01 -0.10641842935E+03  0.11573065794E+03  0.00000000000E+00 0.  1.
<mgrwt>
<rscale>  2 0.12562013E+03</rscale>
<asrwt>0</asrwt>
<pdfrwt beam="1">  1       21 0.60391186E-02 0.12562013E+03</pdfrwt>
<pdfrwt beam="2">  1       21 0.92900512E-01 0.12562013E+03</pdfrwt>
<totfact> 0.19440236E+05</totfact>
</mgrwt>
</event>
<event>
 5    1  0.1855960E+000  0.8845811E+02  0.7546771E-02  0.1306629E+00
         21   -1    0    0  501  502  0.00000000000E+00  0.00000000000E+00  0.49343469187E+03  0.49343469187E+03  0.00000000000E+00 0. -1.
         21   -1    0    0  502  503 -0.00000000000E+00 -0.00000000000E+00 -0.62779460962E+02  0.62779460962E+02  0.00000000000E+00 0.  1.
         24    1    1    2    0    0 -0.43958973677E+02  0.10943078832E+02  0.52262669315E+02  0.10606952861E+03  0.80419002446E+02 0. -1.
          1    1    1    2  501    0  0.54967455130E+02  0.14538839964E+02  0.40660795241E+03  0.41056403393E+03  0.00000000000E+00 0. -1.
         -2    1    1    2    0  503 -0.11008481453E+02 -0.25481918796E+02 -0.28215390815E+02  0.39580590297E+02  0.00000000000E+00 0.  1.
<mgrwt>
<rscale>  2 0.88458114E+02</rscale>
<asrwt>0</asrwt>
<pdfrwt beam="1">  1       21 0.75913027E-01 0.88458114E+02</pdfrwt>
<pdfrwt beam="2">  1       21 0.96583789E-02 0.88458114E+02</pdfrwt>
<totfact> 0.13884738E+05</totfact>
</mgrwt>
</event>
<event>
 5    1  0.1855960E+000  0.1247562E+03  0.7546771E-02  0.1235451E+00
         21   -1    0    0  501  502  0.00000000000E+00  0.00000000000E+00  0.15328019847E+02  0.15328019847E+02  0.00000000000E+00 0. -1.
         21   -1    0    0  502  503 -0.00000000000E+00 -0.00000000000E+00 -0.15845694362E+04  0.15845694362E+04  0.00000000000E+00 0.  1.
         24    1    1    2    0    0 -0.75085035876E+02  0.29657885861E+02 -0.11005246162E+04  0.11064081523E+04  0.80419002446E+02 0.  1.
          1    1    1    2  501    0  0.11693601538E+02  0.39825787620E+02 -0.53286328331E+02  0.67544551694E+02  0.00000000000E+00 0. -1.
         -2    1    1    2    0  503  0.63391434337E+02 -0.69483673481E+02 -0.41543047182E+03  0.42594475199E+03  0.00000000000E+00 0.  1.
<mgrwt>
<rscale>  2 0.12475624E+03</rscale>
<asrwt>0</asrwt>
<pdfrwt beam="1">  1       21 0.23581579E-02 0.12475624E+03</pdfrwt>
<pdfrwt beam="2">  1       21 0.24377981E+00 0.12475624E+03</pdfrwt>
<totfact> 0.71880302E+04</totfact>
</mgrwt>
</event>
<event>
 5    1  0.1855960E+000  0.1160797E+03  0.7546771E-02  0.1249708E+00
         21   -1    0    0  501  502  0.00000000000E+00  0.00000000000E+00  0.38491548951E+02  0.38491548951E+02  0.00000000000E+00 0.  1.
         21   -1    0    0  502  503 -0.00000000000E+00 -0.00000000000E+00 -0.42924731444E+03  0.42924731444E+03  0.00000000000E+00 0. -1.
         24    1    1    2    0    0  0.82400753706E+01  0.81045297344E+02 -0.20501627904E+03  0.23480870872E+03  0.80419002446E+02 0. -1.
          1    1    1    2  501    0 -0.32771091082E+02  0.25129430122E+00 -0.48876475687E+01  0.33134523662E+02  0.00000000000E+00 0. -1.
         -2    1    1    2    0  503  0.24531015712E+02 -0.81296591645E+02 -0.18085183888E+03  0.19979563101E+03  0.00000000000E+00 0.  1.
<mgrwt>
<rscale>  2 0.11607972E+03</rscale>
<asrwt>0</asrwt>
<pdfrwt beam="1">  1       21 0.59217765E-02 0.11607972E+03</pdfrwt>
<pdfrwt beam="2">  1       21 0.66038051E-01 0.11607972E+03</pdfrwt>
<totfact> 0.43001385E+05</totfact>
</mgrwt>
</event>
<event>
 5    1  0.1855960E+000  0.7160591E+02  0.7546771E-02  0.1354716E+00
         21   -1    0    0  501  502  0.00000000000E+00  0.00000000000E+00  0.39049386035E+03  0.39049386035E+03  0.00000000000E+00 0.  1.
         21   -1    0    0  502  503 -0.00000000000E+00 -0.00000000000E+00 -0.13795122603E+02  0.13795122603E+02  0.00000000000E+00 0. -1.
         24    1    1    2    0    0 -0.17423759565E+02  0.18386325591E+01  0.22753786301E+03  0.24196624356E+03  0.80419002446E+02 0.  0.
          1    1    1    2  501    0 -0.15143310585E+02  0.17411413157E+02  0.82594037620E+02  0.85756936827E+02  0.00000000000E+00 0. -1.
         -2    1    1    2    0  503  0.32567070150E+02 -0.19250045716E+02  0.66566837117E+02  0.76565802562E+02  0.00000000000E+00 0.  1.
<mgrwt>
<rscale>  2 0.71605907E+02</rscale>
<asrwt>0</asrwt>
<pdfrwt beam="1">  1       21 0.60075970E-01 0.71605907E+02</pdfrwt>
<pdfrwt beam="2">  1       21 0.21223269E-02 0.71605907E+02</pdfrwt>
<totfact> 0.28014078E+06</totfact>
</mgrwt>
</event>
<event>
 5    1  0.1855960E+000  0.7106328E+02  0.7546771E-02  0.1356514E+00
         21   -1    0    0  501  502  0.00000000000E+00  0.00000000000E+00  0.40010625326E+02  0.40010625326E+02  0.00000000000E+00 0. -1.
         21   -1    0    0  502  503 -0.00000000000E+00 -0.00000000000E+00 -0.17684359058E+04  0.17684359058E+04  0.00000000000E+00 0.  1.
         24    1    1    2    0    0  0.43061906971E+02  0.12001179787E+02 -0.17042734704E+04  0.17067552941E+04  0.80419002446E+02 0.  1.
          1    1    1    2  501    0 -0.20949487614E+02  0.57923001099E+01  0.32052411804E+02  0.38727107745E+02  0.00000000000E+00 0. -1.
         -2    1    1    2    0  503 -0.22112419357E+02 -0.17793479896E+02 -0.56204221902E+02  0.62964129282E+02  0.00000000000E+00 0.  1.
<mgrwt>
<rscale>  2 0.71063276E+02</rscale>
<asrwt>0</asrwt>
<pdfrwt beam="1">  1       21 0.61554819E-02 0.71063276E+02</pdfrwt>
<pdfrwt beam="2">  1       21 0.27206701E+00 0.71063276E+02</pdfrwt>
<totfact> 0.11216932E+04</totfact>
</mgrwt>
</event>
<event>
 5    1  0.1855960E+000  0.8131391E+02  0.7546771E-02  0.1325364E+00
         21   -1    0    0  501  502  0.00000000000E+00  0.00000000000E+00  0.35659725575E+03  0.35659725575E+03  0.00000000000E+00 0. -1.
         21   -1    0    0  502  503 -0.00000000000E+00 -0.00000000000E+00 -0.25461319013E+02  0.25461319013E+02  0.00000000000E+00 0.  1.
         24    1    1    2    0    0 -0.18954404409E-01 -0.41234729928E+02  0.22286213314E+03  0.24048918823E+03  0.80419002446E+02 0. -1.
          1    1    1    2  501    0  0.29000388076E+02  0.12961112019E+02  0.93034581542E+02  0.98307915734E+02  0.00000000000E+00 0. -1.
         -2    1    1    2    0  503 -0.28981433671E+02  0.28273617909E+02  0.15239222058E+02  0.43261470805E+02  0.00000000000E+00 0.  1.
<mgrwt>
<rscale>  2 0.81313911E+02</rscale>
<asrwt>0</asrwt>
<pdfrwt beam="1">  1       21 0.54861113E-01 0.81313911E+02</pdfrwt>
<pdfrwt beam="2">  1       21 0.39171263E-02 0.81313911E+02</pdfrwt>
<totfact> 0.12624209E+06</totfact>
</mgrwt>
</event>
<event>
 5    1  0.1855960E+000  0.6462042E+02  0.7546771E-02  0.1379405E+00
         21   -1    0    0  501  502  0.00000000000E+00  0.00000000000E+00  0.66327955851E+03  0.66327955851E+03  0.00000000000E+00 0.  1.
         21   -1    0    0  502  503 -0.00000000000E+00 -0.00000000000E+00 -0.16907329593E+02  0.16907329593E+02  0.00000000000E+00 0.  1.
         24    1    1    2    0    0  0.56057139858E+01 -0.20977136657E+02  0.55708453027E+03  0.56327777704E+03  0.80419002446E+02 0.  1.
          1    1    1    2  501    0  0.17607131869E+02  0.10215186309E+02  0.89023912011E+02  0.91321509152E+02  0.00000000000E+00 0. -1.
         -2    1    1    2    0  503 -0.23212845855E+02  0.10761950348E+02  0.26378663588E+00  0.25587601907E+02  0.00000000000E+00 0.  1.
<mgrwt>
<rscale>  2 0.64620423E+02</rscale>
<asrwt>0</asrwt>
<pdfrwt beam="1">  1       21 0.10204299E+00 0.64620423E+02</pdfrwt>
<pdfrwt beam="2">  1       21 0.26011281E-02 0.64620423E+02</pdfrwt>
<totfact> 0.63463009E+05</totfact>
</mgrwt>
</event>
<event>
 5    1  0.1855960E+000  0.1736785E+03  0.7546771E-02  0.1174065E+00
         21   -1    0    0  503  502  0.00000000000E+00  0.00000000000E+00  0.14898878012E+04  0.14898878012E+04  0.00000000000E+00 0. -1.
         21   -1    0    0  501  503 -0.00000000000E+00 -0.00000000000E+00 -0.28184187033E+02  0.28184187033E+02  0.00000000000E+00 0. -1.
         24    1    1    2    0    0 -0.20907219746E+02  0.12452954965E+03  0.32492085027E+03  0.35775060513E+03  0.80419002446E+02 0. -1.
          1    1    1    2  501    0  0.87180186585E+02 -0.72796269698E+02  0.32653846244E+03  0.34572684198E+03  0.00000000000E+00 0. -1.
         -2    1    1    2    0  502 -0.66272966839E+02 -0.51733279948E+02  0.81024430142E+03  0.81459454109E+03  0.00000000000E+00 0.  1.
<mgrwt>
<rscale>  2 0.17367847E+03</rscale>
<asrwt>0</asrwt>
<pdfrwt beam="1">  1       21 0.22921345E+00 0.17367847E+03</pdfrwt>
<pdfrwt beam="2">  1       21 0.43360299E-02 0.17367847E+03</pdfrwt>
<totfact> 0.30718080E+04</totfact>
</mgrwt>
</event>
<event>
 5    1  0.1855960E+000  0.7538052E+02  0.7546771E-02  0.1342697E+00
         21   -1    0    0  503  502  0.00000000000E+00  0.00000000000E+00  0.32663517995E+02  0.32663517995E+02  0.00000000000E+00 0. -1.
         21   -1    0    0  501  503 -0.00000000000E+00 -0.00000000000E+00 -0.19732907272E+03  0.19732907272E+03  0.00000000000E+00 0.  1.
         24    1    1    2    0    0  0.27547708432E+02  0.12622254881E+01 -0.52452428098E+02  0.99894657619E+02  0.80419002446E+02 0. -1.
          1    1    1    2  501    0 -0.32698390887E+02  0.23618924993E+02 -0.72040628907E+02  0.82564463286E+02  0.00000000000E+00 0. -1.
         -2    1    1    2    0  502  0.51506824551E+01 -0.24881150481E+02 -0.40172497717E+02  0.47533469806E+02  0.00000000000E+00 0.  1.
<mgrwt>
<rscale>  2 0.75380521E+02</rscale>
<asrwt>0</asrwt>
<pdfrwt beam="1">  1       21 0.50251566E-02 0.75380521E+02</pdfrwt>
<pdfrwt beam="2">  1       21 0.30358319E-01 0.75380521E+02</pdfrwt>
<totfact> 0.26913761E+06</totfact>
</mgrwt>
</event>
<event>
 5    1  0.1855960E+000  0.1204692E+03  0.7546771E-02  0.1242325E+00
         21   -1    0    0  501  502  0.00000000000E+00  0.00000000000E+00  0.50863341248E+02  0.50863341248E+02  0.00000000000E+00 0. -1.
         21   -1    0    0  502  503 -0.00000000000E+00 -0.00000000000E+00 -0.52303384993E+03  0.52303384993E+03  0.00000000000E+00 0.  1.
         24    1    1    2    0    0  0.25679891027E+02  0.41615710122E+02 -0.28960246285E+02  0.98474544687E+02  0.80419002446E+02 0. -1.
          1    1    1    2  501    0 -0.64369273037E+02 -0.72763577393E+02 -0.15474739237E+03  0.18271479675E+03  0.00000000000E+00 0. -1.
         -2    1    1    2    0  503  0.38689382010E+02  0.31147867270E+02 -0.28846287002E+03  0.29270784973E+03  0.00000000000E+00 0.  1.
<mgrwt>
<rscale>  2 0.12046919E+03</rscale>
<asrwt>0</asrwt>
<pdfrwt beam="1">  1       21 0.78251298E-02 0.12046919E+03</pdfrwt>
<pdfrwt beam="2">  1       21 0.80466742E-01 0.12046919E+03</pdfrwt>
<totfact> 0.17326902E+05</totfact>
</mgrwt>
</event>
<event>
 5    1  0.1855960E+000  0.7482064E+02  0.7546771E-02  0.1344427E+00
         21   -1    0    0  503  502  0.00000000000E+00  0.00000000000E+00  0.82522935755E+01  0.82522935755E+01  0.00000000000E+00 0.  1.
         21   -1    0    0  501  503 -0.00000000000E+00 -0.00000000000E+00 -0.13715064690E+04  0.13715064690E+04  0.00000000000E+00 0.  1.
         24    1    1    2    0    0 -0.28709649514E+02  0.55582823534E+01 -0.86654599174E+03  0.87076076521E+03  0.80419002446E+02 0.  1.
          1    1    1    2  501    0  0.22938049820E+02  0.24442270441E+02 -0.46008835077E+03  0.46130778145E+03  0.00000000000E+00 0. -1.
         -2    1    1    2    0  502  0.57715996935E+01 -0.30000552794E+02 -0.36619832914E+02  0.47690215911E+02  0.00000000000E+00 0.  1.
<mgrwt>
<rscale>  2 0.74820635E+02</rscale>
<asrwt>0</asrwt>
<pdfrwt beam="1">  1       21 0.12695841E-02 0.74820635E+02</pdfrwt>
<pdfrwt beam="2">  1       21 0.21100092E+00 0.74820635E+02</pdfrwt>
<totfact> 0.31340154E+05</totfact>
</mgrwt>
</event>
<event>
 5    1  0.1855960E+000  0.6984934E+02  0.7546771E-02  0.1360606E+00
         21   -1    0    0  503  502  0.00000000000E+00  0.00000000000E+00  0.34426292746E+03  0.34426292746E+03  0.00000000000E+00 0. -1.
         21   -1    0    0  501  503 -0.00000000000E+00 -0.00000000000E+00 -0.15122029179E+02  0.15122029179E+02  0.00000000000E+00 0.  1.
         24    1    1    2    0    0  0.30109133190E+02  0.32100802159E+02  0.20911337412E+03  0.22832573352E+03  0.80419002446E+02 0.  0.
          1    1    1    2  501    0 -0.53789356086E+01 -0.19578950053E+02  0.25756728609E+02  0.32797519755E+02  0.00000000000E+00 0. -1.
         -2    1    1    2    0  502 -0.24730197581E+02 -0.12521852106E+02  0.94270795558E+02  0.98261703363E+02  0.00000000000E+00 0.  1.
<mgrwt>
<rscale>  2 0.69849338E+02</rscale>
<asrwt>0</asrwt>
<pdfrwt beam="1">  1       21 0.52963521E-01 0.69849338E+02</pdfrwt>
<pdfrwt beam="2">  1       21 0.23264663E-02 0.69849338E+02</pdfrwt>
<totfact> 0.31340475E+06</totfact>
</mgrwt>
</event>
<event>
 5    1  0.1855960E+000  0.1010648E+03  0.7546771E-02  0.1278073E+00
         21   -1    0    0  501  502  0.00000000000E+00  0.00000000000E+00  0.11938064309E+03  0.11938064309E+03  0.00000000000E+00 0. -1.
         21   -1    0    0  502  503 -0.00000000000E+00 -0.00000000000E+00 -0.14051017847E+03  0.14051017847E+03  0.00000000000E+00 0.  1.
         24    1    1    2    0    0  0.53489066280E+02 -0.40442091652E+02 -0.35169237118E+01  0.10476749351E+03  0.80419002446E+02 0. -1.
          1    1    1    2  501    0 -0.32629307460E+02  0.60337394944E+02  0.47822752160E+02  0.83619905275E+02  0.00000000000E+00 0. -1.
         -2    1    1    2    0  503 -0.20859758820E+02 -0.19895303292E+02 -0.65435363819E+02  0.71503422780E+02  0.00000000000E+00 0.  1.
<mgrwt>
<rscale>  2 0.10106484E+03</rscale>
<asrwt>0</asrwt>
<pdfrwt beam="1">  1       21 0.18366253E-01 0.10106484E+03</pdfrwt>
<pdfrwt beam="2">  1       21 0.21616950E-01 0.10106484E+03</pdfrwt>
<totfact> 0.54406776E+05</totfact>
</mgrwt>
</event>
<event>
 5    1  0.1855960E+000  0.1004042E+03  0.7546771E-02  0.1279448E+00
         21   -1    0    0  501  502  0.00000000000E+00  0.00000000000E+00  0.36392470795E+02  0.36392470795E+02  0.00000000000E+00 0.  1.
         21   -1    0    0  502  503 -0.00000000000E+00 -0.00000000000E+00 -0.56962682685E+03  0.56962682685E+03  0.00000000000E+00 0.  1.
         24    1    1    2    0    0  0.26903861038E+02  0.73809551336E+02 -0.83361423370E+02  0.13995717369E+03  0.80419002446E+02 0.  1.
          1    1    1    2  501    0  0.23607931844E+01 -0.51583774802E+02 -0.85807867778E+02  0.10014713845E+03  0.00000000000E+00 0. -1.
         -2    1    1    2    0  503 -0.29264654222E+02 -0.22225776534E+02 -0.36406506491E+03  0.36591498551E+03  0.00000000000E+00 0.  1.
<mgrwt>
<rscale>  2 0.10040421E+03</rscale>
<asrwt>0</asrwt>
<pdfrwt beam="1">  1       21 0.55988424E-02 0.10040421E+03</pdfrwt>
<pdfrwt beam="2">  1       21 0.87634885E-01 0.10040421E+03</pdfrwt>
<totfact> 0.25422651E+05</totfact>
</mgrwt>
</event>
<event>
 5    1  0.1855960E+000  0.7637710E+02  0.7546771E-02  0.1339659E+00
         21   -1    0    0  501  502  0.00000000000E+00  0.00000000000E+00  0.10974932412E+03  0.10974932412E+03  0.00000000000E+00 0. -1.
         21   -1    0    0  502  503 -0.00000000000E+00 -0.00000000000E+00 -0.17917069700E+03  0.17917069700E+03  0.00000000000E+00 0.  1.
         24    1    1    2    0    0 -0.16377724190E+02  0.44933062321E+02 -0.69505793730E+02  0.11655677267E+03  0.80419002446E+02 0.  0.
          1    1    1    2  501    0 -0.72858239324E+01 -0.30748480973E+02  0.80961564376E+02  0.86909879868E+02  0.00000000000E+00 0. -1.
         -2    1    1    2    0  503  0.23663548122E+02 -0.14184581348E+02 -0.80877143522E+02  0.85453368582E+02  0.00000000000E+00 0.  1.
<mgrwt>
<rscale>  2 0.76377101E+02</rscale>
<asrwt>0</asrwt>
<pdfrwt beam="1">  1       21 0.16884511E-01 0.76377101E+02</pdfrwt>
<pdfrwt beam="2">  1       21 0.27564722E-01 0.76377101E+02</pdfrwt>
<totfact> 0.40273683E+05</totfact>
</mgrwt>
</event>
<event>
 5    1  0.1855960E+000  0.8477512E+02  0.7546771E-02  0.1316022E+00
         21   -1    0    0  501  502  0.00000000000E+00  0.00000000000E+00  0.87067356872E+02  0.87067356872E+02  0.00000000000E+00 0. -1.
         21   -1    0    0  502  503 -0.00000000000E+00 -0.00000000000E+00 -0.98275295232E+02  0.98275295232E+02  0.00000000000E+00 0. -1.
         24    1    1    2    0    0  0.39323287254E+01  0.64665776767E+02 -0.32819431506E+02  0.10835800355E+03  0.80419002446E+02 0. -1.
          1    1    1    2  501    0 -0.92387077167E+01 -0.41667129858E+02  0.29742636349E+02  0.52020456052E+02  0.00000000000E+00 0. -1.
         -2    1    1    2    0  503  0.53063789913E+01 -0.22998646909E+02 -0.81311432029E+01  0.24964192505E+02  0.00000000000E+00 0.  1.
<mgrwt>
<rscale>  2 0.84775122E+02</rscale>
<asrwt>0</asrwt>
<pdfrwt beam="1">  1       21 0.13394978E-01 0.84775122E+02</pdfrwt>
<pdfrwt beam="2">  1       21 0.15119276E-01 0.84775122E+02</pdfrwt>
<totfact> 0.18277796E+06</totfact>
</mgrwt>
</event>
<event>
 5    1  0.1855960E+000  0.6993306E+02  0.7546771E-02  0.1360321E+00
         21   -1    0    0  501  502  0.00000000000E+00  0.00000000000E+00  0.27954996887E+02  0.27954996887E+02  0.00000000000E+00 0.  1.
         21   -1    0    0  502  503 -0.00000000000E+00 -0.00000000000E+00 -0.29187824232E+03  0.29187824232E+03  0.00000000000E+00 0.  1.
         24    1    1    2    0    0 -0.43998335868E+02  0.51740969065E+01 -0.14102795054E+03  0.16828167941E+03  0.80419002446E+02 0.  1.
          1    1    1    2  501    0  0.25365328627E+02  0.63436379799E+01  0.57528583128E+00  0.26152869689E+02  0.00000000000E+00 0. -1.
         -2    1    1    2    0  503  0.18633007242E+02 -0.11517734886E+02 -0.12347058072E+03  0.12539869011E+03  0.00000000000E+00 0.  1.
<mgrwt>
<rscale>  2 0.69933060E+02</rscale>
<asrwt>0</asrwt>
<pdfrwt beam="1">  1       21 0.43007688E-02 0.69933060E+02</pdfrwt>
<pdfrwt beam="2">  1       21 0.44904344E-01 0.69933060E+02</pdfrwt>
<totfact> 0.16179260E+06</totfact>
</mgrwt>
</event>
<event>
 5    1  0.1855960E+000  0.1508766E+03  0.7546771E-02  0.1199400E+00
         21   -1    0    0  503  502  0.00000000000E+00  0.00000000000E+00  0.93409116568E+02  0.93409116568E+02  0.00000000000E+00 0.  1.
         21   -1    0    0  501  503 -0.00000000000E+00 -0.00000000000E+00 -0.34517530836E+03  0.34517530836E+03  0.00000000000E+00 0. -1.
         24    1    1    2    0    0  0.12129705156E+01 -0.13700028180E+03 -0.13027993938E+03  0.20545225010E+03  0.80419002446E+02 0.  1.
          1    1    1    2  501    0 -0.17582869498E+02  0.31058022932E+02 -0.12076700404E+03  0.12593024796E+03  0.00000000000E+00 0. -1.
         -2    1    1    2    0  502  0.16369898982E+02  0.10594225886E+03 -0.71924837147E+00  0.10720192687E+03  0.00000000000E+00 0.  1.
<mgrwt>
<rscale>  2 0.15087662E+03</rscale>
<asrwt>0</asrwt>
<pdfrwt beam="1">  1       21 0.14370633E-01 0.15087662E+03</pdfrwt>
<pdfrwt beam="2">  1       21 0.53103894E-01 0.15087662E+03</pdfrwt>
<totfact> 0.14445297E+05</totfact>
</mgrwt>
</event>
<event>
 5    1  0.1855960E+000  0.9417987E+02  0.7546771E-02  0.1293034E+00
         21   -1    0    0  503  502  0.00000000000E+00  0.00000000000E+00  0.29659625006E+02  0.29659625006E+02  0.00000000000E+00 0.  1.
         21   -1    0    0  501  503 -0.00000000000E+00 -0.00000000000E+00 -0.77147018657E+03  0.77147018657E+03  0.00000000000E+00 0. -1.
         24    1    1    2    0    0 -0.35926588801E+02  0.67523968699E+02 -0.18450871962E+03  0.21531579064E+03  0.80419002446E+02 0. -1.
          1    1    1    2  501    0  0.28004342245E+02 -0.40680132455E+02 -0.55558199529E+03  0.55777277618E+03  0.00000000000E+00 0. -1.
         -2    1    1    2    0  502  0.79222465556E+01 -0.26843836245E+02 -0.17198466631E+01  0.28041244754E+02  0.00000000000E+00 0.  1.
<mgrwt>
<rscale>  2 0.94179873E+02</rscale>
<asrwt>0</asrwt>
<pdfrwt beam="1">  1       21 0.45630196E-02 0.94179873E+02</pdfrwt>
<pdfrwt beam="2">  1       21 0.11868771E+00 0.94179873E+02</pdfrwt>
<totfact> 0.17693874E+05</totfact>
</mgrwt>
</event>
<event>
 5    1  0.1855960E+000  0.6625606E+02  0.7546771E-02  0.1373308E+00
         21   -1    0    0  503  502  0.00000000000E+00  0.00000000000E+00  0.98600104652E+02  0.98600104652E+02  0.00000000000E+00 0. -1.
         21   -1    0    0  501  503 -0.00000000000E+00 -0.00000000000E+00 -0.92433772099E+02  0.92433772099E+02  0.00000000000E+00 0.  1.
         24    1    1    2    0    0  0.44281330609E+01  0.97579067510E+01  0.20552445880E+02  0.83692556972E+02  0.80419002446E+02 0. -1.
          1    1    1    2  501    0 -0.36587355994E+00  0.20675642603E+02 -0.53650416526E+02  0.57497680423E+02  0.00000000000E+00 0. -1.
         -2    1    1    2    0  502 -0.40622595009E+01 -0.30433549354E+02  0.39264303199E+02  0.49843639356E+02  0.00000000000E+00 0.  1.
<mgrwt>
<rscale>  2 0.66256063E+02</rscale>
<asrwt>0</asrwt>
<pdfrwt beam="1">  1       21 0.15169247E-01 0.66256063E+02</pdfrwt>
<pdfrwt beam="2">  1       21 0.14220580E-01 0.66256063E+02</pdfrwt>
<totfact> 0.16181391E+06</totfact>
</mgrwt>
</event>
<event>
 5    1  0.1855960E+000  0.1098913E+03  0.7546771E-02  0.1260771E+00
         21   -1    0    0  503  502  0.00000000000E+00  0.00000000000E+00  0.47884333125E+03  0.47884333125E+03  0.00000000000E+00 0.  1.
         21   -1    0    0  501  503 -0.00000000000E+00 -0.00000000000E+00 -0.65292423064E+02  0.65292423064E+02  0.00000000000E+00 0. -1.
         24    1    1    2    0    0 -0.35108092558E+02  0.57762366329E+02  0.25385816337E+03  0.27473669612E+03  0.80419002446E+02 0.  0.
          1    1    1    2  501    0 -0.49437323111E+01  0.23562901344E+02 -0.41920800937E+02  0.48342572957E+02  0.00000000000E+00 0. -1.
         -2    1    1    2    0  502  0.40051824869E+02 -0.81325267673E+02  0.20161354575E+03  0.22105648525E+03  0.00000000000E+00 0.  1.
<mgrwt>
<rscale>  2 0.10989128E+03</rscale>
<asrwt>0</asrwt>
<pdfrwt beam="1">  1       21 0.73668203E-01 0.10989128E+03</pdfrwt>
<pdfrwt beam="2">  1       21 0.10044988E-01 0.10989128E+03</pdfrwt>
<totfact> 0.13724856E+05</totfact>
</mgrwt>
</event>
<event>
 5    1  0.1855960E+000  0.1271977E+03  0.7546771E-02  0.1231674E+00
         21   -1    0    0  503  502  0.00000000000E+00  0.00000000000E+00  0.18087904142E+03  0.18087904142E+03  0.00000000000E+00 0.  1.
         21   -1    0    0  501  503 -0.00000000000E+00 -0.00000000000E+00 -0.33316528072E+03  0.33316528072E+03  0.00000000000E+00 0.  1.
         24    1    1    2    0    0  0.94234508703E+02  0.33830059335E+02 -0.70642426299E+02  0.14656801797E+03  0.80419002446E+02 0.  1.
          1    1    1    2  501    0 -0.12304192056E+02  0.23123733098E+02 -0.20621371732E+03  0.20787062656E+03  0.00000000000E+00 0. -1.
         -2    1    1    2    0  502 -0.81930316647E+02 -0.56953792433E+02  0.12456990432E+03  0.15960567760E+03  0.00000000000E+00 0.  1.
<mgrwt>
<rscale>  2 0.12719768E+03</rscale>
<asrwt>0</asrwt>
<pdfrwt beam="1">  1       21 0.27827545E-01 0.12719768E+03</pdfrwt>
<pdfrwt beam="2">  1       21 0.51256196E-01 0.12719768E+03</pdfrwt>
<totfact> 0.46140947E+04</totfact>
</mgrwt>
</event>
<event>
 5    1  0.1855960E+000  0.6729923E+02  0.7546771E-02  0.1369526E+00
         21   -1    0    0  501  502  0.00000000000E+00  0.00000000000E+00  0.47691919311E+02  0.47691919311E+02  0.00000000000E+00 0. -1.
         21   -1    0    0  502  503 -0.00000000000E+00 -0.00000000000E+00 -0.41872139713E+03  0.41872139713E+03  0.00000000000E+00 0. -1.
         24    1    1    2    0    0 -0.33426478670E+02  0.58371494137E+01 -0.36954026576E+03  0.37970860638E+03  0.80419002446E+02 0. -1.
          1    1    1    2  501    0  0.24027535598E+02  0.12220349177E+02  0.35445530573E+02  0.44531393853E+02  0.00000000000E+00 0. -1.
         -2    1    1    2    0  503  0.93989430727E+01 -0.18057498591E+02 -0.36934742630E+02  0.42173316201E+02  0.00000000000E+00 0.  1.
<mgrwt>
<rscale>  2 0.67299230E+02</rscale>
<asrwt>0</asrwt>
<pdfrwt beam="1">  1       21 0.73372188E-02 0.67299230E+02</pdfrwt>
<pdfrwt beam="2">  1       21 0.64418672E-01 0.67299230E+02</pdfrwt>
<totfact> 0.31777212E+05</totfact>
</mgrwt>
</event>
<event>
 5    1  0.1855960E+000  0.7364373E+02  0.7546771E-02  0.1348123E+00
         21   -1    0    0  501  502  0.00000000000E+00  0.00000000000E+00  0.43230877383E+02  0.43230877383E+02  0.00000000000E+00 0. -1.
         21   -1    0    0  502  503 -0.00000000000E+00 -0.00000000000E+00 -0.18821868503E+03  0.18821868503E+03  0.00000000000E+00 0. -1.
         24    1    1    2    0    0 -0.26636809453E+02  0.35045255626E+02 -0.10836691316E+03  0.14194468423E+03  0.80419002446E+02 0. -1.
          1    1    1    2  501    0  0.21551672449E+02 -0.14165359209E+01  0.15979368926E+02  0.26866733904E+02  0.00000000000E+00 0. -1.
         -2    1    1    2    0  503  0.50851370033E+01 -0.33628719705E+02 -0.52600263409E+02  0.62638144273E+02  0.00000000000E+00 0.  1.
<mgrwt>
<rscale>  2 0.73643733E+02</rscale>
<asrwt>0</asrwt>
<pdfrwt beam="1">  1       21 0.66509041E-02 0.73643733E+02</pdfrwt>
<pdfrwt beam="2">  1       21 0.28956721E-01 0.73643733E+02</pdfrwt>
<totfact> 0.18421377E+06</totfact>
</mgrwt>
</event>
<event>
 5    1  0.1855960E+000  0.8831670E+02  0.7546771E-02  0.1306980E+00
         21   -1    0    0  503  502  0.00000000000E+00  0.00000000000E+00  0.56046891635E+02  0.56046891635E+02  0.00000000000E+00 0.  1.
         21   -1    0    0  501  503 -0.00000000000E+00 -0.00000000000E+00 -0.14165661210E+03  0.14165661210E+03  0.00000000000E+00 0. -1.
         24    1    1    2    0    0  0.10674335272E+02  0.59880521066E+02 -0.38846035070E+02  0.10805484085E+03  0.80419002446E+02 0.  0.
          1    1    1    2  501    0 -0.25101203862E+02 -0.16381668860E+02 -0.24424773679E+02  0.38665217952E+02  0.00000000000E+00 0. -1.
         -2    1    1    2    0  502  0.14426868590E+02 -0.43498852206E+02 -0.22338911721E+02  0.50983444935E+02  0.00000000000E+00 0.  1.
<mgrwt>
<rscale>  2 0.88316699E+02</rscale>
<asrwt>0</asrwt>
<pdfrwt beam="1">  1       21 0.86225988E-02 0.88316699E+02</pdfrwt>
<pdfrwt beam="2">  1       21 0.21793325E-01 0.88316699E+02</pdfrwt>
<totfact> 0.20305186E+06</totfact>
</mgrwt>
</event>
<event>
 5    1  0.1855960E+000  0.9999097E+02  0.7546771E-02  0.1280315E+00
         21   -1    0    0  503  502  0.00000000000E+00  0.00000000000E+00  0.15138447795E+03  0.15138447795E+03  0.00000000000E+00 0.  1.
         21   -1    0    0  501  503 -0.00000000000E+00 -0.00000000000E+00 -0.13840345808E+03  0.13840345808E+03  0.00000000000E+00 0. -1.
         24    1    1    2    0    0 -0.10510658951E+02  0.59532298149E+02  0.73833277071E+02  0.12479237650E+03  0.80419002446E+02 0.  1.
          1    1    1    2  501    0  0.86296495883E+01  0.18974925697E+02 -0.81232440568E+02  0.83864343185E+02  0.00000000000E+00 0. -1.
         -2    1    1    2    0  502  0.18810093630E+01 -0.78507223847E+02  0.20380183364E+02  0.81131216349E+02  0.00000000000E+00 0.  1.
<mgrwt>
<rscale>  2 0.99990973E+02</rscale>
<asrwt>0</asrwt>
<pdfrwt beam="1">  1       21 0.23289920E-01 0.99990973E+02</pdfrwt>
<pdfrwt beam="2">  1       21 0.21292840E-01 0.99990973E+02</pdfrwt>
<totfact> 0.36122740E+05</totfact>
</mgrwt>
</event>
<event>
 5    1  0.1855960E+000  0.7715252E+02  0.7546771E-02  0.1337332E+00
         21   -1    0    0  503  502  0.00000000000E+00  0.00000000000E+00  0.32347375588E+02  0.32347375588E+02  0.00000000000E+00 0.  1.
         21   -1    0    0  501  503 -0.00000000000E+00 -0.00000000000E+00 -0.20500327087E+03  0.20500327087E+03  0.00000000000E+00 0.  1.
         24    1    1    2    0    0 -0.37222726645E+02 -0.55844178442E+01 -0.97723516322E+02  0.13203718680E+03  0.80419002446E+02 0.  1.
          1    1    1    2  501    0  0.40907464327E+01 -0.22015172882E+02 -0.51679426259E+02  0.56321977432E+02  0.00000000000E+00 0. -1.
         -2    1    1    2    0  502  0.33131980212E+02  0.27599590727E+02 -0.23252952698E+02  0.48991482222E+02  0.00000000000E+00 0.  1.
<mgrwt>
<rscale>  2 0.77152522E+02</rscale>
<asrwt>0</asrwt>
<pdfrwt beam="1">  1       21 0.49765194E-02 0.77152522E+02</pdfrwt>
<pdfrwt beam="2">  1       21 0.31538964E-01 0.77152522E+02</pdfrwt>
<totfact> 0.25460742E+06</totfact>
</mgrwt>
</event>
<event>
 5    1  0.1855960E+000  0.9407937E+02  0.7546771E-02  0.1293263E+00
         21   -1    0    0  503  502  0.00000000000E+00  0.00000000000E+00  0.65820615060E+02  0.65820615060E+02  0.00000000000E+00 0. -1.
         21   -1    0    0  501  503 -0.00000000000E+00 -0.00000000000E+00 -0.34309794672E+03  0.34309794672E+03  0.00000000000E+00 0. -1.
         24    1    1    2    0    0 -0.64817828805E+01 -0.74993204792E+02 -0.34750637757E+02  0.11550245475E+03  0.80419002446E+02 0. -1.
          1    1    1    2  501    0 -0.61609336478E+01  0.45554495292E+02 -0.25494404833E+03  0.25905527774E+03  0.00000000000E+00 0. -1.
         -2    1    1    2    0  502  0.12642716528E+02  0.29438709501E+02  0.12417354431E+02  0.34360829288E+02  0.00000000000E+00 0.  1.
<mgrwt>
<rscale>  2 0.94079367E+02</rscale>
<asrwt>0</asrwt>
<pdfrwt beam="1">  1       21 0.10126248E-01 0.94079367E+02</pdfrwt>
<pdfrwt beam="2">  1       21 0.52784300E-01 0.94079367E+02</pdfrwt>
<totfact> 0.27606182E+05</totfact>
</mgrwt>
</event>
<event>
 5    1  0.1855960E+000  0.1185452E+03  0.7546771E-02  0.1245517E+00
         21   -1    0    0  501  502  0.00000000000E+00  0.00000000000E+00  0.97652235357E+03  0.97652235357E+03  0.00000000000E+00 0. -1.
         21   -1    0    0  502  503 -0.00000000000E+00 -0.00000000000E+00 -0.44235927197E+02  0.44235927197E+02  0.00000000000E+00 0.  1.
         24    1    1    2    0    0 -0.19935291393E+01  0.10365166842E+03  0.34083553748E+03  0.36521736280E+03  0.80419002446E+02 0.  0.
          1    1    1    2  501    0  0.10050022021E+02 -0.84668667169E+02  0.61691197241E+03  0.62277617796E+03  0.00000000000E+00 0. -1.
         -2    1    1    2    0  503 -0.80564928814E+01 -0.18983001248E+02 -0.25461083513E+02  0.32764740005E+02  0.00000000000E+00 0.  1.
<mgrwt>
<rscale>  2 0.11854516E+03</rscale>
<asrwt>0</asrwt>
<pdfrwt beam="1">  1       21 0.15023419E+00 0.11854516E+03</pdfrwt>
<pdfrwt beam="2">  1       21 0.68055280E-02 0.11854516E+03</pdfrwt>
<totfact> 0.49504041E+04</totfact>
</mgrwt>
</event>
<event>
 5    1  0.1855960E+000  0.1161338E+03  0.7546771E-02  0.1249615E+00
         21   -1    0    0  501  502  0.00000000000E+00  0.00000000000E+00  0.51183444885E+02  0.51183444885E+02  0.00000000000E+00 0. -1.
         21   -1    0    0  502  503 -0.00000000000E+00 -0.00000000000E+00 -0.40054229065E+03  0.40054229065E+03  0.00000000000E+00 0. -1.
         24    1    1    2    0    0  0.31765561488E+02 -0.72529236832E+02 -0.80009151960E+02  0.13834096083E+03  0.80419002446E+02 0. -1.
          1    1    1    2  501    0  0.25021784458E+02  0.54268457854E+02 -0.30293964852E+02  0.66999100903E+02  0.00000000000E+00 0. -1.
         -2    1    1    2    0  503 -0.56787345945E+02  0.18260778978E+02 -0.23905572895E+03  0.24638567380E+03  0.00000000000E+00 0.  1.
<mgrwt>
<rscale>  2 0.11613376E+03</rscale>
<asrwt>0</asrwt>
<pdfrwt beam="1">  1       21 0.78743761E-02 0.11613376E+03</pdfrwt>
<pdfrwt beam="2">  1       21 0.61621891E-01 0.11613376E+03</pdfrwt>
<totfact> 0.30684235E+05</totfact>
</mgrwt>
</event>
<event>
 5    1  0.1855960E+000  0.6457597E+02  0.7546771E-02  0.1379574E+00
         21   -1    0    0  503  502  0.00000000000E+00  0.00000000000E+00  0.17311864870E+03  0.17311864870E+03  0.00000000000E+00 0.  1.
         21   -1    0    0  501  503 -0.00000000000E+00 -0.00000000000E+00 -0.41466859991E+02  0.41466859991E+02  0.00000000000E+00 0. -1.
         24    1    1    2    0    0  0.20623395514E+02 -0.99668808733E+01  0.55888010305E+02  0.10057509039E+03  0.80419002446E+02 0.  0.
          1    1    1    2  501    0 -0.41943186116E+01  0.23732751612E+02 -0.96407909811E+01  0.25957285267E+02  0.00000000000E+00 0. -1.
         -2    1    1    2    0  502 -0.16429076903E+02 -0.13765870739E+02  0.85404569386E+02  0.88053133034E+02  0.00000000000E+00 0.  1.
<mgrwt>
<rscale>  2 0.64575966E+02</rscale>
<asrwt>0</asrwt>
<pdfrwt beam="1">  1       21 0.26633638E-01 0.64575966E+02</pdfrwt>
<pdfrwt beam="2">  1       21 0.63795170E-02 0.64575966E+02</pdfrwt>
<totfact> 0.22959421E+06</totfact>
</mgrwt>
</event>
<event>
 5    1  0.1855960E+000  0.7318000E+02  0.7546771E-02  0.1349601E+00
         21   -1    0    0  501  502  0.00000000000E+00  0.00000000000E+00  0.52417712306E+02  0.52417712306E+02  0.00000000000E+00 0.  1.
         21   -1    0    0  502  503 -0.00000000000E+00 -0.00000000000E+00 -0.22806338929E+03  0.22806338929E+03  0.00000000000E+00 0.  1.
         24    1    1    2    0    0 -0.12340246117E+02  0.15423754831E+02 -0.11236195398E+02  0.83568187301E+02  0.80419002446E+02 0.  1.
          1    1    1    2  501    0 -0.23635881825E+02  0.17203216851E+01  0.38404935613E+01  0.24007578119E+02  0.00000000000E+00 0. -1.
         -2    1    1    2    0  503  0.35976127942E+02 -0.17144076516E+02 -0.16824997515E+03  0.17290533618E+03  0.00000000000E+00 0.  1.
<mgrwt>
<rscale>  2 0.73180003E+02</rscale>
<asrwt>0</asrwt>
<pdfrwt beam="1">  1       21 0.80642636E-02 0.73180003E+02</pdfrwt>
<pdfrwt beam="2">  1       21 0.35086675E-01 0.73180003E+02</pdfrwt>
<totfact> 0.92141800E+05</totfact>
</mgrwt>
</event>
<event>
 5    1  0.1855960E+000  0.1030492E+03  0.7546771E-02  0.1274012E+00
         21   -1    0    0  501  502  0.00000000000E+00  0.00000000000E+00  0.96140780355E+02  0.96140780355E+02  0.00000000000E+00 0.  1.
         21   -1    0    0  502  503 -0.00000000000E+00 -0.00000000000E+00 -0.12437056095E+03  0.12437056095E+03  0.00000000000E+00 0.  1.
         24    1    1    2    0    0  0.81841709788E+02  0.30508861135E+02  0.14827729672E+02  0.11964921057E+03  0.80419002446E+02 0.  1.
          1    1    1    2  501    0 -0.23493477460E+02 -0.76912552453E+01  0.21214407509E+00  0.24721324712E+02  0.00000000000E+00 0. -1.
         -2    1    1    2    0  503 -0.58348232328E+02 -0.22817605890E+02 -0.43269654338E+02  0.76140806017E+02  0.00000000000E+00 0.  1.
<mgrwt>
<rscale>  2 0.10304919E+03</rscale>
<asrwt>0</asrwt>
<pdfrwt beam="1">  1       21 0.14790889E-01 0.10304919E+03</pdfrwt>
<pdfrwt beam="2">  1       21 0.19133932E-01 0.10304919E+03</pdfrwt>
<totfact> 0.10068900E+06</totfact>
</mgrwt>
</event>
<event>
 5    1  0.1855960E+000  0.9502799E+02  0.7546771E-02  0.1291113E+00
         21   -1    0    0  503  502  0.00000000000E+00  0.00000000000E+00  0.60368062887E+03  0.60368062887E+03  0.00000000000E+00 0.  1.
         21   -1    0    0  501  503 -0.00000000000E+00 -0.00000000000E+00 -0.16584205133E+02  0.16584205133E+02  0.00000000000E+00 0.  1.
         24    1    1    2    0    0  0.81164578658E-01  0.45590302910E+02  0.19629713974E+03  0.21697526433E+03  0.80419002446E+02 0.  0.
          1    1    1    2  501    0  0.34033996935E+02 -0.52729217989E+02  0.21067393673E+03  0.21982309022E+03  0.00000000000E+00 0. -1.
         -2    1    1    2    0  502 -0.34115161514E+02  0.71389150790E+01  0.18012534727E+03  0.18346647946E+03  0.00000000000E+00 0.  1.
<mgrwt>
<rscale>  2 0.95027989E+02</rscale>
<asrwt>0</asrwt>
<pdfrwt beam="1">  1       21 0.92873926E-01 0.95027989E+02</pdfrwt>
<pdfrwt beam="2">  1       21 0.25514166E-02 0.95027989E+02</pdfrwt>
<totfact> 0.81328705E+05</totfact>
</mgrwt>
</event>
<event>
 5    1  0.1855960E+000  0.1219998E+03  0.7546771E-02  0.1239834E+00
         21   -1    0    0  503  502  0.00000000000E+00  0.00000000000E+00  0.77537941229E+03  0.77537941229E+03  0.00000000000E+00 0. -1.
         21   -1    0    0  501  503 -0.00000000000E+00 -0.00000000000E+00 -0.74137732389E+02  0.74137732389E+02  0.00000000000E+00 0.  1.
         24    1    1    2    0    0 -0.77064857892E+01 -0.68190096708E+02 -0.13088733823E+02  0.10652610065E+03  0.80419002446E+02 0.  1.
          1    1    1    2  501    0 -0.56090807605E+02  0.37610790409E+02  0.79852311517E+02  0.10458079129E+03  0.00000000000E+00 0. -1.
         -2    1    1    2    0  502  0.63797293394E+02  0.30579306299E+02  0.63447810221E+03  0.63841025274E+03  0.00000000000E+00 0.  1.
<mgrwt>
<rscale>  2 0.12199981E+03</rscale>
<asrwt>0</asrwt>
<pdfrwt beam="1">  1       21 0.11928914E+00 0.12199981E+03</pdfrwt>
<pdfrwt beam="2">  1       21 0.11405805E-01 0.12199981E+03</pdfrwt>
<totfact> 0.35967576E+04</totfact>
</mgrwt>
</event>
<event>
 5    1  0.1855960E+000  0.1057046E+03  0.7546771E-02  0.1268738E+00
         21   -1    0    0  503  502  0.00000000000E+00  0.00000000000E+00  0.39859221096E+02  0.39859221096E+02  0.00000000000E+00 0.  1.
         21   -1    0    0  501  503 -0.00000000000E+00 -0.00000000000E+00 -0.53781639941E+03  0.53781639941E+03  0.00000000000E+00 0. -1.
         24    1    1    2    0    0  0.87328335461E+02  0.23099180836E+02 -0.15982789410E+03  0.20042949388E+03  0.80419002446E+02 0.  1.
          1    1    1    2  501    0 -0.24628745754E+02 -0.42277665884E+01 -0.30087685156E+03  0.30191278365E+03  0.00000000000E+00 0. -1.
         -2    1    1    2    0  502 -0.62699589708E+02 -0.18871414248E+02 -0.37252432656E+02  0.75333342977E+02  0.00000000000E+00 0.  1.
<mgrwt>
<rscale>  2 0.10570461E+03</rscale>
<asrwt>0</asrwt>
<pdfrwt beam="1">  1       21 0.61321881E-02 0.10570461E+03</pdfrwt>
<pdfrwt beam="2">  1       21 0.82740981E-01 0.10570461E+03</pdfrwt>
<totfact> 0.24779287E+05</totfact>
</mgrwt>
</event>
<event>
 5    1  0.1855960E+000  0.1243937E+03  0.7546771E-02  0.1236020E+00
         21   -1    0    0  501  502  0.00000000000E+00  0.00000000000E+00  0.30410463109E+03  0.30410463109E+03  0.00000000000E+00 0.  1.
         21   -1    0    0  502  503 -0.00000000000E+00 -0.00000000000E+00 -0.69109848467E+02  0.69109848467E+02  0.00000000000E+00 0.  1.
         24    1    1    2    0    0 -0.91100151055E+02  0.61428488498E+02  0.19312752675E+03  0.23630098236E+03  0.80419002446E+02 0.  1.
          1    1    1    2  501    0  0.18488718603E+02 -0.25810518091E+02  0.46043757379E+02  0.55928911604E+02  0.00000000000E+00 0. -1.
         -2    1    1    2    0  503  0.72611432452E+02 -0.35617970407E+02 -0.41765015060E+01  0.80984585592E+02  0.00000000000E+00 0.  1.
<mgrwt>
<rscale>  2 0.12439371E+03</rscale>
<asrwt>0</asrwt>
<pdfrwt beam="1">  1       21 0.46785327E-01 0.12439371E+03</pdfrwt>
<pdfrwt beam="2">  1       21 0.10632285E-01 0.12439371E+03</pdfrwt>
<totfact> 0.32280631E+05</totfact>
</mgrwt>
</event>
<event>
 5    1  0.1855960E+000  0.1096443E+03  0.7546771E-02  0.1261230E+00
         21   -1    0    0  503  502  0.00000000000E+00  0.00000000000E+00  0.10304662497E+03  0.10304662497E+03  0.00000000000E+00 0.  1.
         21   -1    0    0  501  503 -0.00000000000E+00 -0.00000000000E+00 -0.43018709026E+03  0.43018709026E+03  0.00000000000E+00 0. -1.
         24    1    1    2    0    0  0.12320600661E+02  0.51285072353E+02 -0.18983640075E+03  0.21280749717E+03  0.80419002446E+02 0. -1.
          1    1    1    2  501    0  0.37052669562E+02 -0.62340084884E+02 -0.21545183717E+03  0.22732945397E+03  0.00000000000E+00 0. -1.
         -2    1    1    2    0  502 -0.49373270223E+02  0.11055012531E+02  0.78147772635E+02  0.93096764082E+02  0.00000000000E+00 0.  1.
<mgrwt>
<rscale>  2 0.10964432E+03</rscale>
<asrwt>0</asrwt>
<pdfrwt beam="1">  1       21 0.15853327E-01 0.10964432E+03</pdfrwt>
<pdfrwt beam="2">  1       21 0.66182630E-01 0.10964432E+03</pdfrwt>
<totfact> 0.77167760E+04</totfact>
</mgrwt>
</event>
<event>
 5    1  0.1855960E+000  0.9090584E+02  0.7546771E-02  0.1300673E+00
         21   -1    0    0  503  502  0.00000000000E+00  0.00000000000E+00  0.17980578605E+02  0.17980578605E+02  0.00000000000E+00 0. -1.
         21   -1    0    0  501  503 -0.00000000000E+00 -0.00000000000E+00 -0.67189076954E+03  0.67189076954E+03  0.00000000000E+00 0.  1.
         24    1    1    2    0    0 -0.74270176764E+01  0.57852889323E+02 -0.53125157769E+03  0.54046051859E+03  0.80419002446E+02 0.  1.
          1    1    1    2  501    0 -0.16789442319E+02 -0.55676749439E+02 -0.10241077954E+03  0.11776991793E+03  0.00000000000E+00 0. -1.
         -2    1    1    2    0  502  0.24216459995E+02 -0.21761398837E+01 -0.20247833696E+02  0.31640911631E+02  0.00000000000E+00 0.  1.
<mgrwt>
<rscale>  2 0.90905841E+02</rscale>
<asrwt>0</asrwt>
<pdfrwt beam="1">  1       21 0.27662426E-02 0.90905841E+02</pdfrwt>
<pdfrwt beam="2">  1       21 0.10336782E+00 0.90905841E+02</pdfrwt>
<totfact> 0.55759832E+05</totfact>
</mgrwt>
</event>
<event>
 5    1  0.1855960E+000  0.7640021E+02  0.7546771E-02  0.1339589E+00
         21   -1    0    0  501  502  0.00000000000E+00  0.00000000000E+00  0.13279261935E+03  0.13279261935E+03  0.00000000000E+00 0.  1.
         21   -1    0    0  502  503 -0.00000000000E+00 -0.00000000000E+00 -0.44721236203E+02  0.44721236203E+02  0.00000000000E+00 0. -1.
         24    1    1    2    0    0  0.49682242146E+01 -0.19052816090E+00  0.35657361553E+02  0.88110061515E+02  0.80419002446E+02 0.  0.
          1    1    1    2  501    0 -0.31805138737E+02 -0.20932357705E+02  0.24306930011E+02  0.45172528108E+02  0.00000000000E+00 0. -1.
         -2    1    1    2    0  503  0.26836914522E+02  0.21122885865E+02  0.28107091579E+02  0.44231265926E+02  0.00000000000E+00 0.  1.
<mgrwt>
<rscale>  2 0.76400209E+02</rscale>
<asrwt>0</asrwt>
<pdfrwt beam="1">  1       21 0.20429634E-01 0.76400209E+02</pdfrwt>
<pdfrwt beam="2">  1       21 0.68801903E-02 0.76400209E+02</pdfrwt>
<totfact> 0.33313617E+06</totfact>
</mgrwt>
</event>
<event>
 5    1  0.1855960E+000  0.8340138E+02  0.7546771E-02  0.1319667E+00
         21   -1    0    0  501  502  0.00000000000E+00  0.00000000000E+00  0.16275043112E+03  0.16275043112E+03  0.00000000000E+00 0. -1.
         21   -1    0    0  502  503 -0.00000000000E+00 -0.00000000000E+00 -0.45757591560E+02  0.45757591560E+02  0.00000000000E+00 0.  1.
         24    1    1    2    0    0 -0.33990131539E+02  0.72758151163E+01  0.34681142888E+02  0.94224541145E+02  0.80419002446E+02 0.  0.
          1    1    1    2  501    0  0.34074245858E+01  0.30443262875E+02  0.34485570902E+02  0.46126536801E+02  0.00000000000E+00 0. -1.
         -2    1    1    2    0  503  0.30582706953E+02 -0.37719077992E+02  0.47826125767E+02  0.68156944730E+02  0.00000000000E+00 0.  1.
<mgrwt>
<rscale>  2 0.83401376E+02</rscale>
<asrwt>0</asrwt>
<pdfrwt beam="1">  1       21 0.25038527E-01 0.83401376E+02</pdfrwt>
<pdfrwt beam="2">  1       21 0.70396296E-02 0.83401376E+02</pdfrwt>
<totfact> 0.22114453E+06</totfact>
</mgrwt>
</event>
<event>
 5    1  0.1855960E+000  0.8541098E+02  0.7546771E-02  0.1314361E+00
         21   -1    0    0  501  502  0.00000000000E+00  0.00000000000E+00  0.47799748062E+02  0.47799748062E+02  0.00000000000E+00 0.  1.
         21   -1    0    0  502  503 -0.00000000000E+00 -0.00000000000E+00 -0.16561805089E+03  0.16561805089E+03  0.00000000000E+00 0. -1.
         24    1    1    2    0    0 -0.11803305833E+02 -0.24399933681E+02 -0.52647344252E+02  0.99868081004E+02  0.80419002446E+02 0. -1.
          1    1    1    2  501    0  0.75327782184E+00 -0.30221077413E+02 -0.35036128897E+01  0.30432815360E+02  0.00000000000E+00 0. -1.
         -2    1    1    2    0  503  0.11050028011E+02  0.54621011094E+02 -0.61667345686E+02  0.83116902589E+02  0.00000000000E+00 0.  1.
<mgrwt>
<rscale>  2 0.85410976E+02</rscale>
<asrwt>0</asrwt>
<pdfrwt beam="1">  1       21 0.73538075E-02 0.85410976E+02</pdfrwt>
<pdfrwt beam="2">  1       21 0.25479700E-01 0.85410976E+02</pdfrwt>
<totfact> 0.19898119E+06</totfact>
</mgrwt>
</event>
<event>
 5    1  0.1855960E+000  0.1400676E+03  0.7546771E-02  0.1213238E+00
         21   -1    0    0  503  502  0.00000000000E+00  0.00000000000E+00  0.34518451350E+03  0.34518451350E+03  0.00000000000E+00 0.  1.
         21   -1    0    0  501  503 -0.00000000000E+00 -0.00000000000E+00 -0.10149829905E+03  0.10149829905E+03  0.00000000000E+00 0. -1.
         24    1    1    2    0    0 -0.39354457798E+02  0.86336244635E+02  0.20232576958E+03  0.23749874416E+03  0.80419002446E+02 0.  1.
          1    1    1    2  501    0  0.75191597925E+02 -0.92698126730E+02 -0.35175017180E+02  0.12443472558E+03  0.00000000000E+00 0. -1.
         -2    1    1    2    0  502 -0.35837140128E+02  0.63618820952E+01  0.76535462049E+02  0.84749342814E+02  0.00000000000E+00 0.  1.
<mgrwt>
<rscale>  2 0.14006763E+03</rscale>
<asrwt>0</asrwt>
<pdfrwt beam="1">  1       21 0.53105309E-01 0.14006763E+03</pdfrwt>
<pdfrwt beam="2">  1       21 0.15615123E-01 0.14006763E+03</pdfrwt>
<totfact> 0.12474149E+05</totfact>
</mgrwt>
</event>
<event>
 5    1  0.1855960E+000  0.1024087E+03  0.7546771E-02  0.1275311E+00
         21   -1    0    0  501  502  0.00000000000E+00  0.00000000000E+00  0.66573360747E+03  0.66573360747E+03  0.00000000000E+00 0. -1.
         21   -1    0    0  502  503 -0.00000000000E+00 -0.00000000000E+00 -0.17717226487E+02  0.17717226487E+02  0.00000000000E+00 0.  1.
         24    1    1    2    0    0 -0.53771322515E+02  0.29685747495E+02  0.20761783191E+03  0.23096531950E+03  0.80419002446E+02 0.  1.
          1    1    1    2  501    0  0.74800754769E+02 -0.11216442668E+02  0.33516718085E+03  0.34359569354E+03  0.00000000000E+00 0. -1.
         -2    1    1    2    0  503 -0.21029432254E+02 -0.18469304826E+02  0.10523136822E+03  0.10888982092E+03  0.00000000000E+00 0.  1.
<mgrwt>
<rscale>  2 0.10240872E+03</rscale>
<asrwt>0</asrwt>
<pdfrwt beam="1">  1       21 0.10242054E+00 0.10240872E+03</pdfrwt>
<pdfrwt beam="2">  1       21 0.27257277E-02 0.10240872E+03</pdfrwt>
<totfact> 0.58284987E+05</totfact>
</mgrwt>
</event>
<event>
 5    1  0.1855960E+000  0.1404813E+03  0.7546771E-02  0.1212683E+00
         21   -1    0    0  503  502  0.00000000000E+00  0.00000000000E+00  0.13717324598E+03  0.13717324598E+03  0.00000000000E+00 0.  1.
         21   -1    0    0  501  503 -0.00000000000E+00 -0.00000000000E+00 -0.19791926332E+03  0.19791926332E+03  0.00000000000E+00 0. -1.
         24    1    1    2    0    0 -0.25807026932E+02  0.47883912864E+01 -0.37997166159E+02  0.92735817895E+02  0.80419002446E+02 0.  0.
          1    1    1    2  501    0 -0.80620364250E+02 -0.31638796742E+02 -0.80576618857E+02  0.11829306023E+03  0.00000000000E+00 0. -1.
         -2    1    1    2    0  502  0.10642739118E+03  0.26850405456E+02  0.57827767674E+02  0.12406363118E+03  0.00000000000E+00 0.  1.
<mgrwt>
<rscale>  2 0.14048126E+03</rscale>
<asrwt>0</asrwt>
<pdfrwt beam="1">  1       21 0.21103576E-01 0.14048126E+03</pdfrwt>
<pdfrwt beam="2">  1       21 0.30449117E-01 0.14048126E+03</pdfrwt>
<totfact> 0.21905332E+05</totfact>
</mgrwt>
</event>
<event>
 5    1  0.1855960E+000  0.1100799E+03  0.7546771E-02  0.1260422E+00
         21   -1    0    0  501  502  0.00000000000E+00  0.00000000000E+00  0.42447133395E+03  0.42447133395E+03  0.00000000000E+00 0.  1.
         21   -1    0    0  502  503 -0.00000000000E+00 -0.00000000000E+00 -0.29752164632E+02  0.29752164632E+02  0.00000000000E+00 0. -1.
         24    1    1    2    0    0 -0.46987546448E+02 -0.30600648104E+02  0.13564437381E+03  0.16736439671E+03  0.80419002446E+02 0. -1.
          1    1    1    2  501    0 -0.26893530449E+02 -0.19181999134E+02  0.87625113599E+02  0.93644923001E+02  0.00000000000E+00 0. -1.
         -2    1    1    2    0  503  0.73881076897E+02  0.49782647238E+02  0.17144968191E+03  0.19321417887E+03  0.00000000000E+00 0.  1.
<mgrwt>
<rscale>  2 0.11007988E+03</rscale>
<asrwt>0</asrwt>
<pdfrwt beam="1">  1       21 0.65303278E-01 0.11007988E+03</pdfrwt>
<pdfrwt beam="2">  1       21 0.45772564E-02 0.11007988E+03</pdfrwt>
<totfact> 0.67883808E+05</totfact>
</mgrwt>
</event>
<event>
 5    1  0.1855960E+000  0.8032166E+02  0.7546771E-02  0.1328141E+00
         21   -1    0    0  501  502  0.00000000000E+00  0.00000000000E+00  0.33492270942E+03  0.33492270942E+03  0.00000000000E+00 0. -1.
         21   -1    0    0  502  503 -0.00000000000E+00 -0.00000000000E+00 -0.68266138114E+02  0.68266138114E+02  0.00000000000E+00 0. -1.
         24    1    1    2    0    0 -0.24909615115E+02 -0.37641681401E+02 -0.99254922633E+01  0.92752986232E+02  0.80419002446E+02 0. -1.
          1    1    1    2  501    0 -0.16066525584E+02  0.12411541868E+02  0.25808536414E+03  0.25888266608E+03  0.00000000000E+00 0. -1.
         -2    1    1    2    0  503  0.40976140700E+02  0.25230139533E+02  0.18496699432E+02  0.51553195220E+02  0.00000000000E+00 0.  1.
<mgrwt>
<rscale>  2 0.80321662E+02</rscale>
<asrwt>0</asrwt>
<pdfrwt beam="1">  1       21 0.51526570E-01 0.80321662E+02</pdfrwt>
<pdfrwt beam="2">  1       21 0.10502483E-01 0.80321662E+02</pdfrwt>
<totfact> 0.27306550E+05</totfact>
</mgrwt>
</event>
<event>
 5    1  0.1855960E+000  0.7150275E+02  0.7546771E-02  0.1355056E+00
         21   -1    0    0  501  502  0.00000000000E+00  0.00000000000E+00  0.42921015564E+02  0.42921015564E+02  0.00000000000E+00 0.  1.
         21   -1    0    0  502  503 -0.00000000000E+00 -0.00000000000E+00 -0.24193012823E+03  0.24193012823E+03  0.00000000000E+00 0. -1.
         24    1    1    2    0    0  0.38647568395E+02 -0.18787253391E+02 -0.18218058349E+02  0.92982304968E+02  0.80419002446E+02 0.  1.
          1    1    1    2  501    0 -0.15341204543E+02  0.23483641787E+02 -0.38667157420E+02  0.47770106252E+02  0.00000000000E+00 0. -1.
         -2    1    1    2    0  503 -0.23306363852E+02 -0.46963883962E+01 -0.14212389690E+03  0.14409873257E+03  0.00000000000E+00 0.  1.
<mgrwt>
<rscale>  2 0.71502749E+02</rscale>
<asrwt>0</asrwt>
<pdfrwt beam="1">  1       21 0.66032333E-02 0.71502749E+02</pdfrwt>
<pdfrwt beam="2">  1       21 0.37220019E-01 0.71502749E+02</pdfrwt>
<totfact> 0.11508436E+06</totfact>
</mgrwt>
</event>
<event>
 5    1  0.1855960E+000  0.7743326E+02  0.7546771E-02  0.1336497E+00
         21   -1    0    0  501  502  0.00000000000E+00  0.00000000000E+00  0.52140821180E+02  0.52140821180E+02  0.00000000000E+00 0. -1.
         21   -1    0    0  502  503 -0.00000000000E+00 -0.00000000000E+00 -0.24743737632E+03  0.24743737632E+03  0.00000000000E+00 0.  1.
         24    1    1    2    0    0  0.14664992627E+02  0.41439457605E+02 -0.14682453501E+03  0.17308076349E+03  0.80419002446E+02 0.  1.
          1    1    1    2  501    0  0.16522653357E+02 -0.15446205069E+02  0.30339803222E+02  0.37842925158E+02  0.00000000000E+00 0. -1.
         -2    1    1    2    0  503 -0.31187645984E+02 -0.25993252537E+02 -0.78811823355E+02  0.88654508853E+02  0.00000000000E+00 0.  1.
<mgrwt>
<rscale>  2 0.77433259E+02</rscale>
<asrwt>0</asrwt>
<pdfrwt beam="1">  1       21 0.80216649E-02 0.77433259E+02</pdfrwt>
<pdfrwt beam="2">  1       21 0.38067288E-01 0.77433259E+02</pdfrwt>
<totfact> 0.79434158E+05</totfact>
</mgrwt>
</event>
<event>
 5    1  0.1855960E+000  0.1017842E+03  0.7546771E-02  0.1276588E+00
         21   -1    0    0  501  502  0.00000000000E+00  0.00000000000E+00  0.52099799982E+03  0.52099799982E+03  0.00000000000E+00 0. -1.
         21   -1    0    0  502  503 -0.00000000000E+00 -0.00000000000E+00 -0.17968295614E+03  0.17968295614E+03  0.00000000000E+00 0. -1.
         24    1    1    2    0    0 -0.40965720395E+02 -0.14985204344E+02 -0.90109934485E+02  0.12841247153E+03  0.80419002446E+02 0. -1.
          1    1    1    2  501    0  0.83835683049E+01 -0.43947997038E+02  0.48447844854E+03  0.48653990356E+03  0.00000000000E+00 0. -1.
         -2    1    1    2    0  503  0.32582152090E+02  0.58933201382E+02 -0.53053470371E+02  0.85728580872E+02  0.00000000000E+00 0.  1.
<mgrwt>
<rscale>  2 0.10178415E+03</rscale>
<asrwt>0</asrwt>
<pdfrwt beam="1">  1       21 0.80153538E-01 0.10178415E+03</pdfrwt>
<pdfrwt beam="2">  1       21 0.27643532E-01 0.10178415E+03</pdfrwt>
<totfact> 0.18288434E+04</totfact>
</mgrwt>
</event>
<event>
 5    1  0.1855960E+000  0.1050063E+03  0.7546771E-02  0.1270107E+00
         21   -1    0    0  501  502  0.00000000000E+00  0.00000000000E+00  0.12816475005E+03  0.12816475005E+03  0.00000000000E+00 0. -1.
         21   -1    0    0  502  503 -0.00000000000E+00 -0.00000000000E+00 -0.35993726182E+03  0.35993726182E+03  0.00000000000E+00 0.  1.
         24    1    1    2    0    0 -0.11837355256E+01 -0.68906018495E+02 -0.19625020514E+03  0.22300403491E+03  0.80419002446E+02 0.  1.
          1    1    1    2  501    0 -0.33435219002E+02  0.85286499891E+01  0.10378590685E+03  0.10937168829E+03  0.00000000000E+00 0. -1.
         -2    1    1    2    0  503  0.34618954527E+02  0.60377368506E+02 -0.13930821348E+03  0.15572628867E+03  0.00000000000E+00 0.  1.
<mgrwt>
<rscale>  2 0.10500633E+03</rscale>
<asrwt>0</asrwt>
<pdfrwt beam="1">  1       21 0.19717654E-01 0.10500633E+03</pdfrwt>
<pdfrwt beam="2">  1       21 0.55374963E-01 0.10500633E+03</pdfrwt>
<totfact> 0.75862018E+04</totfact>
</mgrwt>
</event>
<event>
 5    1  0.1855960E+000  0.1874321E+03  0.7546771E-02  0.1160798E+00
         21   -1    0    0  501  502  0.00000000000E+00  0.00000000000E+00  0.46255476051E+03  0.46255476051E+03  0.00000000000E+00 0.  1.
         21   -1    0    0  502  503 -0.00000000000E+00 -0.00000000000E+00 -0.13269172412E+03  0.13269172412E+03  0.00000000000E+00 0. -1.
         24    1    1    2    0    0  0.12357107142E+03  0.74717072746E+02  0.33748412973E+01  0.16532106992E+03  0.80419002446E+02 0. -1.
          1    1    1    2  501    0 -0.10493460271E+03 -0.12071482909E+03  0.34230955636E+03  0.37783484909E+03  0.00000000000E+00 0. -1.
         -2    1    1    2    0  503 -0.18636468708E+02  0.45997756343E+02 -0.15821361271E+02  0.52090565623E+02  0.00000000000E+00 0.  1.
<mgrwt>
<rscale>  2 0.18743215E+03</rscale>
<asrwt>0</asrwt>
<pdfrwt beam="1">  1       21 0.71162270E-01 0.18743215E+03</pdfrwt>
<pdfrwt beam="2">  1       21 0.20414112E-01 0.18743215E+03</pdfrwt>
<totfact> 0.39798224E+04</totfact>
</mgrwt>
</event>
<event>
 5    1  0.1855960E+000  0.7702568E+02  0.7546771E-02  0.1337710E+00
         21   -1    0    0  501  502  0.00000000000E+00  0.00000000000E+00  0.66232300931E+01  0.66232300931E+01  0.00000000000E+00 0.  1.
         21   -1    0    0  502  503 -0.00000000000E+00 -0.00000000000E+00 -0.12189065150E+04  0.12189065150E+04  0.00000000000E+00 0.  1.
         24    1    1    2    0    0 -0.28553006365E+02  0.48210459357E+02 -0.48477839667E+03  0.49458753765E+03  0.80419002446E+02 0.  1.
          1    1    1    2  501    0  0.14967119421E+02 -0.24470036366E+02 -0.14581684081E+03  0.14861140066E+03  0.00000000000E+00 0. -1.
         -2    1    1    2    0  503  0.13585886944E+02 -0.23740422991E+02 -0.58168804746E+03  0.58233080682E+03  0.00000000000E+00 0.  1.
<mgrwt>
<rscale>  2 0.77025684E+02</rscale>
<asrwt>0</asrwt>
<pdfrwt beam="1">  1       21 0.10189587E-02 0.77025684E+02</pdfrwt>
<pdfrwt beam="2">  1       21 0.18752403E+00 0.77025684E+02</pdfrwt>
<totfact> 0.61420122E+05</totfact>
</mgrwt>
</event>
<event>
 5    1  0.1855960E+000  0.9895803E+02  0.7546771E-02  0.1282502E+00
         21   -1    0    0  501  502  0.00000000000E+00  0.00000000000E+00  0.62197363225E+02  0.62197363225E+02  0.00000000000E+00 0.  1.
         21   -1    0    0  502  503 -0.00000000000E+00 -0.00000000000E+00 -0.63529720102E+03  0.63529720102E+03  0.00000000000E+00 0.  1.
         24    1    1    2    0    0 -0.41160858061E+02 -0.46248332458E+02 -0.31120284079E+02  0.10615466324E+03  0.80419002446E+02 0.  1.
          1    1    1    2  501    0  0.60524585777E+02  0.19869847403E+02 -0.17803968255E+02  0.66143915857E+02  0.00000000000E+00 0. -1.
         -2    1    1    2    0  503 -0.19363727717E+02  0.26378485055E+02 -0.52417558546E+03  0.52519598515E+03  0.00000000000E+00 0.  1.
<mgrwt>
<rscale>  2 0.98958031E+02</rscale>
<asrwt>0</asrwt>
<pdfrwt beam="1">  1       21 0.95688251E-02 0.98958031E+02</pdfrwt>
<pdfrwt beam="2">  1       21 0.97738031E-01 0.98958031E+02</pdfrwt>
<totfact> 0.79572752E+04</totfact>
</mgrwt>
</event>
<event>
 5    1  0.1855960E+000  0.8462096E+02  0.7546771E-02  0.1316427E+00
         21   -1    0    0  503  502  0.00000000000E+00  0.00000000000E+00  0.39755502081E+03  0.39755502081E+03  0.00000000000E+00 0.  1.
         21   -1    0    0  501  503 -0.00000000000E+00 -0.00000000000E+00 -0.19032019919E+02  0.19032019919E+02  0.00000000000E+00 0.  1.
         24    1    1    2    0    0 -0.13719195966E+01 -0.55921355233E+02  0.17515701147E+03  0.20068949837E+03  0.80419002446E+02 0.  1.
          1    1    1    2  501    0  0.22458208160E+02  0.34937052781E+02  0.98611616729E+02  0.10700102675E+03  0.00000000000E+00 0. -1.
         -2    1    1    2    0  502 -0.21086288563E+02  0.20984302451E+02  0.10475437270E+03  0.10889651562E+03  0.00000000000E+00 0.  1.
<mgrwt>
<rscale>  2 0.84620959E+02</rscale>
<asrwt>0</asrwt>
<pdfrwt beam="1">  1       21 0.61162305E-01 0.84620959E+02</pdfrwt>
<pdfrwt beam="2">  1       21 0.29280034E-02 0.84620959E+02</pdfrwt>
<totfact> 0.16194771E+06</totfact>
</mgrwt>
</event>
<event>
 5    1  0.1855960E+000  0.6984518E+02  0.7546771E-02  0.1360620E+00
         21   -1    0    0  503  502  0.00000000000E+00  0.00000000000E+00  0.41395887522E+02  0.41395887522E+02  0.00000000000E+00 0.  1.
         21   -1    0    0  501  503 -0.00000000000E+00 -0.00000000000E+00 -0.12732668473E+03  0.12732668473E+03  0.00000000000E+00 0.  1.
         24    1    1    2    0    0  0.15779926225E+02 -0.16100548755E+02 -0.60415995808E+02  0.10308027089E+03  0.80419002446E+02 0.  1.
          1    1    1    2  501    0 -0.26164131511E+02 -0.10054981490E+02 -0.24902757155E+02  0.37494156137E+02  0.00000000000E+00 0. -1.
         -2    1    1    2    0  502  0.10384205285E+02  0.26155530245E+02 -0.61204424484E+00  0.28148145231E+02  0.00000000000E+00 0.  1.
<mgrwt>
<rscale>  2 0.69845177E+02</rscale>
<asrwt>0</asrwt>
<pdfrwt beam="1">  1       21 0.63685982E-02 0.69845177E+02</pdfrwt>
<pdfrwt beam="2">  1       21 0.19588720E-01 0.69845177E+02</pdfrwt>
<totfact> 0.40699445E+06</totfact>
</mgrwt>
</event>
<event>
 5    1  0.1855960E+000  0.1057825E+03  0.7546771E-02  0.1268586E+00
         21   -1    0    0  501  502  0.00000000000E+00  0.00000000000E+00  0.65669017762E+03  0.65669017762E+03  0.00000000000E+00 0. -1.
         21   -1    0    0  502  503 -0.00000000000E+00 -0.00000000000E+00 -0.18889171343E+02  0.18889171343E+02  0.00000000000E+00 0.  1.
         24    1    1    2    0    0  0.16111811451E+02 -0.33139038151E+02  0.26515601732E+03  0.27952229928E+03  0.80419002446E+02 0. -1.
          1    1    1    2  501    0 -0.33109408330E+02  0.72789388532E+02  0.30892626187E+03  0.31910807461E+03  0.00000000000E+00 0. -1.
         -2    1    1    2    0  503  0.16997596878E+02 -0.39650350381E+02  0.63718727079E+02  0.76948975078E+02  0.00000000000E+00 0.  1.
<mgrwt>
<rscale>  2 0.10578247E+03</rscale>
<asrwt>0</asrwt>
<pdfrwt beam="1">  1       21 0.10102924E+00 0.10578247E+03</pdfrwt>
<pdfrwt beam="2">  1       21 0.29060269E-02 0.10578247E+03</pdfrwt>
<totfact> 0.54204843E+05</totfact>
</mgrwt>
</event>
<event>
 5    1  0.1855960E+000  0.6503926E+02  0.7546771E-02  0.1377824E+00
         21   -1    0    0  501  502  0.00000000000E+00  0.00000000000E+00  0.11981046035E+04  0.11981046035E+04  0.00000000000E+00 0.  1.
         21   -1    0    0  502  503 -0.00000000000E+00 -0.00000000000E+00 -0.46148922536E+01  0.46148922536E+01  0.00000000000E+00 0. -1.
         24    1    1    2    0    0  0.20411661219E+02  0.10143224478E+02  0.46737050402E+03  0.47478618862E+03  0.80419002446E+02 0. -1.
          1    1    1    2  501    0 -0.15547112564E+02  0.14568286101E+02  0.49245383200E+03  0.49291452030E+03  0.00000000000E+00 0. -1.
         -2    1    1    2    0  503 -0.48645486552E+01 -0.24711510578E+02  0.23366537520E+03  0.23501878681E+03  0.00000000000E+00 0.  1.
<mgrwt>
<rscale>  2 0.65039256E+02</rscale>
<asrwt>0</asrwt>
<pdfrwt beam="1">  1       21 0.18432354E+00 0.65039256E+02</pdfrwt>
<pdfrwt beam="2">  1       21 0.70998438E-03 0.65039256E+02</pdfrwt>
<totfact> 0.11286825E+06</totfact>
</mgrwt>
</event>
<event>
 5    1  0.1855960E+000  0.7254292E+02  0.7546771E-02  0.1351653E+00
         21   -1    0    0  501  502  0.00000000000E+00  0.00000000000E+00  0.25389897856E+02  0.25389897856E+02  0.00000000000E+00 0. -1.
         21   -1    0    0  502  503 -0.00000000000E+00 -0.00000000000E+00 -0.47477081658E+03  0.47477081658E+03  0.00000000000E+00 0. -1.
         24    1    1    2    0    0 -0.16697326971E+02 -0.29901921594E+02 -0.58805454639E+02  0.10534810436E+03  0.80419002446E+02 0. -1.
          1    1    1    2  501    0 -0.76665986224E+01  0.32298956063E+02 -0.22130233867E+03  0.22377829296E+03  0.00000000000E+00 0. -1.
         -2    1    1    2    0  503  0.24363925593E+02 -0.23970344684E+01 -0.16927312542E+03  0.17103431712E+03  0.00000000000E+00 0.  1.
<mgrwt>
<rscale>  2 0.72542918E+02</rscale>
<asrwt>0</asrwt>
<pdfrwt beam="1">  1       21 0.39061382E-02 0.72542918E+02</pdfrwt>
<pdfrwt beam="2">  1       21 0.73041662E-01 0.72542918E+02</pdfrwt>
<totfact> 0.69187454E+05</totfact>
</mgrwt>
</event>
<event>
 5    1  0.1855960E+000  0.7868161E+02  0.7546771E-02  0.1332835E+00
         21   -1    0    0  501  502  0.00000000000E+00  0.00000000000E+00  0.12740645179E+04  0.12740645179E+04  0.00000000000E+00 0. -1.
         21   -1    0    0  502  503 -0.00000000000E+00 -0.00000000000E+00 -0.96126328463E+01  0.96126328463E+01  0.00000000000E+00 0.  1.
         24    1    1    2    0    0 -0.57385277085E+02  0.18578154268E+00  0.52806320441E+03  0.53722534224E+03  0.80419002446E+02 0.  1.
          1    1    1    2  501    0  0.32343777861E+02 -0.59153957028E+01  0.70554865942E+03  0.70631439366E+03  0.00000000000E+00 0. -1.
         -2    1    1    2    0  503  0.25041499224E+02  0.57296141601E+01  0.30840021222E+02  0.40137414850E+02  0.00000000000E+00 0.  1.
<mgrwt>
<rscale>  2 0.78681610E+02</rscale>
<asrwt>0</asrwt>
<pdfrwt beam="1">  1       21 0.19600979E+00 0.78681610E+02</pdfrwt>
<pdfrwt beam="2">  1       21 0.14788676E-02 0.78681610E+02</pdfrwt>
<totfact> 0.30291587E+05</totfact>
</mgrwt>
</event>
<event>
 5    1  0.1855960E+000  0.6284679E+02  0.7546771E-02  0.1386259E+00
         21   -1    0    0  503  502  0.00000000000E+00  0.00000000000E+00  0.22951670803E+03  0.22951670803E+03  0.00000000000E+00 0. -1.
         21   -1    0    0  501  503 -0.00000000000E+00 -0.00000000000E+00 -0.23427163456E+02  0.23427163456E+02  0.00000000000E+00 0.  1.
         24    1    1    2    0    0 -0.57733728604E-01  0.57838877772E+01  0.18713713596E+03  0.20376697549E+03  0.80419002446E+02 0. -1.
          1    1    1    2  501    0 -0.22293253326E+02 -0.39525875258E+01  0.66456849366E+01  0.23596127231E+02  0.00000000000E+00 0. -1.
         -2    1    1    2    0  502  0.22350987055E+02 -0.18313002514E+01  0.12306723678E+02  0.25580768765E+02  0.00000000000E+00 0.  1.
<mgrwt>
<rscale>  2 0.62846786E+02</rscale>
<asrwt>0</asrwt>
<pdfrwt beam="1">  1       21 0.35310261E-01 0.62846786E+02</pdfrwt>
<pdfrwt beam="2">  1       21 0.36041791E-02 0.62846786E+02</pdfrwt>
<totfact> 0.34372875E+06</totfact>
</mgrwt>
</event>
<event>
 5    1  0.1855960E+000  0.9980453E+02  0.7546771E-02  0.1280708E+00
         21   -1    0    0  501  502  0.00000000000E+00  0.00000000000E+00  0.10984031166E+02  0.10984031166E+02  0.00000000000E+00 0. -1.
         21   -1    0    0  502  503 -0.00000000000E+00 -0.00000000000E+00 -0.13854645353E+04  0.13854645353E+04  0.00000000000E+00 0. -1.
         24    1    1    2    0    0  0.66970095885E+02 -0.44656401767E+02 -0.87689539546E+03  0.88424653717E+03  0.80419002446E+02 0. -1.
          1    1    1    2  501    0 -0.57673569128E+02  0.22694065480E+02 -0.13185209117E+03  0.14569226174E+03  0.00000000000E+00 0. -1.
         -2    1    1    2    0  503 -0.92965267564E+01  0.21962336287E+02 -0.36573301753E+03  0.36650976758E+03  0.00000000000E+00 0.  1.
<mgrwt>
<rscale>  2 0.99804533E+02</rscale>
<asrwt>0</asrwt>
<pdfrwt beam="1">  1       21 0.16898524E-02 0.99804533E+02</pdfrwt>
<pdfrwt beam="2">  1       21 0.21314821E+00 0.99804533E+02</pdfrwt>
<totfact> 0.18989922E+05</totfact>
</mgrwt>
</event>
<event>
 5    1  0.1855960E+000  0.6455048E+02  0.7546771E-02  0.1379670E+00
         21   -1    0    0  503  502  0.00000000000E+00  0.00000000000E+00  0.12267501547E+04  0.12267501547E+04  0.00000000000E+00 0.  1.
         21   -1    0    0  501  503 -0.00000000000E+00 -0.00000000000E+00 -0.62967663481E+01  0.62967663481E+01  0.00000000000E+00 0.  1.
         24    1    1    2    0    0  0.11476925232E+02  0.82435250684E+01  0.37571168215E+03  0.38448167652E+03  0.80419002446E+02 0.  1.
          1    1    1    2  501    0 -0.26926073250E+02  0.46533003320E+01  0.10337602472E+03  0.10692646591E+03  0.00000000000E+00 0. -1.
         -2    1    1    2    0  502  0.15449148018E+02 -0.12896825400E+02  0.74136568143E+03  0.74163877857E+03  0.00000000000E+00 0.  1.
<mgrwt>
<rscale>  2 0.64550477E+02</rscale>
<asrwt>0</asrwt>
<pdfrwt beam="1">  1       21 0.18873060E+00 0.64550477E+02</pdfrwt>
<pdfrwt beam="2">  1       21 0.96873426E-03 0.64550477E+02</pdfrwt>
<totfact> 0.65598189E+05</totfact>
</mgrwt>
</event>
<event>
 5    1  0.1855960E+000  0.9550993E+02  0.7546771E-02  0.1290032E+00
         21   -1    0    0  503  502  0.00000000000E+00  0.00000000000E+00  0.45800637724E+03  0.45800637724E+03  0.00000000000E+00 0. -1.
         21   -1    0    0  501  503 -0.00000000000E+00 -0.00000000000E+00 -0.20511014345E+02  0.20511014345E+02  0.00000000000E+00 0. -1.
         24    1    1    2    0    0 -0.35433705679E+02 -0.64132901804E+02  0.27182926164E+03  0.29279163245E+03  0.80419002446E+02 0. -1.
          1    1    1    2  501    0  0.21386423026E+02  0.57045031307E+01  0.29427113354E+02  0.36822214031E+02  0.00000000000E+00 0. -1.
         -2    1    1    2    0  502  0.14047282653E+02  0.58428398673E+02  0.13623898790E+03  0.14890354510E+03  0.00000000000E+00 0.  1.
<mgrwt>
<rscale>  2 0.95509934E+02</rscale>
<asrwt>0</asrwt>
<pdfrwt beam="1">  1       21 0.70462512E-01 0.95509934E+02</pdfrwt>
<pdfrwt beam="2">  1       21 0.31555410E-02 0.95509934E+02</pdfrwt>
<totfact> 0.10629153E+06</totfact>
</mgrwt>
</event>
<event>
 5    1  0.1855960E+000  0.9194997E+02  0.7546771E-02  0.1298197E+00
         21   -1    0    0  501  502  0.00000000000E+00  0.00000000000E+00  0.12054349337E+03  0.12054349337E+03  0.00000000000E+00 0. -1.
         21   -1    0    0  502  503 -0.00000000000E+00 -0.00000000000E+00 -0.53633736078E+03  0.53633736078E+03  0.00000000000E+00 0.  1.
         24    1    1    2    0    0  0.48906283663E+02 -0.42346034745E+02 -0.15947022290E+03  0.18995520310E+03  0.80419002446E+02 0. -1.
          1    1    1    2  501    0 -0.21363695883E+02  0.48030308328E+02  0.98148669506E+02  0.11133947793E+03  0.00000000000E+00 0. -1.
         -2    1    1    2    0  503 -0.27542587780E+02 -0.56842735834E+01 -0.35447231402E+03  0.35558617312E+03  0.00000000000E+00 0.  1.
<mgrwt>
<rscale>  2 0.91949967E+02</rscale>
<asrwt>0</asrwt>
<pdfrwt beam="1">  1       21 0.18545153E-01 0.91949967E+02</pdfrwt>
<pdfrwt beam="2">  1       21 0.82513440E-01 0.91949967E+02</pdfrwt>
<totfact> 0.36313846E+04</totfact>
</mgrwt>
</event>
<event>
 5    1  0.1855960E+000  0.7688646E+02  0.7546771E-02  0.1338127E+00
         21   -1    0    0  501  502  0.00000000000E+00  0.00000000000E+00  0.39324256801E+02  0.39324256801E+02  0.00000000000E+00 0. -1.
         21   -1    0    0  502  503 -0.00000000000E+00 -0.00000000000E+00 -0.21453421464E+03  0.21453421464E+03  0.00000000000E+00 0. -1.
         24    1    1    2    0    0  0.14511730105E+02  0.31164892057E+02 -0.30736012905E+02  0.92702530986E+02  0.80419002446E+02 0. -1.
          1    1    1    2  501    0  0.21361087178E+02 -0.18539126863E+02 -0.33482609785E+02  0.43830131511E+02  0.00000000000E+00 0. -1.
         -2    1    1    2    0  503 -0.35872817283E+02 -0.12625765194E+02 -0.11099133515E+03  0.11732580895E+03  0.00000000000E+00 0.  1.
<mgrwt>
<rscale>  2 0.76886458E+02</rscale>
<asrwt>0</asrwt>
<pdfrwt beam="1">  1       21 0.60498856E-02 0.76886458E+02</pdfrwt>
<pdfrwt beam="2">  1       21 0.33005264E-01 0.76886458E+02</pdfrwt>
<totfact> 0.16856294E+06</totfact>
</mgrwt>
</event>
<event>
 5    1  0.1855960E+000  0.8101236E+02  0.7546771E-02  0.1326203E+00
         21   -1    0    0  503  502  0.00000000000E+00  0.00000000000E+00  0.12233707827E+03  0.12233707827E+03  0.00000000000E+00 0.  1.
         21   -1    0    0  501  503 -0.00000000000E+00 -0.00000000000E+00 -0.96446994098E+03  0.96446994098E+03  0.00000000000E+00 0. -1.
         24    1    1    2    0    0  0.18726863342E+02  0.15105487194E+02 -0.11167539899E+03  0.13970498147E+03  0.80419002446E+02 0.  1.
          1    1    1    2  501    0  0.69088763431E+01 -0.41039986343E+02 -0.83517780743E+03  0.83621407730E+03  0.00000000000E+00 0. -1.
         -2    1    1    2    0  502 -0.25635739685E+02  0.25934499149E+02  0.10472034371E+03  0.11088796049E+03  0.00000000000E+00 0.  1.
<mgrwt>
<rscale>  2 0.81012356E+02</rscale>
<asrwt>0</asrwt>
<pdfrwt beam="1">  1       21 0.18821089E-01 0.81012356E+02</pdfrwt>
<pdfrwt beam="2">  1       21 0.14837999E+00 0.81012356E+02</pdfrwt>
<totfact> 0.89431548E+03</totfact>
</mgrwt>
</event>
<event>
 5    1  0.1855960E+000  0.7118621E+02  0.7546771E-02  0.1356105E+00
         21   -1    0    0  501  502  0.00000000000E+00  0.00000000000E+00  0.97302268848E+03  0.97302268848E+03  0.00000000000E+00 0. -1.
         21   -1    0    0  502  503 -0.00000000000E+00 -0.00000000000E+00 -0.13646300426E+02  0.13646300426E+02  0.00000000000E+00 0.  1.
         24    1    1    2    0    0 -0.24776245309E+02  0.27634610324E+02  0.82938516754E+03  0.83410101673E+03  0.80419002446E+02 0. -1.
          1    1    1    2  501    0  0.30757804424E+02 -0.59767078532E+01  0.12588659465E+03  0.12972739989E+03  0.00000000000E+00 0. -1.
         -2    1    1    2    0  503 -0.59815591148E+01 -0.21657902471E+02  0.41046258636E+01  0.22840572286E+02  0.00000000000E+00 0.  1.
<mgrwt>
<rscale>  2 0.71186214E+02</rscale>
<asrwt>0</asrwt>
<pdfrwt beam="1">  1       21 0.14969574E+00 0.71186214E+02</pdfrwt>
<pdfrwt beam="2">  1       21 0.20994316E-02 0.71186214E+02</pdfrwt>
<totfact> 0.35596438E+05</totfact>
</mgrwt>
</event>
<event>
 5    1  0.1855960E+000  0.7840754E+02  0.7546771E-02  0.1333632E+00
         21   -1    0    0  503  502  0.00000000000E+00  0.00000000000E+00  0.15522558346E+03  0.15522558346E+03  0.00000000000E+00 0.  1.
         21   -1    0    0  501  503 -0.00000000000E+00 -0.00000000000E+00 -0.13156761954E+03  0.13156761954E+03  0.00000000000E+00 0.  1.
         24    1    1    2    0    0  0.54036589737E+02  0.85845134059E+01  0.19326543217E+02  0.99168433122E+02  0.80419002446E+02 0.  1.
          1    1    1    2  501    0 -0.19754691382E+02  0.81864947371E+01 -0.86498623917E+02  0.89102628845E+02  0.00000000000E+00 0. -1.
         -2    1    1    2    0  502 -0.34281898355E+02 -0.16771008143E+02  0.90830044613E+02  0.98522141031E+02  0.00000000000E+00 0.  1.
<mgrwt>
<rscale>  2 0.78407539E+02</rscale>
<asrwt>0</asrwt>
<pdfrwt beam="1">  1       21 0.23880859E-01 0.78407539E+02</pdfrwt>
<pdfrwt beam="2">  1       21 0.20241172E-01 0.78407539E+02</pdfrwt>
<totfact> 0.37919229E+05</totfact>
</mgrwt>
</event>
<event>
 5    1  0.1855960E+000  0.6649238E+02  0.7546771E-02  0.1372444E+00
         21   -1    0    0  503  502  0.00000000000E+00  0.00000000000E+00  0.10720947778E+03  0.10720947778E+03  0.00000000000E+00 0. -1.
         21   -1    0    0  501  503 -0.00000000000E+00 -0.00000000000E+00 -0.69393115512E+02  0.69393115512E+02  0.00000000000E+00 0. -1.
         24    1    1    2    0    0 -0.47778859406E+01  0.23456262508E+01  0.53190757799E+02  0.96565018646E+02  0.80419002446E+02 0. -1.
          1    1    1    2  501    0  0.28464453915E+02  0.91920704425E+00 -0.37751749930E+02  0.47289160503E+02  0.00000000000E+00 0. -1.
         -2    1    1    2    0  502 -0.23686567975E+02 -0.32648332951E+01  0.22377354398E+02  0.32748414141E+02  0.00000000000E+00 0.  1.
<mgrwt>
<rscale>  2 0.66492378E+02</rscale>
<asrwt>0</asrwt>
<pdfrwt beam="1">  1       21 0.16493766E-01 0.66492378E+02</pdfrwt>
<pdfrwt beam="2">  1       21 0.10675864E-01 0.66492378E+02</pdfrwt>
<totfact> 0.22987327E+06</totfact>
</mgrwt>
</event>
<event>
 5    1  0.1855960E+000  0.8081465E+02  0.7546771E-02  0.1326755E+00
         21   -1    0    0  501  502  0.00000000000E+00  0.00000000000E+00  0.11062116122E+02  0.11062116122E+02  0.00000000000E+00 0. -1.
         21   -1    0    0  502  503 -0.00000000000E+00 -0.00000000000E+00 -0.61527750003E+03  0.61527750003E+03  0.00000000000E+00 0.  1.
         24    1    1    2    0    0 -0.26639303895E+01  0.44355851946E+02 -0.31739831270E+03  0.33042917999E+03  0.80419002446E+02 0.  0.
          1    1    1    2  501    0  0.23268336220E+02 -0.28896757820E+01 -0.60068568794E+02  0.64482545340E+02  0.00000000000E+00 0. -1.
         -2    1    1    2    0  503 -0.20604405830E+02 -0.41466176164E+02 -0.22674850241E+03  0.23142789082E+03  0.00000000000E+00 0.  1.
<mgrwt>
<rscale>  2 0.80814645E+02</rscale>
<asrwt>0</asrwt>
<pdfrwt beam="1">  1       21 0.17018647E-02 0.80814645E+02</pdfrwt>
<pdfrwt beam="2">  1       21 0.94658039E-01 0.80814645E+02</pdfrwt>
<totfact> 0.14863712E+06</totfact>
</mgrwt>
</event>
<event>
 5    1  0.1855960E+000  0.6427249E+02  0.7546771E-02  0.1380729E+00
         21   -1    0    0  501  502  0.00000000000E+00  0.00000000000E+00  0.61791502869E+02  0.61791502869E+02  0.00000000000E+00 0.  1.
         21   -1    0    0  502  503 -0.00000000000E+00 -0.00000000000E+00 -0.19647706396E+03  0.19647706396E+03  0.00000000000E+00 0. -1.
         24    1    1    2    0    0 -0.72733595214E+01  0.44015065042E+01 -0.11988470584E+03  0.14460924475E+03  0.80419002446E+02 0.  0.
          1    1    1    2  501    0  0.24577741468E+02  0.85941136672E+01  0.43931078105E+02  0.51067247712E+02  0.00000000000E+00 0. -1.
         -2    1    1    2    0  503 -0.17304381946E+02 -0.12995620171E+02 -0.58731933355E+02  0.62592074369E+02  0.00000000000E+00 0.  1.
<mgrwt>
<rscale>  2 0.64272489E+02</rscale>
<asrwt>0</asrwt>
<pdfrwt beam="1">  1       21 0.95063851E-02 0.64272489E+02</pdfrwt>
<pdfrwt beam="2">  1       21 0.30227241E-01 0.64272489E+02</pdfrwt>
<totfact> 0.92258899E+05</totfact>
</mgrwt>
</event>
<event>
 5    1  0.1855960E+000  0.1074537E+03  0.7546771E-02  0.1265359E+00
         21   -1    0    0  501  502  0.00000000000E+00  0.00000000000E+00  0.39120499496E+02  0.39120499496E+02  0.00000000000E+00 0.  1.
         21   -1    0    0  502  503 -0.00000000000E+00 -0.00000000000E+00 -0.30988319951E+03  0.30988319951E+03  0.00000000000E+00 0.  1.
         24    1    1    2    0    0 -0.81253564954E+02 -0.18788367743E+02 -0.16128282555E+03  0.19858124371E+03  0.80419002446E+02 0.  1.
          1    1    1    2  501    0  0.21688832234E+02  0.31404859000E+02 -0.22677814298E+02  0.44395426271E+02  0.00000000000E+00 0. -1.
         -2    1    1    2    0  503  0.59564732720E+02 -0.12616491257E+02 -0.86802060170E+02  0.10602702903E+03  0.00000000000E+00 0.  1.
<mgrwt>
<rscale>  2 0.10745375E+03</rscale>
<asrwt>0</asrwt>
<pdfrwt beam="1">  1       21 0.60185383E-02 0.10745375E+03</pdfrwt>
<pdfrwt beam="2">  1       21 0.47674339E-01 0.10745375E+03</pdfrwt>
<totfact> 0.82774388E+05</totfact>
</mgrwt>
</event>
<event>
 5    1  0.2453020E+000  0.1189845E+03  0.7546771E-02  0.1244782E+00
         21   -1    0    0  503  502  0.00000000000E+00  0.00000000000E+00  0.13897751435E+03  0.13897751435E+03  0.00000000000E+00 0.  1.
         21   -1    0    0  501  503 -0.00000000000E+00 -0.00000000000E+00 -0.36457750829E+03  0.36457750829E+03  0.00000000000E+00 0. -1.
         24    1    1    2    0    0 -0.39318440652E+02 -0.18561951689E+02 -0.72334625430E+01  0.91706187144E+02  0.80419002446E+02 0.  1.
          1    1    1    2  501    0 -0.39990740573E+02  0.47528957683E+02 -0.29278442313E+03  0.29930081787E+03  0.00000000000E+00 0. -1.
         -2    1    1    2    0  502  0.79309181224E+02 -0.28967005994E+02  0.74417891728E+02  0.11254801763E+03  0.00000000000E+00 0.  1.
<mgrwt>
<rscale>  2 0.11898449E+03</rscale>
<asrwt>0</asrwt>
<pdfrwt beam="1">  1       21 0.21381157E-01 0.11898449E+03</pdfrwt>
<pdfrwt beam="2">  1       21 0.56088846E-01 0.11898449E+03</pdfrwt>
<totfact> 0.63112427E+04</totfact>
</mgrwt>
</event>
<event>
 5    1  0.1855960E+000  0.1169229E+03  0.7546771E-02  0.1248261E+00
         21   -1    0    0  503  502  0.00000000000E+00  0.00000000000E+00  0.16227197695E+03  0.16227197695E+03  0.00000000000E+00 0. -1.
         21   -1    0    0  501  503 -0.00000000000E+00 -0.00000000000E+00 -0.14583492049E+03  0.14583492049E+03  0.00000000000E+00 0.  1.
         24    1    1    2    0    0  0.49325527203E+02  0.68397679064E+02 -0.22681493529E+02  0.11871358911E+03  0.80419002446E+02 0.  1.
          1    1    1    2  501    0 -0.24648311864E+02 -0.84388097826E+02 -0.46083250920E+02  0.99260044065E+02  0.00000000000E+00 0. -1.
         -2    1    1    2    0  502 -0.24677215339E+02  0.15990418762E+02  0.85201800910E+02  0.90133264267E+02  0.00000000000E+00 0.  1.
<mgrwt>
<rscale>  2 0.11692293E+03</rscale>
<asrwt>0</asrwt>
<pdfrwt beam="1">  1       21 0.24964920E-01 0.11692293E+03</pdfrwt>
<pdfrwt beam="2">  1       21 0.22436142E-01 0.11692293E+03</pdfrwt>
<totfact> 0.28703712E+05</totfact>
</mgrwt>
</event>
<event>
 5    1  0.1855960E+000  0.7200599E+02  0.7546771E-02  0.1353401E+00
         21   -1    0    0  501  502  0.00000000000E+00  0.00000000000E+00  0.86630715185E+02  0.86630715185E+02  0.00000000000E+00 0. -1.
         21   -1    0    0  502  503 -0.00000000000E+00 -0.00000000000E+00 -0.42640449916E+03  0.42640449916E+03  0.00000000000E+00 0. -1.
         24    1    1    2    0    0  0.28366333109E+02  0.23435942669E+02 -0.35925828067E+03  0.36998327050E+03  0.80419002446E+02 0. -1.
          1    1    1    2  501    0 -0.33670252083E+02 -0.22612681347E+01  0.75627314395E+02  0.82814792709E+02  0.00000000000E+00 0. -1.
         -2    1    1    2    0  503  0.53039189748E+01 -0.21174674534E+02 -0.56142817694E+02  0.60237151134E+02  0.00000000000E+00 0.  1.
<mgrwt>
<rscale>  2 0.72005986E+02</rscale>
<asrwt>0</asrwt>
<pdfrwt beam="1">  1       21 0.13327802E-01 0.72005986E+02</pdfrwt>
<pdfrwt beam="2">  1       21 0.65600692E-01 0.72005986E+02</pdfrwt>
<totfact> 0.10940235E+05</totfact>
</mgrwt>
</event>
<event>
 5    1  0.1855960E+000  0.9906984E+02  0.7546771E-02  0.1282264E+00
         21   -1    0    0  501  502  0.00000000000E+00  0.00000000000E+00  0.20723708666E+03  0.20723708666E+03  0.00000000000E+00 0. -1.
         21   -1    0    0  502  503 -0.00000000000E+00 -0.00000000000E+00 -0.90843167141E+02  0.90843167141E+02  0.00000000000E+00 0.  1.
         24    1    1    2    0    0 -0.19094128436E+02  0.64097364742E+02  0.10964792269E+03  0.15153527910E+03  0.80419002446E+02 0.  1.
          1    1    1    2  501    0 -0.23672185972E+02 -0.13341680549E+02  0.57099100908E+02  0.63235118036E+02  0.00000000000E+00 0. -1.
         -2    1    1    2    0  503  0.42766314409E+02 -0.50755684193E+02 -0.50353104083E+02  0.83309856661E+02  0.00000000000E+00 0.  1.
<mgrwt>
<rscale>  2 0.99069843E+02</rscale>
<asrwt>0</asrwt>
<pdfrwt beam="1">  1       21 0.31882629E-01 0.99069843E+02</pdfrwt>
<pdfrwt beam="2">  1       21 0.13975872E-01 0.99069843E+02</pdfrwt>
<totfact> 0.42730797E+05</totfact>
</mgrwt>
</event>
<event>
 5    1  0.1855960E+000  0.7906739E+02  0.7546771E-02  0.1331719E+00
         21   -1    0    0  501  502  0.00000000000E+00  0.00000000000E+00  0.65934398495E+02  0.65934398495E+02  0.00000000000E+00 0. -1.
         21   -1    0    0  502  503 -0.00000000000E+00 -0.00000000000E+00 -0.14077848111E+03  0.14077848111E+03  0.00000000000E+00 0. -1.
         24    1    1    2    0    0 -0.21797623193E+02  0.14595682994E+02  0.19777263768E+02  0.86870745683E+02  0.80419002446E+02 0. -1.
          1    1    1    2  501    0  0.45818427029E+02 -0.18112146057E+02 -0.63525673219E+02  0.80392096926E+02  0.00000000000E+00 0. -1.
         -2    1    1    2    0  503 -0.24020803836E+02  0.35164630634E+01 -0.31095673161E+02  0.39450036993E+02  0.00000000000E+00 0.  1.
<mgrwt>
<rscale>  2 0.79067388E+02</rscale>
<asrwt>0</asrwt>
<pdfrwt beam="1">  1       21 0.10143754E-01 0.79067388E+02</pdfrwt>
<pdfrwt beam="2">  1       21 0.21658227E-01 0.79067388E+02</pdfrwt>
<totfact> 0.15461712E+06</totfact>
</mgrwt>
</event>
<event>
 5    1  0.1855960E+000  0.6400719E+02  0.7546771E-02  0.1381745E+00
         21   -1    0    0  501  502  0.00000000000E+00  0.00000000000E+00  0.13473835580E+02  0.13473835580E+02  0.00000000000E+00 0.  1.
         21   -1    0    0  502  503 -0.00000000000E+00 -0.00000000000E+00 -0.36378089723E+03  0.36378089723E+03  0.00000000000E+00 0. -1.
         24    1    1    2    0    0  0.22807479627E+02 -0.39281943326E+00 -0.16952944324E+03  0.18901794495E+03  0.80419002446E+02 0.  0.
          1    1    1    2  501    0 -0.14246919209E+02 -0.18694065708E+02 -0.44146308282E+02  0.50013391552E+02  0.00000000000E+00 0. -1.
         -2    1    1    2    0  503 -0.85605604181E+01  0.19086885141E+02 -0.13663131013E+03  0.13822339631E+03  0.00000000000E+00 0.  1.
<mgrwt>
<rscale>  2 0.64007193E+02</rscale>
<asrwt>0</asrwt>
<pdfrwt beam="1">  1       21 0.20728976E-02 0.64007193E+02</pdfrwt>
<pdfrwt beam="2">  1       21 0.55966296E-01 0.64007193E+02</pdfrwt>
<totfact> 0.33468730E+06</totfact>
</mgrwt>
</event>
<event>
 5    1  0.1855960E+000  0.7992251E+02  0.7546771E-02  0.1329271E+00
         21   -1    0    0  503  502  0.00000000000E+00  0.00000000000E+00  0.46349033957E+02  0.46349033957E+02  0.00000000000E+00 0.  1.
         21   -1    0    0  501  503 -0.00000000000E+00 -0.00000000000E+00 -0.22662651563E+03  0.22662651563E+03  0.00000000000E+00 0. -1.
         24    1    1    2    0    0 -0.53940437877E+02 -0.51877336791E+01 -0.18608175384E+03  0.20983354947E+03  0.80419002446E+02 0. -1.
          1    1    1    2  501    0  0.21379335912E+02 -0.13543294465E+02  0.26022831465E+01  0.25441476108E+02  0.00000000000E+00 0. -1.
         -2    1    1    2    0  502  0.32561101965E+02  0.18731028144E+02  0.32019890184E+01  0.37700524004E+02  0.00000000000E+00 0.  1.
<mgrwt>
<rscale>  2 0.79922507E+02</rscale>
<asrwt>0</asrwt>
<pdfrwt beam="1">  1       21 0.71306208E-02 0.79922507E+02</pdfrwt>
<pdfrwt beam="2">  1       21 0.34865617E-01 0.79922507E+02</pdfrwt>
<totfact> 0.11514971E+06</totfact>
</mgrwt>
</event>
<event>
 5    1  0.1855960E+000  0.9352920E+02  0.7546771E-02  0.1294523E+00
         21   -1    0    0  501  502  0.00000000000E+00  0.00000000000E+00  0.19529735206E+04  0.19529735206E+04  0.00000000000E+00 0. -1.
         21   -1    0    0  502  503 -0.00000000000E+00 -0.00000000000E+00 -0.66150130103E+02  0.66150130103E+02  0.00000000000E+00 0.  1.
         24    1    1    2    0    0 -0.54772492797E+02 -0.84557249646E+01  0.10851199515E+03  0.14599176106E+03  0.80419002446E+02 0.  0.
          1    1    1    2  501    0  0.29809003518E+02 -0.30805329903E+02  0.18139929111E+04  0.18144993322E+04  0.00000000000E+00 0. -1.
         -2    1    1    2    0  503  0.24963489280E+02  0.39261054867E+02 -0.35681515748E+02  0.58632557443E+02  0.00000000000E+00 0.  1.
<mgrwt>
<rscale>  2 0.93529202E+02</rscale>
<asrwt>0</asrwt>
<pdfrwt beam="1">  1       21 0.30045742E+00 0.93529202E+02</pdfrwt>
<pdfrwt beam="2">  1       21 0.10176945E-01 0.93529202E+02</pdfrwt>
<totfact> 0.31514647E+03</totfact>
</mgrwt>
</event>
<event>
 5    1  0.1855960E+000  0.9341343E+02  0.7546771E-02  0.1294790E+00
         21   -1    0    0  501  502  0.00000000000E+00  0.00000000000E+00  0.54742672610E+02  0.54742672610E+02  0.00000000000E+00 0. -1.
         21   -1    0    0  502  503 -0.00000000000E+00 -0.00000000000E+00 -0.18464467134E+03  0.18464467134E+03  0.00000000000E+00 0.  1.
         24    1    1    2    0    0  0.46485610477E+02 -0.12924664104E-01 -0.10799504102E+03  0.14244668121E+03  0.80419002446E+02 0.  1.
          1    1    1    2  501    0  0.22362838157E+02  0.97679060540E+01 -0.13974718922E+01  0.24443024502E+02  0.00000000000E+00 0. -1.
         -2    1    1    2    0  503 -0.68848448634E+02 -0.97549813899E+01 -0.20509485811E+02  0.72497638234E+02  0.00000000000E+00 0.  1.
<mgrwt>
<rscale>  2 0.93413428E+02</rscale>
<asrwt>0</asrwt>
<pdfrwt beam="1">  1       21 0.84219496E-02 0.93413428E+02</pdfrwt>
<pdfrwt beam="2">  1       21 0.28406873E-01 0.93413428E+02</pdfrwt>
<totfact> 0.12899636E+06</totfact>
</mgrwt>
</event>
<event>
 5    1  0.1855960E+000  0.9807592E+02  0.7546771E-02  0.1284395E+00
         21   -1    0    0  503  502  0.00000000000E+00  0.00000000000E+00  0.24776466559E+03  0.24776466559E+03  0.00000000000E+00 0.  1.
         21   -1    0    0  501  503 -0.00000000000E+00 -0.00000000000E+00 -0.48228377143E+02  0.48228377143E+02  0.00000000000E+00 0.  1.
         24    1    1    2    0    0 -0.19878310668E+02  0.31409404899E+02  0.12666523667E+03  0.15457359440E+03  0.80419002446E+02 0.  1.
          1    1    1    2  501    0 -0.99988584082E+01  0.34111313319E+02 -0.43737835567E+01  0.35814645725E+02  0.00000000000E+00 0. -1.
         -2    1    1    2    0  502  0.29877169076E+02 -0.65520718217E+02  0.77244835326E+02  0.10560480260E+03  0.00000000000E+00 0.  1.
<mgrwt>
<rscale>  2 0.98075924E+02</rscale>
<asrwt>0</asrwt>
<pdfrwt beam="1">  1       21 0.38117640E-01 0.98075924E+02</pdfrwt>
<pdfrwt beam="2">  1       21 0.74197504E-02 0.98075924E+02</pdfrwt>
<totfact> 0.90786111E+05</totfact>
</mgrwt>
</event>
<event>
 5    1  0.3317868E+000  0.8309781E+02  0.7546771E-02  0.1320483E+00
         21   -1    0    0  503  502  0.00000000000E+00  0.00000000000E+00  0.10492329415E+03  0.10492329415E+03  0.00000000000E+00 0. -1.
         21   -1    0    0  501  503 -0.00000000000E+00 -0.00000000000E+00 -0.54839507578E+03  0.54839507578E+03  0.00000000000E+00 0. -1.
         24    1    1    2    0    0 -0.35062685081E+02  0.26134961063E+02  0.73013935444E+02  0.11709260779E+03  0.80419002446E+02 0. -1.
          1    1    1    2  501    0  0.36887729372E+02  0.10201949596E+02 -0.48933400395E+03  0.49082843415E+03  0.00000000000E+00 0. -1.
         -2    1    1    2    0  502 -0.18250442908E+01 -0.36336910659E+02 -0.27151713123E+02  0.45397327987E+02  0.00000000000E+00 0.  1.
<mgrwt>
<rscale>  2 0.83097805E+02</rscale>
<asrwt>0</asrwt>
<pdfrwt beam="1">  1       21 0.16142045E-01 0.83097805E+02</pdfrwt>
<pdfrwt beam="2">  1       21 0.84368473E-01 0.83097805E+02</pdfrwt>
<totfact> 0.44740736E+04</totfact>
</mgrwt>
</event>
<event>
 5    1  0.1855960E+000  0.9890631E+02  0.7546771E-02  0.1282613E+00
         21   -1    0    0  503  502  0.00000000000E+00  0.00000000000E+00  0.23471615056E+03  0.23471615056E+03  0.00000000000E+00 0. -1.
         21   -1    0    0  501  503 -0.00000000000E+00 -0.00000000000E+00 -0.43314497433E+02  0.43314497433E+02  0.00000000000E+00 0.  1.
         24    1    1    2    0    0 -0.28558807323E+01  0.81741247359E+02  0.13371631949E+03  0.17617337378E+03  0.80419002446E+02 0.  0.
          1    1    1    2  501    0  0.81759484626E+01 -0.29985075244E+02  0.14759435542E+02  0.34406275709E+02  0.00000000000E+00 0. -1.
         -2    1    1    2    0  502 -0.53200677302E+01 -0.51756172114E+02  0.42925898088E+02  0.67450998505E+02  0.00000000000E+00 0.  1.
<mgrwt>
<rscale>  2 0.98906307E+02</rscale>
<asrwt>0</asrwt>
<pdfrwt beam="1">  1       21 0.36110176E-01 0.98906307E+02</pdfrwt>
<pdfrwt beam="2">  1       21 0.66637690E-02 0.98906307E+02</pdfrwt>
<totfact> 0.12120531E+06</totfact>
</mgrwt>
</event>
<event>
 5    1  0.1855960E+000  0.9979990E+02  0.7546771E-02  0.1280717E+00
         21   -1    0    0  503  502  0.00000000000E+00  0.00000000000E+00  0.24332903807E+03  0.24332903807E+03  0.00000000000E+00 0. -1.
         21   -1    0    0  501  503 -0.00000000000E+00 -0.00000000000E+00 -0.64381026272E+02  0.64381026272E+02  0.00000000000E+00 0.  1.
         24    1    1    2    0    0  0.26375164891E+02  0.52814153462E+02  0.12365224329E+03  0.15887755459E+03  0.80419002446E+02 0. -1.
          1    1    1    2  501    0 -0.25250287301E+02  0.16727473615E+02 -0.27354398518E+02  0.40812357204E+02  0.00000000000E+00 0. -1.
         -2    1    1    2    0  502 -0.11248775896E+01 -0.69541627077E+02  0.82650167025E+02  0.10802015254E+03  0.00000000000E+00 0.  1.
<mgrwt>
<rscale>  2 0.99799904E+02</rscale>
<asrwt>0</asrwt>
<pdfrwt beam="1">  1       21 0.37435236E-01 0.99799904E+02</pdfrwt>
<pdfrwt beam="2">  1       21 0.99047734E-02 0.99799904E+02</pdfrwt>
<totfact> 0.57245342E+05</totfact>
</mgrwt>
</event>
<event>
 5    1  0.1855960E+000  0.7411275E+02  0.7546771E-02  0.1346641E+00
         21   -1    0    0  501  502  0.00000000000E+00  0.00000000000E+00  0.48793395163E+02  0.48793395163E+02  0.00000000000E+00 0.  1.
         21   -1    0    0  502  503 -0.00000000000E+00 -0.00000000000E+00 -0.13972610674E+03  0.13972610674E+03  0.00000000000E+00 0. -1.
         24    1    1    2    0    0 -0.43123239739E+02 -0.67421736110E+00 -0.14341604054E+02  0.92374054452E+02  0.80419002446E+02 0.  1.
          1    1    1    2  501    0  0.19635815367E+02 -0.18251269245E+02 -0.26641118381E+02  0.37794487200E+02  0.00000000000E+00 0. -1.
         -2    1    1    2    0  503  0.23487424372E+02  0.18925486606E+02 -0.49949989145E+02  0.58350960254E+02  0.00000000000E+00 0.  1.
<mgrwt>
<rscale>  2 0.74112746E+02</rscale>
<asrwt>0</asrwt>
<pdfrwt beam="1">  1       21 0.75066764E-02 0.74112746E+02</pdfrwt>
<pdfrwt beam="2">  1       21 0.21496324E-01 0.74112746E+02</pdfrwt>
<totfact> 0.26152547E+06</totfact>
</mgrwt>
</event>
<event>
 5    1  0.1855960E+000  0.8014039E+02  0.7546771E-02  0.1328654E+00
         21   -1    0    0  501  502  0.00000000000E+00  0.00000000000E+00  0.93879804320E+02  0.93879804320E+02  0.00000000000E+00 0. -1.
         21   -1    0    0  502  503 -0.00000000000E+00 -0.00000000000E+00 -0.78813597973E+02  0.78813597973E+02  0.00000000000E+00 0.  1.
         24    1    1    2    0    0 -0.52222106294E+02  0.56058305237E+01  0.25257235325E+01  0.96084176405E+02  0.80419002446E+02 0.  0.
          1    1    1    2  501    0  0.17783463830E+02  0.15709447032E+02  0.24770274795E+02  0.34301673797E+02  0.00000000000E+00 0. -1.
         -2    1    1    2    0  503  0.34438642464E+02 -0.21315277556E+02 -0.12229791980E+02  0.42307552091E+02  0.00000000000E+00 0.  1.
<mgrwt>
<rscale>  2 0.80140387E+02</rscale>
<asrwt>0</asrwt>
<pdfrwt beam="1">  1       21 0.14443047E-01 0.80140387E+02</pdfrwt>
<pdfrwt beam="2">  1       21 0.12125169E-01 0.80140387E+02</pdfrwt>
<totfact> 0.23563575E+06</totfact>
</mgrwt>
</event>
<event>
 5    1  0.1855960E+000  0.7917865E+02  0.7546771E-02  0.1331399E+00
         21   -1    0    0  503  502  0.00000000000E+00  0.00000000000E+00  0.57779106116E+02  0.57779106116E+02  0.00000000000E+00 0. -1.
         21   -1    0    0  501  503 -0.00000000000E+00 -0.00000000000E+00 -0.29389844191E+03  0.29389844191E+03  0.00000000000E+00 0. -1.
         24    1    1    2    0    0 -0.46223024451E+02  0.32719240504E+01 -0.11974052071E+03  0.15150010472E+03  0.80419002446E+02 0. -1.
          1    1    1    2  501    0  0.21878121529E+02  0.21596592484E+02 -0.14920394973E+03  0.15233805704E+03  0.00000000000E+00 0. -1.
         -2    1    1    2    0  502  0.24344902922E+02 -0.24868516535E+02  0.32825134649E+02  0.47839386259E+02  0.00000000000E+00 0.  1.
<mgrwt>
<rscale>  2 0.79178648E+02</rscale>
<asrwt>0</asrwt>
<pdfrwt beam="1">  1       21 0.88890934E-02 0.79178648E+02</pdfrwt>
<pdfrwt beam="2">  1       21 0.45215144E-01 0.79178648E+02</pdfrwt>
<totfact> 0.47420922E+05</totfact>
</mgrwt>
</event>
<event>
 5    1  0.1855960E+000  0.9815971E+02  0.7546771E-02  0.1284214E+00
         21   -1    0    0  501  502  0.00000000000E+00  0.00000000000E+00  0.45771370163E+03  0.45771370163E+03  0.00000000000E+00 0. -1.
         21   -1    0    0  502  503 -0.00000000000E+00 -0.00000000000E+00 -0.29508538254E+02  0.29508538254E+02  0.00000000000E+00 0. -1.
         24    1    1    2    0    0 -0.25530088322E+02 -0.39384424929E+02  0.82692546933E+02  0.12453188993E+03  0.80419002446E+02 0. -1.
          1    1    1    2  501    0  0.60443488907E+02  0.23544028233E+02  0.27372995381E+03  0.28131090315E+03  0.00000000000E+00 0. -1.
         -2    1    1    2    0  503 -0.34913400585E+02  0.15840396696E+02  0.71782662628E+02  0.81379446802E+02  0.00000000000E+00 0.  1.
<mgrwt>
<rscale>  2 0.98159713E+02</rscale>
<asrwt>0</asrwt>
<pdfrwt beam="1">  1       21 0.70417487E-01 0.98159713E+02</pdfrwt>
<pdfrwt beam="2">  1       21 0.45397755E-02 0.98159713E+02</pdfrwt>
<totfact> 0.58513032E+05</totfact>
</mgrwt>
</event>
<event>
 5    1  0.1855960E+000  0.1220490E+03  0.7546771E-02  0.1239755E+00
         21   -1    0    0  503  502  0.00000000000E+00  0.00000000000E+00  0.27368992170E+03  0.27368992170E+03  0.00000000000E+00 0.  1.
         21   -1    0    0  501  503 -0.00000000000E+00 -0.00000000000E+00 -0.17104118018E+03  0.17104118018E+03  0.00000000000E+00 0.  1.
         24    1    1    2    0    0 -0.88811342674E+02 -0.30764737896E+02 -0.11725594388E+03  0.17044088716E+03  0.80419002446E+02 0.  1.
          1    1    1    2  501    0  0.22124534498E+02  0.46840876205E+02  0.90884168252E+01  0.52594315575E+02  0.00000000000E+00 0. -1.
         -2    1    1    2    0  502  0.66686808175E+02 -0.16076138309E+02  0.21081626857E+03  0.22169589915E+03  0.00000000000E+00 0.  1.
<mgrwt>
<rscale>  2 0.12204903E+03</rscale>
<asrwt>0</asrwt>
<pdfrwt beam="1">  1       21 0.42106142E-01 0.12204903E+03</pdfrwt>
<pdfrwt beam="2">  1       21 0.26314028E-01 0.12204903E+03</pdfrwt>
<totfact> 0.76859009E+04</totfact>
</mgrwt>
</event>
<event>
 5    1  0.1855960E+000  0.7277169E+02  0.7546771E-02  0.1350914E+00
         21   -1    0    0  501  502  0.00000000000E+00  0.00000000000E+00  0.28036123807E+03  0.28036123807E+03  0.00000000000E+00 0. -1.
         21   -1    0    0  502  503 -0.00000000000E+00 -0.00000000000E+00 -0.34926388764E+02  0.34926388764E+02  0.00000000000E+00 0. -1.
         24    1    1    2    0    0  0.29625626973E+02  0.19411915626E+02  0.66969507575E+02  0.11048362386E+03  0.80419002446E+02 0. -1.
          1    1    1    2  501    0 -0.36131506881E+02  0.11029373820E+01  0.17964899426E+03  0.18324972960E+03  0.00000000000E+00 0. -1.
         -2    1    1    2    0  503  0.65058799078E+01 -0.20514853008E+02 -0.11836525308E+01  0.21554273373E+02  0.00000000000E+00 0.  1.
<mgrwt>
<rscale>  2 0.72771691E+02</rscale>
<asrwt>0</asrwt>
<pdfrwt beam="1">  1       21 0.43132497E-01 0.72771691E+02</pdfrwt>
<pdfrwt beam="2">  1       21 0.53732908E-02 0.72771691E+02</pdfrwt>
<totfact> 0.12156352E+06</totfact>
</mgrwt>
</event>
<event>
 5    1  0.1855960E+000  0.9841295E+02  0.7546771E-02  0.1283669E+00
         21   -1    0    0  503  502  0.00000000000E+00  0.00000000000E+00  0.21197921126E+02  0.21197921126E+02  0.00000000000E+00 0. -1.
         21   -1    0    0  501  503 -0.00000000000E+00 -0.00000000000E+00 -0.55814588162E+03  0.55814588162E+03  0.00000000000E+00 0.  1.
         24    1    1    2    0    0 -0.59357586588E+02 -0.40555351080E+02 -0.38972639909E+03  0.40437846344E+03  0.80419002446E+02 0.  0.
          1    1    1    2  501    0  0.19195452527E+02 -0.12133384689E+02 -0.68008303007E+02  0.71699467917E+02  0.00000000000E+00 0. -1.
         -2    1    1    2    0  502  0.40162134060E+02  0.52688735769E+02 -0.79213258398E+02  0.10326587140E+03  0.00000000000E+00 0.  1.
<mgrwt>
<rscale>  2 0.98412951E+02</rscale>
<asrwt>0</asrwt>
<pdfrwt beam="1">  1       21 0.32612187E-02 0.98412951E+02</pdfrwt>
<pdfrwt beam="2">  1       21 0.85868597E-01 0.98412951E+02</pdfrwt>
<totfact> 0.65157211E+05</totfact>
</mgrwt>
</event>
<event>
 5    1  0.1855960E+000  0.1047078E+03  0.7546771E-02  0.1270696E+00
         21   -1    0    0  503  502  0.00000000000E+00  0.00000000000E+00  0.44121485731E+02  0.44121485731E+02  0.00000000000E+00 0. -1.
         21   -1    0    0  501  503 -0.00000000000E+00 -0.00000000000E+00 -0.30852268740E+03  0.30852268740E+03  0.00000000000E+00 0.  1.
         24    1    1    2    0    0  0.19699620785E+01  0.25273659441E+02 -0.18740330264E+03  0.20549903262E+03  0.80419002446E+02 0.  0.
          1    1    1    2  501    0  0.41778208741E+02  0.32284449545E+02 -0.27536933494E+02  0.59548191528E+02  0.00000000000E+00 0. -1.
         -2    1    1    2    0  502 -0.43748170819E+02 -0.57558108986E+02 -0.49460965538E+02  0.87596948988E+02  0.00000000000E+00 0.  1.
<mgrwt>
<rscale>  2 0.10470777E+03</rscale>
<asrwt>0</asrwt>
<pdfrwt beam="1">  1       21 0.67879209E-02 0.10470777E+03</pdfrwt>
<pdfrwt beam="2">  1       21 0.47465028E-01 0.10470777E+03</pdfrwt>
<totfact> 0.68116714E+05</totfact>
</mgrwt>
</event>
<event>
 5    1  0.1855960E+000  0.6960336E+02  0.7546771E-02  0.1361447E+00
         21   -1    0    0  503  502  0.00000000000E+00  0.00000000000E+00  0.12050357408E+03  0.12050357408E+03  0.00000000000E+00 0.  1.
         21   -1    0    0  501  503 -0.00000000000E+00 -0.00000000000E+00 -0.81481356678E+02  0.81481356678E+02  0.00000000000E+00 0.  1.
         24    1    1    2    0    0 -0.13132463649E+02  0.57675509414E+01 -0.36100506365E+02  0.89309511025E+02  0.80419002446E+02 0.  1.
          1    1    1    2  501    0 -0.28393262627E+01 -0.29102742621E+02 -0.31893349853E+01  0.29414337649E+02  0.00000000000E+00 0. -1.
         -2    1    1    2    0  502  0.15971789911E+02  0.23335191680E+02  0.78312058757E+02  0.83261082088E+02  0.00000000000E+00 0.  1.
<mgrwt>
<rscale>  2 0.69603358E+02</rscale>
<asrwt>0</asrwt>
<pdfrwt beam="1">  1       21 0.18539011E-01 0.69603358E+02</pdfrwt>
<pdfrwt beam="2">  1       21 0.12535593E-01 0.69603358E+02</pdfrwt>
<totfact> 0.14136903E+06</totfact>
</mgrwt>
</event>
<event>
 5    1  0.1855960E+000  0.8853171E+02  0.7546771E-02  0.1306447E+00
         21   -1    0    0  503  502  0.00000000000E+00  0.00000000000E+00  0.99454662182E+02  0.99454662182E+02  0.00000000000E+00 0.  1.
         21   -1    0    0  501  503 -0.00000000000E+00 -0.00000000000E+00 -0.90766555577E+02  0.90766555577E+02  0.00000000000E+00 0. -1.
         24    1    1    2    0    0  0.26535674306E+02  0.36677740421E+02 -0.29482408091E+02  0.96880477882E+02  0.80419002446E+02 0. -1.
          1    1    1    2  501    0 -0.28918943572E+02 -0.57212149820E+02  0.24878382749E+02  0.68763866329E+02  0.00000000000E+00 0. -1.
         -2    1    1    2    0  502  0.23832692657E+01  0.20534409398E+02  0.13292131947E+02  0.24576873549E+02  0.00000000000E+00 0.  1.
<mgrwt>
<rscale>  2 0.88531707E+02</rscale>
<asrwt>0</asrwt>
<pdfrwt beam="1">  1       21 0.15300717E-01 0.88531707E+02</pdfrwt>
<pdfrwt beam="2">  1       21 0.13964086E-01 0.88531707E+02</pdfrwt>
<totfact> 0.16649824E+06</totfact>
</mgrwt>
</event>
<event>
 5    1  0.1855960E+000  0.1110411E+03  0.7546771E-02  0.1258654E+00
         21   -1    0    0  503  502  0.00000000000E+00  0.00000000000E+00  0.96625883779E+02  0.96625883779E+02  0.00000000000E+00 0.  1.
         21   -1    0    0  501  503 -0.00000000000E+00 -0.00000000000E+00 -0.40908343397E+03  0.40908343397E+03  0.00000000000E+00 0. -1.
         24    1    1    2    0    0  0.40133814090E+02  0.92940607486E+00 -0.33591486650E+03  0.34773208123E+03  0.80419002446E+02 0. -1.
          1    1    1    2  501    0  0.35477475974E+02 -0.34486372750E+02 -0.31508299657E+02  0.58657771473E+02  0.00000000000E+00 0. -1.
         -2    1    1    2    0  502 -0.75611290064E+02  0.33556966675E+02  0.54965615966E+02  0.99319465041E+02  0.00000000000E+00 0.  1.
<mgrwt>
<rscale>  2 0.11104115E+03</rscale>
<asrwt>0</asrwt>
<pdfrwt beam="1">  1       21 0.14865521E-01 0.11104115E+03</pdfrwt>
<pdfrwt beam="2">  1       21 0.62935912E-01 0.11104115E+03</pdfrwt>
<totfact> 0.96412471E+04</totfact>
</mgrwt>
</event>
<event>
 5    1  0.1855960E+000  0.9333946E+02  0.7546771E-02  0.1294960E+00
         21   -1    0    0  501  502  0.00000000000E+00  0.00000000000E+00  0.26622743108E+04  0.26622743108E+04  0.00000000000E+00 0. -1.
         21   -1    0    0  502  503 -0.00000000000E+00 -0.00000000000E+00 -0.45010316244E+01  0.45010316244E+01  0.00000000000E+00 0. -1.
         24    1    1    2    0    0  0.64062676799E+02  0.16742719949E+02  0.76654739680E+03  0.77359322175E+03  0.80419002446E+02 0. -1.
          1    1    1    2  501    0 -0.59779028181E+02  0.53368856423E+01  0.15827002991E+04  0.15838378235E+04  0.00000000000E+00 0. -1.
         -2    1    1    2    0  503 -0.42836486181E+01 -0.22079605591E+02  0.30852558332E+03  0.30934429717E+03  0.00000000000E+00 0.  1.
<mgrwt>
<rscale>  2 0.93339457E+02</rscale>
<asrwt>0</asrwt>
<pdfrwt beam="1">  1       21 0.40957940E+00 0.93339457E+02</pdfrwt>
<pdfrwt beam="2">  1       21 0.69246853E-03 0.93339457E+02</pdfrwt>
<totfact> 0.59242721E+04</totfact>
</mgrwt>
</event>
<event>
 5    1  0.1855960E+000  0.1133566E+03  0.7546771E-02  0.1254477E+00
         21   -1    0    0  501  502  0.00000000000E+00  0.00000000000E+00  0.11413170308E+03  0.11413170308E+03  0.00000000000E+00 0. -1.
         21   -1    0    0  502  503 -0.00000000000E+00 -0.00000000000E+00 -0.16041381162E+03  0.16041381162E+03  0.00000000000E+00 0.  1.
         24    1    1    2    0    0  0.13487041034E+02 -0.12292651702E+02 -0.57087079337E+02  0.10029536452E+03  0.80419002446E+02 0.  0.
          1    1    1    2  501    0 -0.74650145837E+02  0.30186921793E+02  0.54277141038E+02  0.97107685381E+02  0.00000000000E+00 0. -1.
         -2    1    1    2    0  503  0.61163104803E+02 -0.17894270091E+02 -0.43472170241E+02  0.77142464808E+02  0.00000000000E+00 0.  1.
<mgrwt>
<rscale>  2 0.11335656E+03</rscale>
<asrwt>0</asrwt>
<pdfrwt beam="1">  1       21 0.17558724E-01 0.11335656E+03</pdfrwt>
<pdfrwt beam="2">  1       21 0.24679048E-01 0.11335656E+03</pdfrwt>
<totfact> 0.46096640E+05</totfact>
</mgrwt>
</event>
<event>
 5    1  0.1855960E+000  0.8361903E+02  0.7546771E-02  0.1319084E+00
         21   -1    0    0  503  502  0.00000000000E+00  0.00000000000E+00  0.55519432759E+03  0.55519432759E+03  0.00000000000E+00 0. -1.
         21   -1    0    0  501  503 -0.00000000000E+00 -0.00000000000E+00 -0.32597561387E+02  0.32597561387E+02  0.00000000000E+00 0.  1.
         24    1    1    2    0    0 -0.54780802860E+02 -0.25676407676E+02  0.25934245577E+03  0.27818328417E+03  0.80419002446E+02 0.  0.
          1    1    1    2  501    0  0.22261764355E+02 -0.39528245020E+01 -0.15494448813E+02  0.27409650085E+02  0.00000000000E+00 0. -1.
         -2    1    1    2    0  502  0.32519038504E+02  0.29629232178E+02  0.27874875925E+03  0.28219895472E+03  0.00000000000E+00 0.  1.
<mgrwt>
<rscale>  2 0.83619027E+02</rscale>
<asrwt>0</asrwt>
<pdfrwt beam="1">  1       21 0.85414505E-01 0.83619027E+02</pdfrwt>
<pdfrwt beam="2">  1       21 0.50150098E-02 0.83619027E+02</pdfrwt>
<totfact> 0.32500077E+05</totfact>
</mgrwt>
</event>
<event>
 5    1  0.1855960E+000  0.8935621E+02  0.7546771E-02  0.1304418E+00
         21   -1    0    0  501  502  0.00000000000E+00  0.00000000000E+00  0.25596382429E+03  0.25596382429E+03  0.00000000000E+00 0. -1.
         21   -1    0    0  502  503 -0.00000000000E+00 -0.00000000000E+00 -0.32883280251E+02  0.32883280251E+02  0.00000000000E+00 0. -1.
         24    1    1    2    0    0  0.39510515184E+02  0.19699281679E+02  0.93430659087E+02  0.13094138582E+03  0.80419002446E+02 0. -1.
          1    1    1    2  501    0 -0.50621906759E+02 -0.39538407001E+02  0.11203518436E+03  0.12914234629E+03  0.00000000000E+00 0. -1.
         -2    1    1    2    0  503  0.11111391575E+02  0.19839125322E+02  0.17614700591E+02  0.28763372424E+02  0.00000000000E+00 0.  1.
<mgrwt>
<rscale>  2 0.89356207E+02</rscale>
<asrwt>0</asrwt>
<pdfrwt beam="1">  1       21 0.39379049E-01 0.89356207E+02</pdfrwt>
<pdfrwt beam="2">  1       21 0.50589664E-02 0.89356207E+02</pdfrwt>
<totfact> 0.16195220E+06</totfact>
</mgrwt>
</event>
<event>
 5    1  0.1855960E+000  0.1219809E+03  0.7546771E-02  0.1239864E+00
         21   -1    0    0  501  502  0.00000000000E+00  0.00000000000E+00  0.52025740723E+03  0.52025740723E+03  0.00000000000E+00 0. -1.
         21   -1    0    0  502  503 -0.00000000000E+00 -0.00000000000E+00 -0.22370341090E+03  0.22370341090E+03  0.00000000000E+00 0.  1.
         24    1    1    2    0    0 -0.63346908636E+02 -0.11265466330E+02 -0.99525656602E+02  0.14322120598E+03  0.80419002446E+02 0.  1.
          1    1    1    2  501    0 -0.37353788902E+02 -0.85984633944E+01  0.47169686202E+03  0.47325169704E+03  0.00000000000E+00 0. -1.
         -2    1    1    2    0  503  0.10070069754E+03  0.19863929725E+02 -0.75617209089E+02  0.12748791511E+03  0.00000000000E+00 0.  1.
<mgrwt>
<rscale>  2 0.12198095E+03</rscale>
<asrwt>0</asrwt>
<pdfrwt beam="1">  1       21 0.80039601E-01 0.12198095E+03</pdfrwt>
<pdfrwt beam="2">  1       21 0.34415909E-01 0.12198095E+03</pdfrwt>
<totfact> 0.11797576E+04</totfact>
</mgrwt>
</event>
<event>
 5    1  0.1855960E+000  0.6635335E+02  0.7546771E-02  0.1372952E+00
         21   -1    0    0  503  502  0.00000000000E+00  0.00000000000E+00  0.10805212062E+03  0.10805212062E+03  0.00000000000E+00 0. -1.
         21   -1    0    0  501  503 -0.00000000000E+00 -0.00000000000E+00 -0.80079773749E+02  0.80079773749E+02  0.00000000000E+00 0.  1.
         24    1    1    2    0    0 -0.17144534848E+02  0.37183595613E+02  0.78896860886E+02  0.11986861754E+03  0.80419002446E+02 0. -1.
          1    1    1    2  501    0  0.13582786657E+02 -0.16022265822E+02 -0.37409218349E+02  0.42902852037E+02  0.00000000000E+00 0. -1.
         -2    1    1    2    0  502  0.35617481910E+01 -0.21161329791E+02 -0.13515295669E+02  0.25360424793E+02  0.00000000000E+00 0.  1.
<mgrwt>
<rscale>  2 0.66353354E+02</rscale>
<asrwt>0</asrwt>
<pdfrwt beam="1">  1       21 0.16623403E-01 0.66353354E+02</pdfrwt>
<pdfrwt beam="2">  1       21 0.12319965E-01 0.66353354E+02</pdfrwt>
<totfact> 0.17682640E+06</totfact>
</mgrwt>
</event>
<event>
 5    1  0.1855960E+000  0.8428478E+02  0.7546771E-02  0.1317314E+00
         21   -1    0    0  503  502  0.00000000000E+00  0.00000000000E+00  0.32037751332E+02  0.32037751332E+02  0.00000000000E+00 0. -1.
         21   -1    0    0  501  503 -0.00000000000E+00 -0.00000000000E+00 -0.38267717002E+03  0.38267717002E+03  0.00000000000E+00 0.  1.
         24    1    1    2    0    0  0.89391453104E+01  0.51644459519E+02 -0.14307769263E+03  0.17229480723E+03  0.80419002446E+02 0. -1.
          1    1    1    2  501    0  0.18635276689E+02 -0.36830845228E+02 -0.20703959006E+03  0.21111413157E+03  0.00000000000E+00 0. -1.
         -2    1    1    2    0  502 -0.27574421999E+02 -0.14813614291E+02 -0.52213599729E+00  0.31305982543E+02  0.00000000000E+00 0.  1.
<mgrwt>
<rscale>  2 0.84284784E+02</rscale>
<asrwt>0</asrwt>
<pdfrwt beam="1">  1       21 0.49288850E-02 0.84284784E+02</pdfrwt>
<pdfrwt beam="2">  1       21 0.58873409E-01 0.84284784E+02</pdfrwt>
<totfact> 0.74673601E+05</totfact>
</mgrwt>
</event>
<event>
 5    1  0.1855960E+000  0.1156853E+03  0.7546771E-02  0.1250390E+00
         21   -1    0    0  503  502  0.00000000000E+00  0.00000000000E+00  0.33576777105E+02  0.33576777105E+02  0.00000000000E+00 0. -1.
         21   -1    0    0  501  503 -0.00000000000E+00 -0.00000000000E+00 -0.41158999371E+03  0.41158999371E+03  0.00000000000E+00 0. -1.
         24    1    1    2    0    0 -0.12535934252E+01  0.79516218487E+02 -0.17229849249E+03  0.20610285532E+03  0.80419002446E+02 0. -1.
          1    1    1    2  501    0 -0.16352034915E+02 -0.94037752567E+02 -0.18532395589E+03  0.20845972412E+03  0.00000000000E+00 0. -1.
         -2    1    1    2    0  502  0.17605628341E+02  0.14521534080E+02 -0.20390768221E+02  0.30604191379E+02  0.00000000000E+00 0.  1.
<mgrwt>
<rscale>  2 0.11568534E+03</rscale>
<asrwt>0</asrwt>
<pdfrwt beam="1">  1       21 0.51656583E-02 0.11568534E+03</pdfrwt>
<pdfrwt beam="2">  1       21 0.63321534E-01 0.11568534E+03</pdfrwt>
<totfact> 0.59224029E+05</totfact>
</mgrwt>
</event>
<event>
 5    1  0.1855960E+000  0.8136011E+02  0.7546771E-02  0.1325235E+00
         21   -1    0    0  501  502  0.00000000000E+00  0.00000000000E+00  0.25847603647E+02  0.25847603647E+02  0.00000000000E+00 0.  1.
         21   -1    0    0  502  503 -0.00000000000E+00 -0.00000000000E+00 -0.10613196412E+04  0.10613196412E+04  0.00000000000E+00 0.  1.
         24    1    1    2    0    0 -0.15894381617E+02  0.42118088789E+02 -0.73733430199E+02  0.11802711321E+03  0.80419002446E+02 0.  1.
          1    1    1    2  501    0  0.35917694428E+02 -0.21716112422E+02 -0.12394227435E+03  0.13085624816E+03  0.00000000000E+00 0. -1.
         -2    1    1    2    0  503 -0.20023312811E+02 -0.20401976367E+02 -0.83779633302E+03  0.83828388349E+03  0.00000000000E+00 0.  1.
<mgrwt>
<rscale>  2 0.81360108E+02</rscale>
<asrwt>0</asrwt>
<pdfrwt beam="1">  1       21 0.39765552E-02 0.81360108E+02</pdfrwt>
<pdfrwt beam="2">  1       21 0.16327991E+00 0.81360108E+02</pdfrwt>
<totfact> 0.10084215E+05</totfact>
</mgrwt>
</event>
<event>
 5    1  0.1855960E+000  0.7448099E+02  0.7546771E-02  0.1345486E+00
         21   -1    0    0  503  502  0.00000000000E+00  0.00000000000E+00  0.22570034371E+02  0.22570034371E+02  0.00000000000E+00 0. -1.
         21   -1    0    0  501  503 -0.00000000000E+00 -0.00000000000E+00 -0.32135124029E+03  0.32135124029E+03  0.00000000000E+00 0.  1.
         24    1    1    2    0    0  0.49242921907E+01 -0.30612551414E+02 -0.12362897915E+03  0.15070738999E+03  0.80419002446E+02 0.  0.
          1    1    1    2  501    0 -0.29774943697E+02  0.14169556842E+02 -0.15184268027E+03  0.15538186240E+03  0.00000000000E+00 0. -1.
         -2    1    1    2    0  502  0.24850651507E+02  0.16442994571E+02 -0.23309546503E+02  0.37832022269E+02  0.00000000000E+00 0.  1.
<mgrwt>
<rscale>  2 0.74480989E+02</rscale>
<asrwt>0</asrwt>
<pdfrwt beam="1">  1       21 0.34723131E-02 0.74480989E+02</pdfrwt>
<pdfrwt beam="2">  1       21 0.49438650E-01 0.74480989E+02</pdfrwt>
<totfact> 0.18964136E+06</totfact>
</mgrwt>
</event>
<event>
 5    1  0.1855960E+000  0.7834182E+02  0.7546771E-02  0.1333824E+00
         21   -1    0    0  503  502  0.00000000000E+00  0.00000000000E+00  0.64145340564E+03  0.64145340564E+03  0.00000000000E+00 0.  1.
         21   -1    0    0  501  503 -0.00000000000E+00 -0.00000000000E+00 -0.11494352325E+02  0.11494352325E+02  0.00000000000E+00 0. -1.
         24    1    1    2    0    0  0.20936294011E+02  0.21951812511E+02  0.34208754129E+03  0.35271987800E+03  0.80419002446E+02 0. -1.
          1    1    1    2  501    0 -0.43824240062E+02 -0.10159941818E+02  0.89272169012E+02  0.99966537376E+02  0.00000000000E+00 0. -1.
         -2    1    1    2    0  502  0.22887946051E+02 -0.11791870693E+02  0.19859934302E+03  0.20026134259E+03  0.00000000000E+00 0.  1.
<mgrwt>
<rscale>  2 0.78341821E+02</rscale>
<asrwt>0</asrwt>
<pdfrwt beam="1">  1       21 0.98685111E-01 0.78341821E+02</pdfrwt>
<pdfrwt beam="2">  1       21 0.17683624E-02 0.78341821E+02</pdfrwt>
<totfact> 0.12709699E+06</totfact>
</mgrwt>
</event>
<event>
 5    1  0.1855960E+000  0.7018117E+02  0.7546771E-02  0.1359478E+00
         21   -1    0    0  503  502  0.00000000000E+00  0.00000000000E+00  0.10997294298E+04  0.10997294298E+04  0.00000000000E+00 0. -1.
         21   -1    0    0  501  503 -0.00000000000E+00 -0.00000000000E+00 -0.49855793634E+01  0.49855793634E+01  0.00000000000E+00 0.  1.
         24    1    1    2    0    0  0.16285559514E+02 -0.87774554860E+01  0.59263146336E+03  0.59834900392E+03  0.80419002446E+02 0.  0.
          1    1    1    2  501    0 -0.13235048318E+02 -0.22668424789E+02  0.11459664688E+03  0.11756451617E+03  0.00000000000E+00 0. -1.
         -2    1    1    2    0  502 -0.30505111963E+01  0.31445880275E+02  0.38751574022E+03  0.38880148909E+03  0.00000000000E+00 0.  1.
<mgrwt>
<rscale>  2 0.70181165E+02</rscale>
<asrwt>0</asrwt>
<pdfrwt beam="1">  1       21 0.16918895E+00 0.70181165E+02</pdfrwt>
<pdfrwt beam="2">  1       21 0.76701309E-03 0.70181165E+02</pdfrwt>
<totfact> 0.12577429E+06</totfact>
</mgrwt>
</event>
<event>
 5    1  0.1855960E+000  0.9755795E+02  0.7546771E-02  0.1285517E+00
         21   -1    0    0  503  502  0.00000000000E+00  0.00000000000E+00  0.14200630590E+03  0.14200630590E+03  0.00000000000E+00 0.  1.
         21   -1    0    0  501  503 -0.00000000000E+00 -0.00000000000E+00 -0.11101039304E+03  0.11101039304E+03  0.00000000000E+00 0. -1.
         24    1    1    2    0    0  0.11109300016E+02 -0.21706796663E+02 -0.18280710484E+02  0.86000011037E+02  0.80419002446E+02 0. -1.
          1    1    1    2  501    0 -0.50217934357E+02  0.43387554349E+02 -0.32437095279E+02  0.73868030660E+02  0.00000000000E+00 0. -1.
         -2    1    1    2    0  502  0.39108634342E+02 -0.21680757686E+02  0.81713718621E+02  0.93148657235E+02  0.00000000000E+00 0.  1.
<mgrwt>
<rscale>  2 0.97557950E+02</rscale>
<asrwt>0</asrwt>
<pdfrwt beam="1">  1       21 0.21847124E-01 0.97557950E+02</pdfrwt>
<pdfrwt beam="2">  1       21 0.17078522E-01 0.97557950E+02</pdfrwt>
<totfact> 0.60873553E+05</totfact>
</mgrwt>
</event>
<event>
 5    1  0.1855960E+000  0.1155678E+03  0.7546771E-02  0.1250593E+00
         21   -1    0    0  501  502  0.00000000000E+00  0.00000000000E+00  0.11558755517E+03  0.11558755517E+03  0.00000000000E+00 0. -1.
         21   -1    0    0  502  503 -0.00000000000E+00 -0.00000000000E+00 -0.53260096883E+03  0.53260096883E+03  0.00000000000E+00 0.  1.
         24    1    1    2    0    0 -0.47715283603E+02  0.34714031182E+02 -0.20414373948E+03  0.22720848261E+03  0.80419002446E+02 0. -1.
          1    1    1    2  501    0  0.60504480840E+02 -0.70784884101E+02  0.81733274633E+02  0.12390165536E+03  0.00000000000E+00 0. -1.
         -2    1    1    2    0  503 -0.12789197237E+02  0.36070852919E+02 -0.29460294882E+03  0.29707838603E+03  0.00000000000E+00 0.  1.
<mgrwt>
<rscale>  2 0.11556780E+03</rscale>
<asrwt>0</asrwt>
<pdfrwt beam="1">  1       21 0.17782701E-01 0.11556780E+03</pdfrwt>
<pdfrwt beam="2">  1       21 0.81938611E-01 0.11556780E+03</pdfrwt>
<totfact> 0.39096914E+04</totfact>
</mgrwt>
</event>
<event>
 5    1  0.3454443E+000  0.9081362E+02  0.7546771E-02  0.1300893E+00
         21   -1    0    0  501  502  0.00000000000E+00  0.00000000000E+00  0.80947506244E+03  0.80947506244E+03  0.00000000000E+00 0.  1.
         21   -1    0    0  502  503 -0.00000000000E+00 -0.00000000000E+00 -0.29424822176E+03  0.29424822176E+03  0.00000000000E+00 0.  1.
         24    1    1    2    0    0 -0.14717044416E+02 -0.48508796879E+02  0.66961489598E+03  0.67632907644E+03  0.80419002446E+02 0.  1.
          1    1    1    2  501    0  0.21013702658E+02 -0.13016104967E+02  0.13205604898E+03  0.13434952460E+03  0.00000000000E+00 0. -1.
         -2    1    1    2    0  503 -0.62966582416E+01  0.61524901847E+02 -0.28644410428E+03  0.29304468316E+03  0.00000000000E+00 0.  1.
<mgrwt>
<rscale>  2 0.90813623E+02</rscale>
<asrwt>0</asrwt>
<pdfrwt beam="1">  1       21 0.12453462E+00 0.90813623E+02</pdfrwt>
<pdfrwt beam="2">  1       21 0.45268958E-01 0.90813623E+02</pdfrwt>
<totfact> 0.25504227E+03</totfact>
</mgrwt>
</event>
<event>
 5    1  0.1855960E+000  0.7706408E+02  0.7546771E-02  0.1337596E+00
         21   -1    0    0  501  502  0.00000000000E+00  0.00000000000E+00  0.95841772764E+01  0.95841772764E+01  0.00000000000E+00 0. -1.
         21   -1    0    0  502  503 -0.00000000000E+00 -0.00000000000E+00 -0.10644451315E+04  0.10644451315E+04  0.00000000000E+00 0.  1.
         24    1    1    2    0    0 -0.22168043636E+02  0.65776241266E+01 -0.22633992989E+03  0.24131238492E+03  0.80419002446E+02 0.  0.
          1    1    1    2  501    0 -0.23794193756E+02  0.12488995581E+01 -0.10388090152E+03  0.10657844579E+03  0.00000000000E+00 0. -1.
         -2    1    1    2    0  503  0.45962237392E+02 -0.78265236847E+01 -0.72464012283E+03  0.72613847809E+03  0.00000000000E+00 0.  1.
<mgrwt>
<rscale>  2 0.77064078E+02</rscale>
<asrwt>0</asrwt>
<pdfrwt beam="1">  1       21 0.14744886E-02 0.77064078E+02</pdfrwt>
<pdfrwt beam="2">  1       21 0.16376081E+00 0.77064078E+02</pdfrwt>
<totfact> 0.49404063E+05</totfact>
</mgrwt>
</event>
<event>
 5    1  0.1855960E+000  0.9719162E+02  0.7546771E-02  0.1286315E+00
         21   -1    0    0  503  502  0.00000000000E+00  0.00000000000E+00  0.70857852107E+03  0.70857852107E+03  0.00000000000E+00 0.  1.
         21   -1    0    0  501  503 -0.00000000000E+00 -0.00000000000E+00 -0.25614793337E+02  0.25614793337E+02  0.00000000000E+00 0. -1.
         24    1    1    2    0    0 -0.83769881487E+01  0.66655810204E+02  0.28864698341E+03  0.30707892789E+03  0.80419002446E+02 0.  0.
          1    1    1    2  501    0 -0.21758464735E+02 -0.51406840811E+02  0.34301910199E+02  0.65518814955E+02  0.00000000000E+00 0. -1.
         -2    1    1    2    0  502  0.30135452884E+02 -0.15248969393E+02  0.36001483412E+03  0.36159557157E+03  0.00000000000E+00 0.  1.
<mgrwt>
<rscale>  2 0.97191615E+02</rscale>
<asrwt>0</asrwt>
<pdfrwt beam="1">  1       21 0.10901207E+00 0.97191615E+02</pdfrwt>
<pdfrwt beam="2">  1       21 0.39407380E-02 0.97191615E+02</pdfrwt>
<totfact> 0.27567202E+05</totfact>
</mgrwt>
</event>
<event>
 5    1  0.1855960E+000  0.1436491E+03  0.7546771E-02  0.1208501E+00
         21   -1    0    0  503  502  0.00000000000E+00  0.00000000000E+00  0.55500681846E+03  0.55500681846E+03  0.00000000000E+00 0.  1.
         21   -1    0    0  501  503 -0.00000000000E+00 -0.00000000000E+00 -0.32981609163E+03  0.32981609163E+03  0.00000000000E+00 0. -1.
         24    1    1    2    0    0 -0.94945569452E+02 -0.80664110284E+02 -0.16581228188E+02  0.14920962747E+03  0.80419002446E+02 0.  0.
          1    1    1    2  501    0  0.31887014628E+02  0.67417183804E+02 -0.23909106125E+03  0.25045237859E+03  0.00000000000E+00 0. -1.
         -2    1    1    2    0  502  0.63058554824E+02  0.13246926480E+02  0.48086301626E+03  0.48516090404E+03  0.00000000000E+00 0.  1.
<mgrwt>
<rscale>  2 0.14364913E+03</rscale>
<asrwt>0</asrwt>
<pdfrwt beam="1">  1       21 0.85385664E-01 0.14364913E+03</pdfrwt>
<pdfrwt beam="2">  1       21 0.50740937E-01 0.14364913E+03</pdfrwt>
<totfact> 0.45739532E+03</totfact>
</mgrwt>
</event>
<event>
 5    1  0.1855960E+000  0.1362087E+03  0.7546771E-02  0.1218523E+00
         21   -1    0    0  503  502  0.00000000000E+00  0.00000000000E+00  0.10820292549E+03  0.10820292549E+03  0.00000000000E+00 0.  1.
         21   -1    0    0  501  503 -0.00000000000E+00 -0.00000000000E+00 -0.25678244507E+03  0.25678244507E+03  0.00000000000E+00 0. -1.
         24    1    1    2    0    0 -0.61392812265E+01 -0.97235083963E+02 -0.13598672546E+03  0.18561238585E+03  0.80419002446E+02 0. -1.
          1    1    1    2  501    0  0.38360894098E+02  0.10597173506E+03 -0.54996557620E+02  0.12540409952E+03  0.00000000000E+00 0. -1.
         -2    1    1    2    0  502 -0.32221612872E+02 -0.87366510944E+01  0.42403763506E+02  0.53968885183E+02  0.00000000000E+00 0.  1.
<mgrwt>
<rscale>  2 0.13620873E+03</rscale>
<asrwt>0</asrwt>
<pdfrwt beam="1">  1       21 0.16646604E-01 0.13620873E+03</pdfrwt>
<pdfrwt beam="2">  1       21 0.39504992E-01 0.13620873E+03</pdfrwt>
<totfact> 0.20340625E+05</totfact>
</mgrwt>
</event>
<event>
 5    1  0.1855960E+000  0.1008863E+03  0.7546771E-02  0.1278443E+00
         21   -1    0    0  503  502  0.00000000000E+00  0.00000000000E+00  0.14832432471E+04  0.14832432471E+04  0.00000000000E+00 0. -1.
         21   -1    0    0  501  503 -0.00000000000E+00 -0.00000000000E+00 -0.10207744614E+02  0.10207744614E+02  0.00000000000E+00 0.  1.
         24    1    1    2    0    0  0.67503449237E+02 -0.48148532329E+02  0.60803351132E+03  0.61890787979E+03  0.80419002446E+02 0.  0.
          1    1    1    2  501    0 -0.26479358377E+02  0.33504172393E+02  0.10581369245E+03  0.11410619395E+03  0.00000000000E+00 0. -1.
         -2    1    1    2    0  502 -0.41024090861E+02  0.14644359936E+02  0.75918829869E+03  0.76043691794E+03  0.00000000000E+00 0.  1.
<mgrwt>
<rscale>  2 0.10088634E+03</rscale>
<asrwt>0</asrwt>
<pdfrwt beam="1">  1       21 0.22819110E+00 0.10088634E+03</pdfrwt>
<pdfrwt beam="2">  1       21 0.15704234E-02 0.10088634E+03</pdfrwt>
<totfact> 0.17378764E+05</totfact>
</mgrwt>
</event>
<event>
 5    1  0.1855960E+000  0.7216578E+02  0.7546771E-02  0.1352879E+00
         21   -1    0    0  501  502  0.00000000000E+00  0.00000000000E+00  0.50177461287E+03  0.50177461287E+03  0.00000000000E+00 0. -1.
         21   -1    0    0  502  503 -0.00000000000E+00 -0.00000000000E+00 -0.12739752936E+02  0.12739752936E+02  0.00000000000E+00 0. -1.
         24    1    1    2    0    0 -0.13785148711E+01 -0.48956678682E+02  0.36527518649E+03  0.37721589907E+03  0.80419002446E+02 0. -1.
          1    1    1    2  501    0 -0.48002824145E+01  0.21138503242E+02  0.92472874807E+02  0.94979532562E+02  0.00000000000E+00 0. -1.
         -2    1    1    2    0  503  0.61787972856E+01  0.27818175440E+02  0.31286798631E+02  0.42318934170E+02  0.00000000000E+00 0.  1.
<mgrwt>
<rscale>  2 0.72165784E+02</rscale>
<asrwt>0</asrwt>
<pdfrwt beam="1">  1       21 0.77196079E-01 0.72165784E+02</pdfrwt>
<pdfrwt beam="2">  1       21 0.19599624E-02 0.72165784E+02</pdfrwt>
<totfact> 0.18638434E+06</totfact>
</mgrwt>
</event>
<event>
 5    1  0.1855960E+000  0.7356284E+02  0.7546771E-02  0.1348380E+00
         21   -1    0    0  501  502  0.00000000000E+00  0.00000000000E+00  0.68199368832E+03  0.68199368832E+03  0.00000000000E+00 0.  1.
         21   -1    0    0  502  503 -0.00000000000E+00 -0.00000000000E+00 -0.92724719086E+01  0.92724719086E+01  0.00000000000E+00 0. -1.
         24    1    1    2    0    0 -0.54776039229E+01 -0.26088874822E+02  0.27762976657E+03  0.29026907651E+03  0.80419002446E+02 0. -1.
          1    1    1    2  501    0  0.15706109002E+02 -0.13994071156E+02  0.22357747730E+03  0.22456492212E+03  0.00000000000E+00 0. -1.
         -2    1    1    2    0  503 -0.10228505079E+02  0.40082945978E+02  0.17151397254E+03  0.17643216161E+03  0.00000000000E+00 0.  1.
<mgrwt>
<rscale>  2 0.73562845E+02</rscale>
<asrwt>0</asrwt>
<pdfrwt beam="1">  1       21 0.10492207E+00 0.73562845E+02</pdfrwt>
<pdfrwt beam="2">  1       21 0.14265347E-02 0.73562845E+02</pdfrwt>
<totfact> 0.15467207E+06</totfact>
</mgrwt>
</event>
<event>
 5    1  0.1855960E+000  0.8650809E+02  0.7546771E-02  0.1311535E+00
         21   -1    0    0  503  502  0.00000000000E+00  0.00000000000E+00  0.22406195425E+03  0.22406195425E+03  0.00000000000E+00 0.  1.
         21   -1    0    0  501  503 -0.00000000000E+00 -0.00000000000E+00 -0.22954466240E+03  0.22954466240E+03  0.00000000000E+00 0. -1.
         24    1    1    2    0    0  0.40419933061E+02 -0.16813772417E+02 -0.30077556377E+02  0.96376082528E+02  0.80419002446E+02 0. -1.
          1    1    1    2  501    0 -0.50357964736E+02  0.34586357650E+02 -0.16012950479E+03  0.17138727798E+03  0.00000000000E+00 0. -1.
         -2    1    1    2    0  502  0.99380316755E+01 -0.17772585233E+02  0.18472435302E+03  0.18584325615E+03  0.00000000000E+00 0.  1.
<mgrwt>
<rscale>  2 0.86508094E+02</rscale>
<asrwt>0</asrwt>
<pdfrwt beam="1">  1       21 0.34471070E-01 0.86508094E+02</pdfrwt>
<pdfrwt beam="2">  1       21 0.35314563E-01 0.86508094E+02</pdfrwt>
<totfact> 0.66161675E+04</totfact>
</mgrwt>
</event>
<event>
 5    1  0.1855960E+000  0.7335428E+02  0.7546771E-02  0.1349044E+00
         21   -1    0    0  503  502  0.00000000000E+00  0.00000000000E+00  0.13293546753E+03  0.13293546753E+03  0.00000000000E+00 0. -1.
         21   -1    0    0  501  503 -0.00000000000E+00 -0.00000000000E+00 -0.92419546258E+02  0.92419546258E+02  0.00000000000E+00 0.  1.
         24    1    1    2    0    0 -0.40260124522E+02 -0.12959402641E+02 -0.58314305182E+02  0.10796572552E+03  0.80419002446E+02 0.  1.
          1    1    1    2  501    0  0.30236273310E+02 -0.91331818757E+01  0.26933438863E+02  0.41509726135E+02  0.00000000000E+00 0. -1.
         -2    1    1    2    0  502  0.10023851212E+02  0.22092584517E+02  0.71896787593E+02  0.75879562136E+02  0.00000000000E+00 0.  1.
<mgrwt>
<rscale>  2 0.73354280E+02</rscale>
<asrwt>0</asrwt>
<pdfrwt beam="1">  1       21 0.20451610E-01 0.73354280E+02</pdfrwt>
<pdfrwt beam="2">  1       21 0.14218392E-01 0.73354280E+02</pdfrwt>
<totfact> 0.94988921E+05</totfact>
</mgrwt>
</event>
<event>
 5    1  0.1855960E+000  0.6989897E+02  0.7546771E-02  0.1360437E+00
         21   -1    0    0  503  502  0.00000000000E+00  0.00000000000E+00  0.13181888817E+02  0.13181888817E+02  0.00000000000E+00 0. -1.
         21   -1    0    0  501  503 -0.00000000000E+00 -0.00000000000E+00 -0.53711071248E+03  0.53711071248E+03  0.00000000000E+00 0. -1.
         24    1    1    2    0    0  0.13301848181E+02 -0.10433473628E+02 -0.26456150751E+03  0.27703033002E+03  0.80419002446E+02 0.  0.
          1    1    1    2  501    0  0.67785720441E+01  0.29296566229E+02 -0.23363944206E+03  0.23556660781E+03  0.00000000000E+00 0. -1.
         -2    1    1    2    0  502 -0.20080420226E+02 -0.18863092601E+02 -0.25727874095E+02  0.37695663469E+02  0.00000000000E+00 0.  1.
<mgrwt>
<rscale>  2 0.69898967E+02</rscale>
<asrwt>0</asrwt>
<pdfrwt beam="1">  1       21 0.20279829E-02 0.69898967E+02</pdfrwt>
<pdfrwt beam="2">  1       21 0.82632417E-01 0.69898967E+02</pdfrwt>
<totfact> 0.15191718E+06</totfact>
</mgrwt>
</event>
<event>
 5    1  0.1855960E+000  0.7935554E+02  0.7546771E-02  0.1330890E+00
         21   -1    0    0  503  502  0.00000000000E+00  0.00000000000E+00  0.34516034964E+03  0.34516034964E+03  0.00000000000E+00 0.  1.
         21   -1    0    0  501  503 -0.00000000000E+00 -0.00000000000E+00 -0.24201151437E+02  0.24201151437E+02  0.00000000000E+00 0.  1.
         24    1    1    2    0    0  0.15774628883E+02 -0.14479086657E+02  0.12097072481E+03  0.14683192801E+03  0.80419002446E+02 0.  0.
          1    1    1    2  501    0 -0.40816077088E+02 -0.82848709295E+01  0.35893332261E+02  0.54981110719E+02  0.00000000000E+00 0. -1.
         -2    1    1    2    0  502  0.25041448204E+02  0.22763957586E+02  0.16409514113E+03  0.16754846235E+03  0.00000000000E+00 0.  1.
<mgrwt>
<rscale>  2 0.79355537E+02</rscale>
<asrwt>0</asrwt>
<pdfrwt beam="1">  1       21 0.53101589E-01 0.79355537E+02</pdfrwt>
<pdfrwt beam="2">  1       21 0.37232543E-02 0.79355537E+02</pdfrwt>
<totfact> 0.14660637E+06</totfact>
</mgrwt>
</event>
<event>
 5    1  0.1855960E+000  0.1011367E+03  0.7546771E-02  0.1277924E+00
         21   -1    0    0  501  502  0.00000000000E+00  0.00000000000E+00  0.30961022472E+03  0.30961022472E+03  0.00000000000E+00 0. -1.
         21   -1    0    0  502  503 -0.00000000000E+00 -0.00000000000E+00 -0.45435055976E+02  0.45435055976E+02  0.00000000000E+00 0.  1.
         24    1    1    2    0    0 -0.80267746524E+01  0.71253324654E+02  0.10588977705E+03  0.15106729038E+03  0.80419002446E+02 0.  1.
          1    1    1    2  501    0 -0.22290613618E+02 -0.68041167695E+01  0.12169178503E+03  0.12390342209E+03  0.00000000000E+00 0. -1.
         -2    1    1    2    0  503  0.30317388270E+02 -0.64449207884E+02  0.36593606665E+02  0.80074568229E+02  0.00000000000E+00 0.  1.
<mgrwt>
<rscale>  2 0.10113672E+03</rscale>
<asrwt>0</asrwt>
<pdfrwt beam="1">  1       21 0.47632341E-01 0.10113672E+03</pdfrwt>
<pdfrwt beam="2">  1       21 0.69900088E-02 0.10113672E+03</pdfrwt>
<totfact> 0.64336992E+05</totfact>
</mgrwt>
</event>
<event>
 5    1  0.1855960E+000  0.8260890E+02  0.7546771E-02  0.1321807E+00
         21   -1    0    0  503  502  0.00000000000E+00  0.00000000000E+00  0.93521365059E+01  0.93521365059E+01  0.00000000000E+00 0.  1.
         21   -1    0    0  501  503 -0.00000000000E+00 -0.00000000000E+00 -0.83498511731E+03  0.83498511731E+03  0.00000000000E+00 0.  1.
         24    1    1    2    0    0 -0.15126847994E+02 -0.61010146596E+02 -0.37601026215E+03  0.38961775206E+03  0.80419002446E+02 0.  1.
          1    1    1    2  501    0  0.92354941715E+01  0.24845512462E+02 -0.27615358683E+03  0.27742277730E+03  0.00000000000E+00 0. -1.
         -2    1    1    2    0  502  0.58913538229E+01  0.36164634134E+02 -0.17346913181E+03  0.17729672446E+03  0.00000000000E+00 0.  1.
<mgrwt>
<rscale>  2 0.82608897E+02</rscale>
<asrwt>0</asrwt>
<pdfrwt beam="1">  1       21 0.14387902E-02 0.82608897E+02</pdfrwt>
<pdfrwt beam="2">  1       21 0.12845925E+00 0.82608897E+02</pdfrwt>
<totfact> 0.94491698E+05</totfact>
</mgrwt>
</event>
<event>
 5    1  0.1855960E+000  0.8964034E+02  0.7546771E-02  0.1303725E+00
         21   -1    0    0  503  502  0.00000000000E+00  0.00000000000E+00  0.78503040334E+02  0.78503040334E+02  0.00000000000E+00 0.  1.
         21   -1    0    0  501  503 -0.00000000000E+00 -0.00000000000E+00 -0.10352417918E+03  0.10352417918E+03  0.00000000000E+00 0. -1.
         24    1    1    2    0    0 -0.39888881887E+02  0.28047161957E+02 -0.38848894053E+01  0.94127968809E+02  0.80419002446E+02 0. -1.
          1    1    1    2  501    0  0.26206507633E+02 -0.51668754966E+02 -0.16213998095E+02  0.60160909370E+02  0.00000000000E+00 0. -1.
         -2    1    1    2    0  502  0.13682374254E+02  0.23621593010E+02 -0.49222513425E+01  0.27738341332E+02  0.00000000000E+00 0.  1.
<mgrwt>
<rscale>  2 0.89640341E+02</rscale>
<asrwt>0</asrwt>
<pdfrwt beam="1">  1       21 0.12077391E-01 0.89640341E+02</pdfrwt>
<pdfrwt beam="2">  1       21 0.15926797E-01 0.89640341E+02</pdfrwt>
<totfact> 0.20030001E+06</totfact>
</mgrwt>
</event>
<event>
 5    1  0.1855960E+000  0.7824622E+02  0.7546771E-02  0.1334103E+00
         21   -1    0    0  503  502  0.00000000000E+00  0.00000000000E+00  0.21919196801E+02  0.21919196801E+02  0.00000000000E+00 0. -1.
         21   -1    0    0  501  503 -0.00000000000E+00 -0.00000000000E+00 -0.95419369739E+03  0.95419369739E+03  0.00000000000E+00 0. -1.
         24    1    1    2    0    0  0.25996796169E+01 -0.55637834251E+02 -0.10517444733E+03  0.14363567544E+03  0.80419002446E+02 0. -1.
          1    1    1    2  501    0 -0.10584251856E+02  0.33676518310E+02 -0.76961480762E+03  0.77042396535E+03  0.00000000000E+00 0. -1.
         -2    1    1    2    0  502  0.79845722392E+01  0.21961315941E+02 -0.57485245638E+02  0.62053253402E+02  0.00000000000E+00 0.  1.
<mgrwt>
<rscale>  2 0.78246220E+02</rscale>
<asrwt>0</asrwt>
<pdfrwt beam="1">  1       21 0.33721846E-02 0.78246220E+02</pdfrwt>
<pdfrwt beam="2">  1       21 0.14679901E+00 0.78246220E+02</pdfrwt>
<totfact> 0.17377716E+05</totfact>
</mgrwt>
</event>
<event>
 5    1  0.1855960E+000  0.1055332E+03  0.7546771E-02  0.1269073E+00
         21   -1    0    0  501  502  0.00000000000E+00  0.00000000000E+00  0.92851497834E+03  0.92851497834E+03  0.00000000000E+00 0. -1.
         21   -1    0    0  502  503 -0.00000000000E+00 -0.00000000000E+00 -0.21482566623E+02  0.21482566623E+02  0.00000000000E+00 0.  1.
         24    1    1    2    0    0  0.89676472944E+02 -0.22032888232E+01  0.28165193537E+03  0.30633601312E+03  0.80419002446E+02 0. -1.
          1    1    1    2  501    0 -0.67532710611E+02  0.71280178006E+01  0.61495965002E+03  0.61869770227E+03  0.00000000000E+00 0. -1.
         -2    1    1    2    0  503 -0.22143762333E+02 -0.49247289773E+01  0.10420826329E+02  0.24963829577E+02  0.00000000000E+00 0.  1.
<mgrwt>
<rscale>  2 0.10553322E+03</rscale>
<asrwt>0</asrwt>
<pdfrwt beam="1">  1       21 0.14284843E+00 0.10553322E+03</pdfrwt>
<pdfrwt beam="2">  1       21 0.33050110E-02 0.10553322E+03</pdfrwt>
<totfact> 0.18963762E+05</totfact>
</mgrwt>
</event>
<event>
 5    1  0.1855960E+000  0.9804405E+02  0.7546771E-02  0.1284464E+00
         21   -1    0    0  503  502  0.00000000000E+00  0.00000000000E+00  0.72075577651E+02  0.72075577651E+02  0.00000000000E+00 0.  1.
         21   -1    0    0  501  503 -0.00000000000E+00 -0.00000000000E+00 -0.55327762360E+03  0.55327762360E+03  0.00000000000E+00 0.  1.
         24    1    1    2    0    0 -0.63895295663E+01  0.57831459044E+02 -0.20640514016E+03  0.22903187896E+03  0.80419002446E+02 0.  0.
          1    1    1    2  501    0 -0.25892562507E+02 -0.59098014453E+02 -0.32788646587E+03  0.33417440747E+03  0.00000000000E+00 0. -1.
         -2    1    1    2    0  502  0.32282092073E+02  0.12665554094E+01  0.53089560084E+02  0.62146914815E+02  0.00000000000E+00 0.  1.
<mgrwt>
<rscale>  2 0.98044052E+02</rscale>
<asrwt>0</asrwt>
<pdfrwt beam="1">  1       21 0.11088550E-01 0.98044052E+02</pdfrwt>
<pdfrwt beam="2">  1       21 0.85119636E-01 0.98044052E+02</pdfrwt>
<totfact> 0.84343233E+04</totfact>
</mgrwt>
</event>
<event>
 5    1  0.1855960E+000  0.8597682E+02  0.7546771E-02  0.1312898E+00
         21   -1    0    0  503  502  0.00000000000E+00  0.00000000000E+00  0.48707557337E+02  0.48707557337E+02  0.00000000000E+00 0.  1.
         21   -1    0    0  501  503 -0.00000000000E+00 -0.00000000000E+00 -0.21198638498E+03  0.21198638498E+03  0.00000000000E+00 0. -1.
         24    1    1    2    0    0  0.27232796483E+01  0.31923325140E+02 -0.97789816361E+02  0.13060083873E+03  0.80419002446E+02 0.  1.
          1    1    1    2  501    0 -0.13841300616E+02  0.24359284823E+02 -0.67085260165E+02  0.72700677378E+02  0.00000000000E+00 0. -1.
         -2    1    1    2    0  502  0.11118020968E+02 -0.56282609963E+02  0.15962488871E+01  0.57392426199E+02  0.00000000000E+00 0.  1.
<mgrwt>
<rscale>  2 0.85976817E+02</rscale>
<asrwt>0</asrwt>
<pdfrwt beam="1">  1       21 0.74934704E-02 0.85976817E+02</pdfrwt>
<pdfrwt beam="2">  1       21 0.32613290E-01 0.85976817E+02</pdfrwt>
<totfact> 0.12065630E+06</totfact>
</mgrwt>
</event>
<event>
 5    1  0.1855960E+000  0.6907803E+02  0.7546771E-02  0.1363257E+00
         21   -1    0    0  503  502  0.00000000000E+00  0.00000000000E+00  0.40990898235E+01  0.40990898235E+01  0.00000000000E+00 0.  1.
         21   -1    0    0  501  503 -0.00000000000E+00 -0.00000000000E+00 -0.32283374461E+04  0.32283374461E+04  0.00000000000E+00 0. -1.
         24    1    1    2    0    0  0.17783955852E+01  0.15444370340E+02 -0.10868363841E+04  0.10899184525E+04  0.80419002446E+02 0. -1.
          1    1    1    2  501    0 -0.16671340214E+02 -0.30696096069E+02 -0.20927207482E+04  0.20930122584E+04  0.00000000000E+00 0. -1.
         -2    1    1    2    0  502  0.14892944629E+02  0.15251725729E+02 -0.44681223926E+02  0.49505825001E+02  0.00000000000E+00 0.  1.
<mgrwt>
<rscale>  2 0.69078030E+02</rscale>
<asrwt>0</asrwt>
<pdfrwt beam="1">  1       21 0.63063021E-03 0.69078030E+02</pdfrwt>
<pdfrwt beam="2">  1       21 0.49666651E+00 0.69078030E+02</pdfrwt>
<totfact> 0.20167279E+04</totfact>
</mgrwt>
</event>
<event>
 5    1  0.1855960E+000  0.6999604E+02  0.7546771E-02  0.1360107E+00
         21   -1    0    0  501  502  0.00000000000E+00  0.00000000000E+00  0.73863951294E+02  0.73863951294E+02  0.00000000000E+00 0.  1.
         21   -1    0    0  502  503 -0.00000000000E+00 -0.00000000000E+00 -0.15651301851E+03  0.15651301851E+03  0.00000000000E+00 0. -1.
         24    1    1    2    0    0 -0.32467278481E+01 -0.30999006520E+02  0.29568280230E+02  0.91175538370E+02  0.80419002446E+02 0.  1.
          1    1    1    2  501    0  0.22412990210E+02  0.79815196694E+01 -0.77528939320E+00  0.23804366407E+02  0.00000000000E+00 0. -1.
         -2    1    1    2    0  503 -0.19166262362E+02  0.23017486850E+02 -0.11144205805E+03  0.11539706502E+03  0.00000000000E+00 0.  1.
<mgrwt>
<rscale>  2 0.69996039E+02</rscale>
<asrwt>0</asrwt>
<pdfrwt beam="1">  1       21 0.11363685E-01 0.69996039E+02</pdfrwt>
<pdfrwt beam="2">  1       21 0.24078925E-01 0.69996039E+02</pdfrwt>
<totfact> 0.10405384E+06</totfact>
</mgrwt>
</event>
<event>
 5    1  0.1855960E+000  0.8389698E+02  0.7546771E-02  0.1318343E+00
         21   -1    0    0  501  502  0.00000000000E+00  0.00000000000E+00  0.98738528579E+02  0.98738528579E+02  0.00000000000E+00 0. -1.
         21   -1    0    0  502  503 -0.00000000000E+00 -0.00000000000E+00 -0.16344249244E+03  0.16344249244E+03  0.00000000000E+00 0. -1.
         24    1    1    2    0    0  0.46007271230E+02  0.43030311169E+02 -0.12469648400E+03  0.16119772257E+03  0.80419002446E+02 0. -1.
          1    1    1    2  501    0 -0.19123812923E+02 -0.30452537400E+02  0.61525589283E+02  0.71263422536E+02  0.00000000000E+00 0. -1.
         -2    1    1    2    0  503 -0.26883458307E+02 -0.12577773770E+02 -0.15330691503E+01  0.29719875918E+02  0.00000000000E+00 0.  1.
<mgrwt>
<rscale>  2 0.83896976E+02</rscale>
<asrwt>0</asrwt>
<pdfrwt beam="1">  1       21 0.15190543E-01 0.83896976E+02</pdfrwt>
<pdfrwt beam="2">  1       21 0.25144999E-01 0.83896976E+02</pdfrwt>
<totfact> 0.57807893E+05</totfact>
</mgrwt>
</event>
<event>
 5    1  0.1855960E+000  0.1497314E+03  0.7546771E-02  0.1200803E+00
         21   -1    0    0  503  502  0.00000000000E+00  0.00000000000E+00  0.82702235878E+02  0.82702235878E+02  0.00000000000E+00 0.  1.
         21   -1    0    0  501  503 -0.00000000000E+00 -0.00000000000E+00 -0.66505713305E+03  0.66505713305E+03  0.00000000000E+00 0. -1.
         24    1    1    2    0    0 -0.21561141453E+02  0.52270093374E+02 -0.25495783408E+01  0.98340031453E+02  0.80419002446E+02 0.  1.
          1    1    1    2  501    0  0.68011783503E+02  0.52914250618E+02 -0.50487304707E+03  0.51217410543E+03  0.00000000000E+00 0. -1.
         -2    1    1    2    0  502 -0.46450642051E+02 -0.10518434399E+03 -0.74932271759E+02  0.13724523204E+03  0.00000000000E+00 0.  1.
<mgrwt>
<rscale>  2 0.14973141E+03</rscale>
<asrwt>0</asrwt>
<pdfrwt beam="1">  1       21 0.12723421E-01 0.14973141E+03</pdfrwt>
<pdfrwt beam="2">  1       21 0.10231648E+00 0.14973141E+03</pdfrwt>
<totfact> 0.42047370E+04</totfact>
</mgrwt>
</event>
<event>
 5    1  0.1855960E+000  0.1020685E+03  0.7546771E-02  0.1276005E+00
         21   -1    0    0  501  502  0.00000000000E+00  0.00000000000E+00  0.35229837699E+02  0.35229837699E+02  0.00000000000E+00 0. -1.
         21   -1    0    0  502  503 -0.00000000000E+00 -0.00000000000E+00 -0.32997666940E+03  0.32997666940E+03  0.00000000000E+00 0. -1.
         24    1    1    2    0    0 -0.19502589327E+02  0.36041301638E+02 -0.18650698124E+03  0.20719892958E+03  0.80419002446E+02 0. -1.
          1    1    1    2  501    0  0.66636384480E+01 -0.73746826626E+02 -0.59026778430E+02  0.94695084807E+02  0.00000000000E+00 0. -1.
         -2    1    1    2    0  503  0.12838950879E+02  0.37705524988E+02 -0.49213072030E+02  0.63312492708E+02  0.00000000000E+00 0.  1.
<mgrwt>
<rscale>  2 0.10206847E+03</rscale>
<asrwt>0</asrwt>
<pdfrwt beam="1">  1       21 0.54199751E-02 0.10206847E+03</pdfrwt>
<pdfrwt beam="2">  1       21 0.50765641E-01 0.10206847E+03</pdfrwt>
<totfact> 0.86777904E+05</totfact>
</mgrwt>
</event>
<event>
 5    1  0.1855960E+000  0.6856149E+02  0.7546771E-02  0.1365054E+00
         21   -1    0    0  503  502  0.00000000000E+00  0.00000000000E+00  0.24983838811E+02  0.24983838811E+02  0.00000000000E+00 0. -1.
         21   -1    0    0  501  503 -0.00000000000E+00 -0.00000000000E+00 -0.20693237262E+03  0.20693237262E+03  0.00000000000E+00 0.  1.
         24    1    1    2    0    0  0.10384684475E+02  0.10962908209E+02 -0.13273828047E+03  0.15593169685E+03  0.80419002446E+02 0.  1.
          1    1    1    2  501    0  0.11420789070E+02 -0.26277712950E+02 -0.36665705536E+02  0.46533069781E+02  0.00000000000E+00 0. -1.
         -2    1    1    2    0  502 -0.21805473545E+02  0.15314804741E+02 -0.12544547803E+02  0.29451444792E+02  0.00000000000E+00 0.  1.
<mgrwt>
<rscale>  2 0.68561486E+02</rscale>
<asrwt>0</asrwt>
<pdfrwt beam="1">  1       21 0.38436676E-02 0.68561486E+02</pdfrwt>
<pdfrwt beam="2">  1       21 0.31835749E-01 0.68561486E+02</pdfrwt>
<totfact> 0.37970266E+06</totfact>
</mgrwt>
</event>
<event>
 5    1  0.1855960E+000  0.1248732E+03  0.7546771E-02  0.1235268E+00
         21   -1    0    0  501  502  0.00000000000E+00  0.00000000000E+00  0.27492546329E+03  0.27492546329E+03  0.00000000000E+00 0. -1.
         21   -1    0    0  502  503 -0.00000000000E+00 -0.00000000000E+00 -0.11847698162E+03  0.11847698162E+03  0.00000000000E+00 0. -1.
         24    1    1    2    0    0 -0.74606866157E+02 -0.78080640416E+02 -0.19129537336E+02  0.13599972808E+03  0.80419002446E+02 0.  0.
          1    1    1    2  501    0  0.46632205870E+00  0.22332749728E+02  0.16214201117E+03  0.16367345831E+03  0.00000000000E+00 0. -1.
         -2    1    1    2    0  503  0.74140544098E+02  0.55747890687E+02  0.13436007834E+02  0.93729258515E+02  0.00000000000E+00 0.  1.
<mgrwt>
<rscale>  2 0.12487325E+03</rscale>
<asrwt>0</asrwt>
<pdfrwt beam="1">  1       21 0.42296225E-01 0.12487325E+03</pdfrwt>
<pdfrwt beam="2">  1       21 0.18227228E-01 0.12487325E+03</pdfrwt>
<totfact> 0.15079506E+05</totfact>
</mgrwt>
</event>
<event>
 5    1  0.1855960E+000  0.7137171E+02  0.7546771E-02  0.1355490E+00
         21   -1    0    0  503  502  0.00000000000E+00  0.00000000000E+00  0.17038712727E+03  0.17038712727E+03  0.00000000000E+00 0.  1.
         21   -1    0    0  501  503 -0.00000000000E+00 -0.00000000000E+00 -0.30927136879E+02  0.30927136879E+02  0.00000000000E+00 0. -1.
         24    1    1    2    0    0 -0.77163649589E+01  0.25845573038E+02  0.80144250749E+02  0.11669555611E+03  0.80419002446E+02 0.  0.
          1    1    1    2  501    0 -0.17280565325E+02 -0.27923819770E+02  0.21535876304E+02  0.39270238307E+02  0.00000000000E+00 0. -1.
         -2    1    1    2    0  502  0.24996930284E+02  0.20782467324E+01  0.37779863343E+02  0.45348469735E+02  0.00000000000E+00 0.  1.
<mgrwt>
<rscale>  2 0.71371707E+02</rscale>
<asrwt>0</asrwt>
<pdfrwt beam="1">  1       21 0.26213404E-01 0.71371707E+02</pdfrwt>
<pdfrwt beam="2">  1       21 0.47580212E-02 0.71371707E+02</pdfrwt>
<totfact> 0.38712738E+06</totfact>
</mgrwt>
</event>
<event>
 5    1  0.1855960E+000  0.9852803E+02  0.7546771E-02  0.1283422E+00
         21   -1    0    0  501  502  0.00000000000E+00  0.00000000000E+00  0.51511375670E+03  0.51511375670E+03  0.00000000000E+00 0. -1.
         21   -1    0    0  502  503 -0.00000000000E+00 -0.00000000000E+00 -0.65126000553E+02  0.65126000553E+02  0.00000000000E+00 0.  1.
         24    1    1    2    0    0 -0.27262962650E+01 -0.30487062974E+01  0.14763825006E+03  0.16816954581E+03  0.80419002446E+02 0.  0.
          1    1    1    2  501    0  0.50263211623E+02 -0.30093594867E+02  0.33865648862E+03  0.34368624089E+03  0.00000000000E+00 0. -1.
         -2    1    1    2    0  503 -0.47536915358E+02  0.33142301165E+02 -0.36306982532E+02  0.68383970555E+02  0.00000000000E+00 0.  1.
<mgrwt>
<rscale>  2 0.98528030E+02</rscale>
<asrwt>0</asrwt>
<pdfrwt beam="1">  1       21 0.79248268E-01 0.98528030E+02</pdfrwt>
<pdfrwt beam="2">  1       21 0.10019385E-01 0.98528030E+02</pdfrwt>
<totfact> 0.11797778E+05</totfact>
</mgrwt>
</event>
<event>
 5    1  0.1855960E+000  0.1071045E+03  0.7546771E-02  0.1266028E+00
         21   -1    0    0  503  502  0.00000000000E+00  0.00000000000E+00  0.33687404851E+02  0.33687404851E+02  0.00000000000E+00 0.  1.
         21   -1    0    0  501  503 -0.00000000000E+00 -0.00000000000E+00 -0.11379662424E+04  0.11379662424E+04  0.00000000000E+00 0.  1.
         24    1    1    2    0    0  0.75673462221E+02  0.49087007615E+02 -0.87596396301E+03  0.88426019227E+03  0.80419002446E+02 0.  1.
          1    1    1    2  501    0 -0.39155967029E+02 -0.11159482145E+02 -0.23111024775E+03  0.23466927880E+03  0.00000000000E+00 0. -1.
         -2    1    1    2    0  502 -0.36517495192E+02 -0.37927525470E+02  0.27953731993E+01  0.52724176188E+02  0.00000000000E+00 0.  1.
<mgrwt>
<rscale>  2 0.10710449E+03</rscale>
<asrwt>0</asrwt>
<pdfrwt beam="1">  1       21 0.51826779E-02 0.10710449E+03</pdfrwt>
<pdfrwt beam="2">  1       21 0.17507172E+00 0.10710449E+03</pdfrwt>
<totfact> 0.52814260E+04</totfact>
</mgrwt>
</event>
<event>
 5    1  0.1855960E+000  0.7972380E+02  0.7546771E-02  0.1329837E+00
         21   -1    0    0  501  502  0.00000000000E+00  0.00000000000E+00  0.12000860791E+02  0.12000860791E+02  0.00000000000E+00 0.  1.
         21   -1    0    0  502  503 -0.00000000000E+00 -0.00000000000E+00 -0.55802413273E+03  0.55802413273E+03  0.00000000000E+00 0.  1.
         24    1    1    2    0    0 -0.16442200717E+02 -0.20460405756E+02 -0.33227000719E+03  0.34286957842E+03  0.80419002446E+02 0.  1.
          1    1    1    2  501    0 -0.15927817900E+02 -0.18361190010E+02 -0.47054705148E+02  0.52962004855E+02  0.00000000000E+00 0. -1.
         -2    1    1    2    0  503  0.32370018617E+02  0.38821595766E+02 -0.16669855960E+03  0.17419341025E+03  0.00000000000E+00 0.  1.
<mgrwt>
<rscale>  2 0.79723797E+02</rscale>
<asrwt>0</asrwt>
<pdfrwt beam="1">  1       21 0.18462860E-02 0.79723797E+02</pdfrwt>
<pdfrwt beam="2">  1       21 0.85849877E-01 0.79723797E+02</pdfrwt>
<totfact> 0.16268001E+06</totfact>
</mgrwt>
</event>
<event>
 5    1  0.1855960E+000  0.7236711E+02  0.7546771E-02  0.1352224E+00
         21   -1    0    0  501  502  0.00000000000E+00  0.00000000000E+00  0.17904605891E+03  0.17904605891E+03  0.00000000000E+00 0. -1.
         21   -1    0    0  502  503 -0.00000000000E+00 -0.00000000000E+00 -0.34166907343E+02  0.34166907343E+02  0.00000000000E+00 0.  1.
         24    1    1    2    0    0  0.11020868506E+02  0.27421094907E+02  0.54351878359E+02  0.10146289284E+03  0.80419002446E+02 0.  1.
          1    1    1    2  501    0  0.20237373913E+02 -0.58081174862E+01  0.58084923228E+02  0.61783038433E+02  0.00000000000E+00 0. -1.
         -2    1    1    2    0  503 -0.31258242420E+02 -0.21612977421E+02  0.32442349982E+02  0.49967034978E+02  0.00000000000E+00 0.  1.
<mgrwt>
<rscale>  2 0.72367107E+02</rscale>
<asrwt>0</asrwt>
<pdfrwt beam="1">  1       21 0.27545547E-01 0.72367107E+02</pdfrwt>
<pdfrwt beam="2">  1       21 0.52564474E-02 0.72367107E+02</pdfrwt>
<totfact> 0.29947933E+06</totfact>
</mgrwt>
</event>
<event>
 5    1  0.1855960E+000  0.9671210E+02  0.7546771E-02  0.1287366E+00
         21   -1    0    0  503  502  0.00000000000E+00  0.00000000000E+00  0.19591992944E+03  0.19591992944E+03  0.00000000000E+00 0. -1.
         21   -1    0    0  501  503 -0.00000000000E+00 -0.00000000000E+00 -0.60892725660E+02  0.60892725660E+02  0.00000000000E+00 0.  1.
         24    1    1    2    0    0  0.15104757712E+02 -0.15733987827E+02  0.12078068090E+01  0.83332987647E+02  0.80419002446E+02 0.  1.
          1    1    1    2  501    0  0.45936224107E+02 -0.35820282568E+01  0.62337920331E+02  0.77517636205E+02  0.00000000000E+00 0. -1.
         -2    1    1    2    0  502 -0.61040981819E+02  0.19316016084E+02  0.71481476639E+02  0.95962031248E+02  0.00000000000E+00 0.  1.
<mgrwt>
<rscale>  2 0.96712099E+02</rscale>
<asrwt>0</asrwt>
<pdfrwt beam="1">  1       21 0.30141527E-01 0.96712099E+02</pdfrwt>
<pdfrwt beam="2">  1       21 0.93681117E-02 0.96712099E+02</pdfrwt>
<totfact> 0.95973226E+05</totfact>
</mgrwt>
</event>
<event>
 5    1  0.1855960E+000  0.6784602E+02  0.7546771E-02  0.1367575E+00
         21   -1    0    0  503  502  0.00000000000E+00  0.00000000000E+00  0.23991597072E+03  0.23991597072E+03  0.00000000000E+00 0.  1.
         21   -1    0    0  501  503 -0.00000000000E+00 -0.00000000000E+00 -0.19702414154E+02  0.19702414154E+02  0.00000000000E+00 0. -1.
         24    1    1    2    0    0 -0.35289082515E+02 -0.34606398592E+01  0.13010546383E+03  0.15700937248E+03  0.80419002446E+02 0. -1.
          1    1    1    2  501    0  0.13460783056E+02  0.17328054082E+02  0.29947068538E+02  0.37125207781E+02  0.00000000000E+00 0. -1.
         -2    1    1    2    0  502  0.21828299459E+02 -0.13867414223E+02  0.60161024197E+02  0.65483804615E+02  0.00000000000E+00 0.  1.
<mgrwt>
<rscale>  2 0.67846020E+02</rscale>
<asrwt>0</asrwt>
<pdfrwt beam="1">  1       21 0.36910147E-01 0.67846020E+02</pdfrwt>
<pdfrwt beam="2">  1       21 0.30311408E-02 0.67846020E+02</pdfrwt>
<totfact> 0.41968589E+06</totfact>
</mgrwt>
</event>
<event>
 5    1  0.1855960E+000  0.1182484E+03  0.7546771E-02  0.1246015E+00
         21   -1    0    0  501  502  0.00000000000E+00  0.00000000000E+00  0.76821690935E+02  0.76821690935E+02  0.00000000000E+00 0. -1.
         21   -1    0    0  502  503 -0.00000000000E+00 -0.00000000000E+00 -0.35806953949E+03  0.35806953949E+03  0.00000000000E+00 0.  1.
         24    1    1    2    0    0 -0.56750796044E+02  0.58880193732E+02 -0.10981680849E+03  0.15879067178E+03  0.80419002446E+02 0.  0.
          1    1    1    2  501    0  0.37188255202E+02  0.18818858951E+02  0.35152199582E+02  0.54523324482E+02  0.00000000000E+00 0. -1.
         -2    1    1    2    0  503  0.19562540842E+02 -0.77699052683E+02 -0.20658323965E+03  0.22157723416E+03  0.00000000000E+00 0.  1.
<mgrwt>
<rscale>  2 0.11824837E+03</rscale>
<asrwt>0</asrwt>
<pdfrwt beam="1">  1       21 0.11818722E-01 0.11824837E+03</pdfrwt>
<pdfrwt beam="2">  1       21 0.55087620E-01 0.11824837E+03</pdfrwt>
<totfact> 0.19153231E+05</totfact>
</mgrwt>
</event>
<event>
 5    1  0.1855960E+000  0.6467061E+02  0.7546771E-02  0.1379215E+00
         21   -1    0    0  501  502  0.00000000000E+00  0.00000000000E+00  0.24113321374E+03  0.24113321374E+03  0.00000000000E+00 0.  1.
         21   -1    0    0  502  503 -0.00000000000E+00 -0.00000000000E+00 -0.19065406232E+02  0.19065406232E+02  0.00000000000E+00 0. -1.
         24    1    1    2    0    0  0.15151147149E+02 -0.25062493459E+02  0.12246472069E+03  0.14940719396E+03  0.80419002446E+02 0. -1.
          1    1    1    2  501    0 -0.20607418486E+02  0.27553129916E+01  0.71698904580E+02  0.74652463887E+02  0.00000000000E+00 0. -1.
         -2    1    1    2    0  503  0.54562713367E+01  0.22307180468E+02  0.27904182238E+02  0.36138962128E+02  0.00000000000E+00 0.  1.
<mgrwt>
<rscale>  2 0.64670612E+02</rscale>
<asrwt>0</asrwt>
<pdfrwt beam="1">  1       21 0.37097415E-01 0.64670612E+02</pdfrwt>
<pdfrwt beam="2">  1       21 0.29331396E-02 0.64670612E+02</pdfrwt>
<totfact> 0.43673016E+06</totfact>
</mgrwt>
</event>
<event>
 5    1  0.1855960E+000  0.7164323E+02  0.7546771E-02  0.1354593E+00
         21   -1    0    0  503  502  0.00000000000E+00  0.00000000000E+00  0.14485365410E+02  0.14485365410E+02  0.00000000000E+00 0. -1.
         21   -1    0    0  501  503 -0.00000000000E+00 -0.00000000000E+00 -0.42496190018E+03  0.42496190018E+03  0.00000000000E+00 0.  1.
         24    1    1    2    0    0  0.34027815290E+02 -0.25486803341E+02 -0.18792221359E+03  0.20878085083E+03  0.80419002446E+02 0.  1.
          1    1    1    2  501    0 -0.81361734561E+01  0.25143618733E+02 -0.17040771787E+03  0.17244474243E+03  0.00000000000E+00 0. -1.
         -2    1    1    2    0  502 -0.25891641834E+02  0.34318460804E+00 -0.52146603308E+02  0.58221672332E+02  0.00000000000E+00 0.  1.
<mgrwt>
<rscale>  2 0.71643225E+02</rscale>
<asrwt>0</asrwt>
<pdfrwt beam="1">  1       21 0.22285179E-02 0.71643225E+02</pdfrwt>
<pdfrwt beam="2">  1       21 0.65378749E-01 0.71643225E+02</pdfrwt>
<totfact> 0.21695312E+06</totfact>
</mgrwt>
</event>
<event>
 5    1  0.1855960E+000  0.9170998E+02  0.7546771E-02  0.1298763E+00
         21   -1    0    0  503  502  0.00000000000E+00  0.00000000000E+00  0.46127716701E+03  0.46127716701E+03  0.00000000000E+00 0.  1.
         21   -1    0    0  501  503 -0.00000000000E+00 -0.00000000000E+00 -0.39764474270E+02  0.39764474270E+02  0.00000000000E+00 0. -1.
         24    1    1    2    0    0  0.31554839050E+02  0.27181514716E+02  0.11371663746E+03  0.14537273541E+03  0.80419002446E+02 0. -1.
          1    1    1    2  501    0 -0.53305064415E+02  0.55115655506E+01  0.90436698524E+01  0.54346988983E+02  0.00000000000E+00 0. -1.
         -2    1    1    2    0  502  0.21750225366E+02 -0.32693080266E+02  0.29875238543E+03  0.30132191689E+03  0.00000000000E+00 0.  1.
<mgrwt>
<rscale>  2 0.91709983E+02</rscale>
<asrwt>0</asrwt>
<pdfrwt beam="1">  1       21 0.70965714E-01 0.91709983E+02</pdfrwt>
<pdfrwt beam="2">  1       21 0.61176118E-02 0.91709983E+02</pdfrwt>
<totfact> 0.34977495E+05</totfact>
</mgrwt>
</event>
<event>
 5    1  0.1855960E+000  0.1047708E+03  0.7546771E-02  0.1270572E+00
         21   -1    0    0  501  502  0.00000000000E+00  0.00000000000E+00  0.11975535196E+03  0.11975535196E+03  0.00000000000E+00 0.  1.
         21   -1    0    0  502  503 -0.00000000000E+00 -0.00000000000E+00 -0.10822842318E+03  0.10822842318E+03  0.00000000000E+00 0.  1.
         24    1    1    2    0    0  0.25930362365E+02  0.80178229333E+02  0.50626789157E+02  0.12700873941E+03  0.80419002446E+02 0.  1.
          1    1    1    2  501    0  0.77158861800E+01 -0.39606680211E+02 -0.18394016783E+02  0.44345956640E+02  0.00000000000E+00 0. -1.
         -2    1    1    2    0  503 -0.33646248545E+02 -0.40571549122E+02 -0.20705843601E+02  0.56629079090E+02  0.00000000000E+00 0.  1.
<mgrwt>
<rscale>  2 0.10477077E+03</rscale>
<asrwt>0</asrwt>
<pdfrwt beam="1">  1       21 0.18423900E-01 0.10477077E+03</pdfrwt>
<pdfrwt beam="2">  1       21 0.16650527E-01 0.10477077E+03</pdfrwt>
<totfact> 0.87210146E+05</totfact>
</mgrwt>
</event>
<event>
 5    1  0.1855960E+000  0.7166711E+02  0.7546771E-02  0.1354514E+00
         21   -1    0    0  501  502  0.00000000000E+00  0.00000000000E+00  0.67840421343E+02  0.67840421343E+02  0.00000000000E+00 0. -1.
         21   -1    0    0  502  503 -0.00000000000E+00 -0.00000000000E+00 -0.16402212665E+03  0.16402212665E+03  0.00000000000E+00 0. -1.
         24    1    1    2    0    0 -0.52127966706E+01 -0.45799232569E+02 -0.38986846594E+02  0.10055810815E+03  0.80419002446E+02 0.  0.
          1    1    1    2  501    0 -0.74211895151E+01  0.26924793922E+02  0.30124675815E+02  0.41079370425E+02  0.00000000000E+00 0. -1.
         -2    1    1    2    0  503  0.12633986186E+02  0.18874438647E+02 -0.87319534526E+02  0.90225069415E+02  0.00000000000E+00 0.  1.
<mgrwt>
<rscale>  2 0.71667115E+02</rscale>
<asrwt>0</asrwt>
<pdfrwt beam="1">  1       21 0.10436988E-01 0.71667115E+02</pdfrwt>
<pdfrwt beam="2">  1       21 0.25234173E-01 0.71667115E+02</pdfrwt>
<totfact> 0.11060227E+06</totfact>
</mgrwt>
</event>
<event>
 5    1  0.1855960E+000  0.1076286E+03  0.7546771E-02  0.1265025E+00
         21   -1    0    0  503  502  0.00000000000E+00  0.00000000000E+00  0.27940596527E+03  0.27940596527E+03  0.00000000000E+00 0.  1.
         21   -1    0    0  501  503 -0.00000000000E+00 -0.00000000000E+00 -0.63021764800E+02  0.63021764800E+02  0.00000000000E+00 0. -1.
         24    1    1    2    0    0  0.20595141272E+02  0.19026431211E+02 -0.20557972408E+01  0.85191591048E+02  0.80419002446E+02 0. -1.
          1    1    1    2  501    0  0.51470638017E+02 -0.26042587810E+02  0.61058813601E+02  0.83997748042E+02  0.00000000000E+00 0. -1.
         -2    1    1    2    0  502 -0.72065779289E+02  0.70161565985E+01  0.15738118411E+03  0.17323839098E+03  0.00000000000E+00 0.  1.
<mgrwt>
<rscale>  2 0.10762864E+03</rscale>
<asrwt>0</asrwt>
<pdfrwt beam="1">  1       21 0.42985532E-01 0.10762864E+03</pdfrwt>
<pdfrwt beam="2">  1       21 0.96956563E-02 0.10762864E+03</pdfrwt>
<totfact> 0.45119484E+05</totfact>
</mgrwt>
</event>
<event>
 5    1  0.1855960E+000  0.1686228E+03  0.7546771E-02  0.1179292E+00
         21   -1    0    0  501  502  0.00000000000E+00  0.00000000000E+00  0.92491018802E+03  0.92491018802E+03  0.00000000000E+00 0. -1.
         21   -1    0    0  502  503 -0.00000000000E+00 -0.00000000000E+00 -0.34493802977E+02  0.34493802977E+02  0.00000000000E+00 0.  1.
         24    1    1    2    0    0  0.13592677796E+02 -0.12205133292E+03  0.52472927580E+03  0.54487550651E+03  0.80419002446E+02 0. -1.
          1    1    1    2  501    0  0.20045328491E+02 -0.29248073405E+02  0.10956699294E+03  0.11516158620E+03  0.00000000000E+00 0. -1.
         -2    1    1    2    0  503 -0.33638006288E+02  0.15129940632E+03  0.25612011630E+03  0.29936689829E+03  0.00000000000E+00 0.  1.
<mgrwt>
<rscale>  2 0.16862283E+03</rscale>
<asrwt>0</asrwt>
<pdfrwt beam="1">  1       21 0.14229386E+00 0.16862283E+03</pdfrwt>
<pdfrwt beam="2">  1       21 0.53067396E-02 0.16862283E+03</pdfrwt>
<totfact> 0.84412527E+04</totfact>
</mgrwt>
</event>
<event>
 5    1  0.1855960E+000  0.7911507E+02  0.7546771E-02  0.1331582E+00
         21   -1    0    0  503  502  0.00000000000E+00  0.00000000000E+00  0.93323865939E+02  0.93323865939E+02  0.00000000000E+00 0. -1.
         21   -1    0    0  501  503 -0.00000000000E+00 -0.00000000000E+00 -0.18121064353E+03  0.18121064353E+03  0.00000000000E+00 0.  1.
         24    1    1    2    0    0 -0.14285191192E+02  0.46371320469E+02  0.28373372432E+02  0.98115392610E+02  0.80419002446E+02 0. -1.
          1    1    1    2  501    0 -0.14424143605E+02 -0.23618367934E+02 -0.13321083130E+03  0.13605516822E+03  0.00000000000E+00 0. -1.
         -2    1    1    2    0  502  0.28709334797E+02 -0.22752952536E+02  0.16950681284E+02  0.40363948637E+02  0.00000000000E+00 0.  1.
<mgrwt>
<rscale>  2 0.79115068E+02</rscale>
<asrwt>0</asrwt>
<pdfrwt beam="1">  1       21 0.14357518E-01 0.79115068E+02</pdfrwt>
<pdfrwt beam="2">  1       21 0.27878560E-01 0.79115068E+02</pdfrwt>
<totfact> 0.52636492E+05</totfact>
</mgrwt>
</event>
<event>
 5    1  0.1855960E+000  0.8122171E+02  0.7546771E-02  0.1325620E+00
         21   -1    0    0  501  502  0.00000000000E+00  0.00000000000E+00  0.15519912879E+02  0.15519912879E+02  0.00000000000E+00 0. -1.
         21   -1    0    0  502  503 -0.00000000000E+00 -0.00000000000E+00 -0.19560687687E+04  0.19560687687E+04  0.00000000000E+00 0.  1.
         24    1    1    2    0    0 -0.56723246616E+02  0.45111115118E+01 -0.71696931093E+03  0.72370580045E+03  0.80419002446E+02 0. -1.
          1    1    1    2  501    0  0.34162970731E+02 -0.16982355032E+02 -0.18274273951E+02  0.42301986242E+02  0.00000000000E+00 0. -1.
         -2    1    1    2    0  503  0.22560275885E+02  0.12471243520E+02 -0.12053052710E+04  0.12055808949E+04  0.00000000000E+00 0.  1.
<mgrwt>
<rscale>  2 0.81221710E+02</rscale>
<asrwt>0</asrwt>
<pdfrwt beam="1">  1       21 0.23876787E-02 0.81221710E+02</pdfrwt>
<pdfrwt beam="2">  1       21 0.30093368E+00 0.81221710E+02</pdfrwt>
<totfact> 0.36011442E+04</totfact>
</mgrwt>
</event>
<event>
 5    1  0.1855960E+000  0.8186052E+02  0.7546771E-02  0.1323853E+00
         21   -1    0    0  501  502  0.00000000000E+00  0.00000000000E+00  0.37350950204E+02  0.37350950204E+02  0.00000000000E+00 0.  1.
         21   -1    0    0  502  503 -0.00000000000E+00 -0.00000000000E+00 -0.43391691174E+03  0.43391691174E+03  0.00000000000E+00 0.  1.
         24    1    1    2    0    0  0.34976235305E+02  0.19912155825E+02 -0.37905177863E+02  0.97590211850E+02  0.80419002446E+02 0.  1.
          1    1    1    2  501    0 -0.50244074911E+02 -0.20375175910E+01 -0.83199318427E+02  0.97214942927E+02  0.00000000000E+00 0. -1.
         -2    1    1    2    0  503  0.15267839606E+02 -0.17874638234E+02 -0.27546146525E+03  0.27646270717E+03  0.00000000000E+00 0.  1.
<mgrwt>
<rscale>  2 0.81860516E+02</rscale>
<asrwt>0</asrwt>
<pdfrwt beam="1">  1       21 0.57462996E-02 0.81860516E+02</pdfrwt>
<pdfrwt beam="2">  1       21 0.66756452E-01 0.81860516E+02</pdfrwt>
<totfact> 0.44350482E+05</totfact>
</mgrwt>
</event>
<event>
 5    1  0.1855960E+000  0.6508475E+02  0.7546771E-02  0.1377653E+00
         21   -1    0    0  501  502  0.00000000000E+00  0.00000000000E+00  0.42412103493E+03  0.42412103493E+03  0.00000000000E+00 0. -1.
         21   -1    0    0  502  503 -0.00000000000E+00 -0.00000000000E+00 -0.16793563254E+02  0.16793563254E+02  0.00000000000E+00 0.  1.
         24    1    1    2    0    0  0.73316052614E+01  0.44773313997E+01  0.12754598325E+03  0.15102646367E+03  0.80419002446E+02 0.  0.
          1    1    1    2  501    0 -0.13664092969E+02  0.19881599386E+02  0.24882276381E+03  0.24998950622E+03  0.00000000000E+00 0. -1.
         -2    1    1    2    0  503  0.63324877078E+01 -0.24358930785E+02  0.30958724621E+02  0.39898628294E+02  0.00000000000E+00 0.  1.
<mgrwt>
<rscale>  2 0.65084752E+02</rscale>
<asrwt>0</asrwt>
<pdfrwt beam="1">  1       21 0.65249382E-01 0.65084752E+02</pdfrwt>
<pdfrwt beam="2">  1       21 0.25836254E-02 0.65084752E+02</pdfrwt>
<totfact> 0.17129400E+06</totfact>
</mgrwt>
</event>
<event>
 5    1  0.1855960E+000  0.7727387E+02  0.7546771E-02  0.1336971E+00
         21   -1    0    0  501  502  0.00000000000E+00  0.00000000000E+00  0.35056557264E+02  0.35056557264E+02  0.00000000000E+00 0. -1.
         21   -1    0    0  502  503 -0.00000000000E+00 -0.00000000000E+00 -0.35708850388E+03  0.35708850388E+03  0.00000000000E+00 0. -1.
         24    1    1    2    0    0 -0.19598562162E+02 -0.17175594218E+02 -0.15793545214E+03  0.17913661734E+03  0.80419002446E+02 0. -1.
          1    1    1    2  501    0  0.17070186322E+02  0.41855585248E+02  0.18278467092E+01  0.45239609870E+02  0.00000000000E+00 0. -1.
         -2    1    1    2    0  503  0.25283758401E+01 -0.24679991031E+02 -0.16592434119E+03  0.16776883394E+03  0.00000000000E+00 0.  1.
<mgrwt>
<rscale>  2 0.77273873E+02</rscale>
<asrwt>0</asrwt>
<pdfrwt beam="1">  1       21 0.53933167E-02 0.77273873E+02</pdfrwt>
<pdfrwt beam="2">  1       21 0.54936691E-01 0.77273873E+02</pdfrwt>
<totfact> 0.74161262E+05</totfact>
</mgrwt>
</event>
<event>
 5    1  0.1855960E+000  0.8201496E+02  0.7546771E-02  0.1323429E+00
         21   -1    0    0  501  502  0.00000000000E+00  0.00000000000E+00  0.38161254388E+02  0.38161254388E+02  0.00000000000E+00 0.  1.
         21   -1    0    0  502  503 -0.00000000000E+00 -0.00000000000E+00 -0.18874801468E+03  0.18874801468E+03  0.00000000000E+00 0. -1.
         24    1    1    2    0    0 -0.11409581794E+02 -0.25329221816E+02 -0.50492061383E+02  0.98936405087E+02  0.80419002446E+02 0.  0.
          1    1    1    2  501    0  0.19530114423E+02  0.49625580578E+02 -0.58844826881E+02  0.79415598390E+02  0.00000000000E+00 0. -1.
         -2    1    1    2    0  503 -0.81205326292E+01 -0.24296358762E+02 -0.41249872028E+02  0.48557265590E+02  0.00000000000E+00 0.  1.
<mgrwt>
<rscale>  2 0.82014961E+02</rscale>
<asrwt>0</asrwt>
<pdfrwt beam="1">  1       21 0.58709622E-02 0.82014961E+02</pdfrwt>
<pdfrwt beam="2">  1       21 0.29038156E-01 0.82014961E+02</pdfrwt>
<totfact> 0.22693408E+06</totfact>
</mgrwt>
</event>
<event>
 5    1  0.1855960E+000  0.1060893E+03  0.7546771E-02  0.1267988E+00
         21   -1    0    0  501  502  0.00000000000E+00  0.00000000000E+00  0.18960504446E+02  0.18960504446E+02  0.00000000000E+00 0. -1.
         21   -1    0    0  502  503 -0.00000000000E+00 -0.00000000000E+00 -0.80633181175E+03  0.80633181175E+03  0.00000000000E+00 0.  1.
         24    1    1    2    0    0  0.34712725857E+01  0.23393176594E+02 -0.16085241228E+03  0.18138358508E+03  0.80419002446E+02 0. -1.
          1    1    1    2  501    0  0.59031204592E+02 -0.28678370130E+02 -0.15622465794E+03  0.16944992115E+03  0.00000000000E+00 0. -1.
         -2    1    1    2    0  503 -0.62502477178E+02  0.52851935354E+01 -0.47029423708E+03  0.47445880997E+03  0.00000000000E+00 0.  1.
<mgrwt>
<rscale>  2 0.10608927E+03</rscale>
<asrwt>0</asrwt>
<pdfrwt beam="1">  1       21 0.29170012E-02 0.10608927E+03</pdfrwt>
<pdfrwt beam="2">  1       21 0.12405102E+00 0.10608927E+03</pdfrwt>
<totfact> 0.33020404E+05</totfact>
</mgrwt>
</event>
<event>
 5    1  0.1855960E+000  0.1231189E+03  0.7546771E-02  0.1238039E+00
         21   -1    0    0  503  502  0.00000000000E+00  0.00000000000E+00  0.24631568318E+02  0.24631568318E+02  0.00000000000E+00 0. -1.
         21   -1    0    0  501  503 -0.00000000000E+00 -0.00000000000E+00 -0.67041588664E+03  0.67041588664E+03  0.00000000000E+00 0.  1.
         24    1    1    2    0    0 -0.32803813272E+02  0.59881685795E+02 -0.25628187099E+03  0.27714530451E+03  0.80419002446E+02 0.  1.
          1    1    1    2  501    0  0.63865587763E+02 -0.81024358186E+02 -0.34264563453E+03  0.35784045436E+03  0.00000000000E+00 0. -1.
         -2    1    1    2    0  502 -0.31061774491E+02  0.21142672391E+02 -0.46856812809E+02  0.60061696088E+02  0.00000000000E+00 0.  1.
<mgrwt>
<rscale>  2 0.12311890E+03</rscale>
<asrwt>0</asrwt>
<pdfrwt beam="1">  1       21 0.37894731E-02 0.12311890E+03</pdfrwt>
<pdfrwt beam="2">  1       21 0.10314088E+00 0.12311890E+03</pdfrwt>
<totfact> 0.33283193E+05</totfact>
</mgrwt>
</event>
<event>
 5    1  0.1855960E+000  0.8332856E+02  0.7546771E-02  0.1319862E+00
         21   -1    0    0  503  502  0.00000000000E+00  0.00000000000E+00  0.17549535389E+04  0.17549535389E+04  0.00000000000E+00 0. -1.
         21   -1    0    0  501  503 -0.00000000000E+00 -0.00000000000E+00 -0.71546551090E+01  0.71546551090E+01  0.00000000000E+00 0.  1.
         24    1    1    2    0    0 -0.46098050969E+01 -0.27813858672E+02  0.30627135423E+03  0.31790599148E+03  0.80419002446E+02 0.  1.
          1    1    1    2  501    0 -0.13026053518E+01  0.54292740763E+02  0.66986896599E+03  0.67206683453E+03  0.00000000000E+00 0. -1.
         -2    1    1    2    0  502  0.59124104487E+01 -0.26478882090E+02  0.77165856354E+03  0.77213536798E+03  0.00000000000E+00 0.  1.
<mgrwt>
<rscale>  2 0.83328562E+02</rscale>
<asrwt>0</asrwt>
<pdfrwt beam="1">  1       21 0.26999251E+00 0.83328562E+02</pdfrwt>
<pdfrwt beam="2">  1       21 0.11007176E-02 0.83328562E+02</pdfrwt>
<totfact> 0.18045410E+05</totfact>
</mgrwt>
</event>
<event>
 5    1  0.1855960E+000  0.7785377E+02  0.7546771E-02  0.1335255E+00
         21   -1    0    0  503  502  0.00000000000E+00  0.00000000000E+00  0.41674660559E+03  0.41674660559E+03  0.00000000000E+00 0.  1.
         21   -1    0    0  501  503 -0.00000000000E+00 -0.00000000000E+00 -0.29545440507E+02  0.29545440507E+02  0.00000000000E+00 0. -1.
         24    1    1    2    0    0 -0.15505345122E+02 -0.10368508742E+02  0.14949210557E+03  0.17077185741E+03  0.80419002446E+02 0. -1.
          1    1    1    2  501    0  0.37947587055E+02 -0.13607075902E+02  0.51351757969E+01  0.40639167171E+02  0.00000000000E+00 0. -1.
         -2    1    1    2    0  502 -0.22442241934E+02  0.23975584643E+02  0.23257388371E+03  0.23488102151E+03  0.00000000000E+00 0.  1.
<mgrwt>
<rscale>  2 0.77853765E+02</rscale>
<asrwt>0</asrwt>
<pdfrwt beam="1">  1       21 0.64114858E-01 0.77853765E+02</pdfrwt>
<pdfrwt beam="2">  1       21 0.45454527E-02 0.77853765E+02</pdfrwt>
<totfact> 0.71313481E+05</totfact>
</mgrwt>
</event>
<event>
 5    1  0.1855960E+000  0.6447613E+02  0.7546771E-02  0.1379953E+00
         21   -1    0    0  501  502  0.00000000000E+00  0.00000000000E+00  0.30480319325E+02  0.30480319325E+02  0.00000000000E+00 0. -1.
         21   -1    0    0  502  503 -0.00000000000E+00 -0.00000000000E+00 -0.11657170719E+04  0.11657170719E+04  0.00000000000E+00 0. -1.
         24    1    1    2    0    0 -0.56640169295E+01 -0.13455021070E+02 -0.38690162943E+03  0.39544052079E+03  0.80419002446E+02 0. -1.
          1    1    1    2  501    0 -0.19657262749E+02  0.85053842721E+01  0.21582847849E+02  0.30406723955E+02  0.00000000000E+00 0. -1.
         -2    1    1    2    0  503  0.25321279679E+02  0.49496367975E+01 -0.76991797100E+03  0.77035014648E+03  0.00000000000E+00 0.  1.
<mgrwt>
<rscale>  2 0.64476130E+02</rscale>
<asrwt>0</asrwt>
<pdfrwt beam="1">  1       21 0.46892797E-02 0.64476130E+02</pdfrwt>
<pdfrwt beam="2">  1       21 0.17934110E+00 0.64476130E+02</pdfrwt>
<totfact> 0.61151716E+04</totfact>
</mgrwt>
</event>
<event>
 5    1  0.1855960E+000  0.1013954E+03  0.7546771E-02  0.1277389E+00
         21   -1    0    0  501  502  0.00000000000E+00  0.00000000000E+00  0.67821425376E+02  0.67821425376E+02  0.00000000000E+00 0.  1.
         21   -1    0    0  502  503 -0.00000000000E+00 -0.00000000000E+00 -0.24071847910E+03  0.24071847910E+03  0.00000000000E+00 0.  1.
         24    1    1    2    0    0 -0.66292812839E+02  0.52129455048E+02 -0.60570326123E+02  0.13133239311E+03  0.80419002446E+02 0.  1.
          1    1    1    2  501    0  0.27891967990E+02 -0.10978913123E+02  0.18196398101E+02  0.35065757022E+02  0.00000000000E+00 0. -1.
         -2    1    1    2    0  503  0.38400844850E+02 -0.41150541925E+02 -0.13052312570E+03  0.14214175435E+03  0.00000000000E+00 0.  1.
<mgrwt>
<rscale>  2 0.10139535E+03</rscale>
<asrwt>0</asrwt>
<pdfrwt beam="1">  1       21 0.10434066E-01 0.10139535E+03</pdfrwt>
<pdfrwt beam="2">  1       21 0.37033612E-01 0.10139535E+03</pdfrwt>
<totfact> 0.53407611E+05</totfact>
</mgrwt>
</event>
<event>
 5    1  0.1855960E+000  0.7498514E+02  0.7546771E-02  0.1343917E+00
         21   -1    0    0  503  502  0.00000000000E+00  0.00000000000E+00  0.49375596694E+02  0.49375596694E+02  0.00000000000E+00 0.  1.
         21   -1    0    0  501  503 -0.00000000000E+00 -0.00000000000E+00 -0.22810208829E+03  0.22810208829E+03  0.00000000000E+00 0. -1.
         24    1    1    2    0    0 -0.76247230824E+00 -0.18599227769E+02  0.48127431566E+00  0.82546715361E+02  0.80419002446E+02 0.  1.
          1    1    1    2  501    0  0.62846762309E+01 -0.23826469865E+02 -0.11611064108E+03  0.11869658291E+03  0.00000000000E+00 0. -1.
         -2    1    1    2    0  502 -0.55222039227E+01  0.42425697634E+02 -0.63097124830E+02  0.76234386714E+02  0.00000000000E+00 0.  1.
<mgrwt>
<rscale>  2 0.74985137E+02</rscale>
<asrwt>0</asrwt>
<pdfrwt beam="1">  1       21 0.75962458E-02 0.74985137E+02</pdfrwt>
<pdfrwt beam="2">  1       21 0.35092628E-01 0.74985137E+02</pdfrwt>
<totfact> 0.10201040E+06</totfact>
</mgrwt>
</event>
<event>
 5    1  0.1855960E+000  0.6352918E+02  0.7546771E-02  0.1383591E+00
         21   -1    0    0  503  502  0.00000000000E+00  0.00000000000E+00  0.31346493005E+03  0.31346493005E+03  0.00000000000E+00 0.  1.
         21   -1    0    0  501  503 -0.00000000000E+00 -0.00000000000E+00 -0.37981337789E+03  0.37981337789E+03  0.00000000000E+00 0. -1.
         24    1    1    2    0    0 -0.17321449564E+02 -0.77925416095E+01 -0.12276667907E+03  0.14798523495E+03  0.80419002446E+02 0.  0.
          1    1    1    2  501    0 -0.14955945689E+01  0.21243787300E+02 -0.24352745075E+03  0.24445685625E+03  0.00000000000E+00 0. -1.
         -2    1    1    2    0  502  0.18817044132E+02 -0.13451245690E+02  0.29994568198E+03  0.30083621673E+03  0.00000000000E+00 0.  1.
<mgrwt>
<rscale>  2 0.63529176E+02</rscale>
<asrwt>0</asrwt>
<pdfrwt beam="1">  1       21 0.48225374E-01 0.63529176E+02</pdfrwt>
<pdfrwt beam="2">  1       21 0.58432827E-01 0.63529176E+02</pdfrwt>
<totfact> 0.12760033E+04</totfact>
</mgrwt>
</event>
<event>
 5    1  0.1855960E+000  0.1156554E+03  0.7546771E-02  0.1250441E+00
         21   -1    0    0  501  502  0.00000000000E+00  0.00000000000E+00  0.35131525342E+02  0.35131525342E+02  0.00000000000E+00 0.  1.
         21   -1    0    0  502  503 -0.00000000000E+00 -0.00000000000E+00 -0.12741632241E+04  0.12741632241E+04  0.00000000000E+00 0.  1.
         24    1    1    2    0    0 -0.49176670609E+02  0.67932018746E+02 -0.78047916665E+03  0.78908050896E+03  0.80419002446E+02 0.  0.
          1    1    1    2  501    0  0.14560619154E+02  0.17603737605E+02  0.21501491955E+02  0.31372238749E+02  0.00000000000E+00 0. -1.
         -2    1    1    2    0  503  0.34616051454E+02 -0.85535756351E+02 -0.48005402406E+03  0.48884200173E+03  0.00000000000E+00 0.  1.
<mgrwt>
<rscale>  2 0.11565543E+03</rscale>
<asrwt>0</asrwt>
<pdfrwt beam="1">  1       21 0.54048499E-02 0.11565543E+03</pdfrwt>
<pdfrwt beam="2">  1       21 0.19602512E+00 0.11565543E+03</pdfrwt>
<totfact> 0.35670816E+04</totfact>
</mgrwt>
</event>
<event>
 5    1  0.1855960E+000  0.1037559E+03  0.7546771E-02  0.1272590E+00
         21   -1    0    0  503  502  0.00000000000E+00  0.00000000000E+00  0.23910866292E+02  0.23910866292E+02  0.00000000000E+00 0.  1.
         21   -1    0    0  501  503 -0.00000000000E+00 -0.00000000000E+00 -0.67898020457E+03  0.67898020457E+03  0.00000000000E+00 0.  1.
         24    1    1    2    0    0  0.46217162181E+02  0.70041685461E+02 -0.35838507295E+03  0.37676111829E+03  0.80419002446E+02 0.  1.
          1    1    1    2  501    0 -0.46890230049E+01 -0.39390277652E+02 -0.25950328357E+03  0.26251768530E+03  0.00000000000E+00 0. -1.
         -2    1    1    2    0  502 -0.41528139176E+02 -0.30651407809E+02 -0.37180981756E+02  0.63612267279E+02  0.00000000000E+00 0.  1.
<mgrwt>
<rscale>  2 0.10375591E+03</rscale>
<asrwt>0</asrwt>
<pdfrwt beam="1">  1       21 0.36785949E-02 0.10375591E+03</pdfrwt>
<pdfrwt beam="2">  1       21 0.10445849E+00 0.10375591E+03</pdfrwt>
<totfact> 0.34081734E+05</totfact>
</mgrwt>
</event>
<event>
 5    1  0.1855960E+000  0.7647471E+02  0.7546771E-02  0.1339364E+00
         21   -1    0    0  503  502  0.00000000000E+00  0.00000000000E+00  0.15927390772E+02  0.15927390772E+02  0.00000000000E+00 0. -1.
         21   -1    0    0  501  503 -0.00000000000E+00 -0.00000000000E+00 -0.99930760136E+03  0.99930760136E+03  0.00000000000E+00 0. -1.
         24    1    1    2    0    0 -0.38844619159E+02  0.28174697627E+02 -0.19445554507E+03  0.21583070446E+03  0.80419002446E+02 0. -1.
          1    1    1    2  501    0  0.17170758604E+02 -0.32906596324E+02 -0.76803887241E+03  0.76893523041E+03  0.00000000000E+00 0. -1.
         -2    1    1    2    0  502  0.21673860554E+02  0.47318986971E+01 -0.20885793098E+02  0.30469057254E+02  0.00000000000E+00 0.  1.
<mgrwt>
<rscale>  2 0.76474707E+02</rscale>
<asrwt>0</asrwt>
<pdfrwt beam="1">  1       21 0.24503666E-02 0.76474707E+02</pdfrwt>
<pdfrwt beam="2">  1       21 0.15373971E+00 0.76474707E+02</pdfrwt>
<totfact> 0.25927251E+05</totfact>
</mgrwt>
</event>
<event>
 5    1  0.1855960E+000  0.2443415E+03  0.7546771E-02  0.1116934E+00
         21   -1    0    0  501  502  0.00000000000E+00  0.00000000000E+00  0.61036456278E+03  0.61036456278E+03  0.00000000000E+00 0. -1.
         21   -1    0    0  502  503 -0.00000000000E+00 -0.00000000000E+00 -0.28927337938E+03  0.28927337938E+03  0.00000000000E+00 0. -1.
         24    1    1    2    0    0  0.15189997250E+03  0.17522255567E+03 -0.10004234437E+03  0.26505137668E+03  0.80419002446E+02 0. -1.
          1    1    1    2  501    0 -0.15374163893E+03 -0.13990040019E+03  0.50362256531E+03  0.54483419661E+03  0.00000000000E+00 0. -1.
         -2    1    1    2    0  503  0.18416664254E+01 -0.35322155482E+02 -0.82489037538E+02  0.89752368866E+02  0.00000000000E+00 0.  1.
<mgrwt>
<rscale>  2 0.24434150E+03</rscale>
<asrwt>0</asrwt>
<pdfrwt beam="1">  1       21 0.93902240E-01 0.24434150E+03</pdfrwt>
<pdfrwt beam="2">  1       21 0.44503597E-01 0.24434150E+03</pdfrwt>
<totfact> 0.44429237E+03</totfact>
</mgrwt>
</event>
<event>
 5    1  0.2588335E+000  0.8750287E+02  0.7546771E-02  0.1309014E+00
         21   -1    0    0  503  502  0.00000000000E+00  0.00000000000E+00  0.39016349837E+03  0.39016349837E+03  0.00000000000E+00 0.  1.
         21   -1    0    0  501  503 -0.00000000000E+00 -0.00000000000E+00 -0.16147182682E+03  0.16147182682E+03  0.00000000000E+00 0. -1.
         24    1    1    2    0    0 -0.27721126196E+02  0.75292672801E+01  0.20279097216E+03  0.22003759917E+03  0.80419002446E+02 0.  0.
          1    1    1    2  501    0 -0.30318967759E+02 -0.87537783524E+01 -0.14640905537E+03  0.14977142563E+03  0.00000000000E+00 0. -1.
         -2    1    1    2    0  502  0.58040093955E+02  0.12245110724E+01  0.17230975475E+03  0.18182630040E+03  0.00000000000E+00 0.  1.
<mgrwt>
<rscale>  2 0.87502874E+02</rscale>
<asrwt>0</asrwt>
<pdfrwt beam="1">  1       21 0.60025154E-01 0.87502874E+02</pdfrwt>
<pdfrwt beam="2">  1       21 0.24841820E-01 0.87502874E+02</pdfrwt>
<totfact> 0.42283221E+04</totfact>
</mgrwt>
</event>
<event>
 5    1  0.1855960E+000  0.9929823E+02  0.7546771E-02  0.1281779E+00
         21   -1    0    0  501  502  0.00000000000E+00  0.00000000000E+00  0.14323330803E+04  0.14323330803E+04  0.00000000000E+00 0. -1.
         21   -1    0    0  502  503 -0.00000000000E+00 -0.00000000000E+00 -0.40397369462E+02  0.40397369462E+02  0.00000000000E+00 0.  1.
         24    1    1    2    0    0 -0.68044368113E+02  0.93125517512E+00  0.18608045680E+03  0.21383183960E+03  0.80419002446E+02 0. -1.
          1    1    1    2  501    0  0.58295200468E+02 -0.27859423182E+02  0.12235367049E+04  0.12252414236E+04  0.00000000000E+00 0. -1.
         -2    1    1    2    0  503  0.97491676450E+01  0.26928168006E+02 -0.17681450874E+02  0.33657186557E+02  0.00000000000E+00 0.  1.
<mgrwt>
<rscale>  2 0.99298232E+02</rscale>
<asrwt>0</asrwt>
<pdfrwt beam="1">  1       21 0.22035890E+00 0.99298232E+02</pdfrwt>
<pdfrwt beam="2">  1       21 0.62149810E-02 0.99298232E+02</pdfrwt>
<totfact> 0.20419434E+04</totfact>
</mgrwt>
</event>
<event>
 5    1  0.1855960E+000  0.8492860E+02  0.7546771E-02  0.1315619E+00
         21   -1    0    0  501  502  0.00000000000E+00  0.00000000000E+00  0.24110254045E+02  0.24110254045E+02  0.00000000000E+00 0. -1.
         21   -1    0    0  502  503 -0.00000000000E+00 -0.00000000000E+00 -0.31204026533E+03  0.31204026533E+03  0.00000000000E+00 0. -1.
         24    1    1    2    0    0 -0.39135082689E+02  0.47089227971E+02 -0.15477837602E+03  0.18485808537E+03  0.80419002446E+02 0. -1.
          1    1    1    2  501    0  0.12885535449E+02 -0.39364161213E+02 -0.57658977802E+02  0.70993886589E+02  0.00000000000E+00 0. -1.
         -2    1    1    2    0  503  0.26249547240E+02 -0.77250667575E+01 -0.75492657466E+02  0.80298547421E+02  0.00000000000E+00 0.  1.
<mgrwt>
<rscale>  2 0.84928603E+02</rscale>
<asrwt>0</asrwt>
<pdfrwt beam="1">  1       21 0.37092699E-02 0.84928603E+02</pdfrwt>
<pdfrwt beam="2">  1       21 0.48006195E-01 0.84928603E+02</pdfrwt>
<totfact> 0.18159795E+06</totfact>
</mgrwt>
</event>
<event>
 5    1  0.1855960E+000  0.1330258E+03  0.7546771E-02  0.1223034E+00
         21   -1    0    0  503  502  0.00000000000E+00  0.00000000000E+00  0.22713055689E+03  0.22713055689E+03  0.00000000000E+00 0.  1.
         21   -1    0    0  501  503 -0.00000000000E+00 -0.00000000000E+00 -0.23149802488E+03  0.23149802488E+03  0.00000000000E+00 0.  1.
         24    1    1    2    0    0 -0.79602099436E+02  0.56206442672E+02  0.16791985511E+03  0.21014269468E+03  0.80419002446E+02 0.  1.
          1    1    1    2  501    0  0.14580456150E+02  0.29039333383E+02 -0.12872112536E+03  0.13275918311E+03  0.00000000000E+00 0. -1.
         -2    1    1    2    0  502  0.65021643286E+02 -0.85245776055E+02 -0.43566197740E+02  0.11572670399E+03  0.00000000000E+00 0.  1.
<mgrwt>
<rscale>  2 0.13302580E+03</rscale>
<asrwt>0</asrwt>
<pdfrwt beam="1">  1       21 0.34943162E-01 0.13302580E+03</pdfrwt>
<pdfrwt beam="2">  1       21 0.35615081E-01 0.13302580E+03</pdfrwt>
<totfact> 0.61689475E+04</totfact>
</mgrwt>
</event>
<event>
 5    1  0.1855960E+000  0.8606334E+02  0.7546771E-02  0.1312675E+00
         21   -1    0    0  501  502  0.00000000000E+00  0.00000000000E+00  0.86547015721E+02  0.86547015721E+02  0.00000000000E+00 0.  1.
         21   -1    0    0  502  503 -0.00000000000E+00 -0.00000000000E+00 -0.93374233062E+02  0.93374233062E+02  0.00000000000E+00 0. -1.
         24    1    1    2    0    0  0.24277982941E+02 -0.59008850092E+02  0.16111860010E+02  0.10391473828E+03  0.80419002446E+02 0. -1.
          1    1    1    2  501    0 -0.26167861507E+02  0.27710972614E+02 -0.17315899138E+01  0.38153025866E+02  0.00000000000E+00 0. -1.
         -2    1    1    2    0  503  0.18898785664E+01  0.31297877478E+02 -0.21207487437E+02  0.37853484635E+02  0.00000000000E+00 0.  1.
<mgrwt>
<rscale>  2 0.86063336E+02</rscale>
<asrwt>0</asrwt>
<pdfrwt beam="1">  1       21 0.13314926E-01 0.86063336E+02</pdfrwt>
<pdfrwt beam="2">  1       21 0.14365267E-01 0.86063336E+02</pdfrwt>
<totfact> 0.20246044E+06</totfact>
</mgrwt>
</event>
<event>
 5    1  0.1855960E+000  0.8922432E+02  0.7546771E-02  0.1304741E+00
         21   -1    0    0  501  502  0.00000000000E+00  0.00000000000E+00  0.51235609775E+03  0.51235609775E+03  0.00000000000E+00 0. -1.
         21   -1    0    0  502  503 -0.00000000000E+00 -0.00000000000E+00 -0.35730168497E+02  0.35730168497E+02  0.00000000000E+00 0.  1.
         24    1    1    2    0    0  0.63601438519E+02  0.26681121704E+02  0.13391052954E+03  0.17075207499E+03  0.80419002446E+02 0. -1.
          1    1    1    2  501    0 -0.28974041791E+02 -0.30554020025E+00  0.33098761027E+03  0.33225349751E+03  0.00000000000E+00 0. -1.
         -2    1    1    2    0  503 -0.34627396728E+02 -0.26375581504E+02  0.11727789442E+02  0.45080693751E+02  0.00000000000E+00 0.  1.
<mgrwt>
<rscale>  2 0.89224322E+02</rscale>
<asrwt>0</asrwt>
<pdfrwt beam="1">  1       21 0.78824010E-01 0.89224322E+02</pdfrwt>
<pdfrwt beam="2">  1       21 0.54969494E-02 0.89224322E+02</pdfrwt>
<totfact> 0.33291348E+05</totfact>
</mgrwt>
</event>
<event>
 5    1  0.1855960E+000  0.7099694E+02  0.7546771E-02  0.1356735E+00
         21   -1    0    0  501  502  0.00000000000E+00  0.00000000000E+00  0.16338966113E+03  0.16338966113E+03  0.00000000000E+00 0. -1.
         21   -1    0    0  502  503 -0.00000000000E+00 -0.00000000000E+00 -0.63209489730E+03  0.63209489730E+03  0.00000000000E+00 0.  1.
         24    1    1    2    0    0  0.66678603941E+01 -0.81705647161E+01 -0.10767011733E+03  0.13480092214E+03  0.80419002446E+02 0.  0.
          1    1    1    2  501    0 -0.22135819982E+02  0.28028235599E+02  0.14738001337E+03  0.15164578747E+03  0.00000000000E+00 0. -1.
         -2    1    1    2    0  503  0.15467959588E+02 -0.19857670883E+02 -0.50841513221E+03  0.50903784882E+03  0.00000000000E+00 0.  1.
<mgrwt>
<rscale>  2 0.70996937E+02</rscale>
<asrwt>0</asrwt>
<pdfrwt beam="1">  1       21 0.25136871E-01 0.70996937E+02</pdfrwt>
<pdfrwt beam="2">  1       21 0.97245369E-01 0.70996937E+02</pdfrwt>
<totfact> 0.14693635E+04</totfact>
</mgrwt>
</event>
<event>
 5    1  0.1855960E+000  0.8952303E+02  0.7546771E-02  0.1304011E+00
         21   -1    0    0  501  502  0.00000000000E+00  0.00000000000E+00  0.59161325388E+02  0.59161325388E+02  0.00000000000E+00 0. -1.
         21   -1    0    0  502  503 -0.00000000000E+00 -0.00000000000E+00 -0.35726130822E+03  0.35726130822E+03  0.00000000000E+00 0. -1.
         24    1    1    2    0    0  0.64144145579E+01 -0.56261329028E+02 -0.22697945789E+03  0.24737294136E+03  0.80419002446E+02 0. -1.
          1    1    1    2  501    0 -0.26313909841E+02  0.65093676720E+01  0.38469804955E+02  0.47060807599E+02  0.00000000000E+00 0. -1.
         -2    1    1    2    0  503  0.19899495283E+02  0.49751961356E+02 -0.10959032990E+03  0.12198888465E+03  0.00000000000E+00 0.  1.
<mgrwt>
<rscale>  2 0.89523030E+02</rscale>
<asrwt>0</asrwt>
<pdfrwt beam="1">  1       21 0.91017422E-02 0.89523030E+02</pdfrwt>
<pdfrwt beam="2">  1       21 0.54963279E-01 0.89523030E+02</pdfrwt>
<totfact> 0.30564112E+05</totfact>
</mgrwt>
</event>
<event>
 5    1  0.1855960E+000  0.8122138E+02  0.7546771E-02  0.1325621E+00
         21   -1    0    0  501  502  0.00000000000E+00  0.00000000000E+00  0.13428301598E+04  0.13428301598E+04  0.00000000000E+00 0.  1.
         21   -1    0    0  502  503 -0.00000000000E+00 -0.00000000000E+00 -0.52202276882E+01  0.52202276882E+01  0.00000000000E+00 0.  1.
         24    1    1    2    0    0 -0.37381719488E+02 -0.16803368446E+02  0.70710408747E+03  0.71284160416E+03  0.80419002446E+02 0.  1.
          1    1    1    2  501    0  0.51749826958E+01 -0.21513816742E+02  0.31304268326E+03  0.31382375038E+03  0.00000000000E+00 0. -1.
         -2    1    1    2    0  503  0.32206736792E+02  0.38317185188E+02  0.31746316142E+03  0.32138503300E+03  0.00000000000E+00 0.  1.
<mgrwt>
<rscale>  2 0.81221383E+02</rscale>
<asrwt>0</asrwt>
<pdfrwt beam="1">  1       21 0.20658898E+00 0.81221383E+02</pdfrwt>
<pdfrwt beam="2">  1       21 0.80311302E-03 0.81221383E+02</pdfrwt>
<totfact> 0.67692771E+05</totfact>
</mgrwt>
</event>
<event>
 5    1  0.1855960E+000  0.9867758E+02  0.7546771E-02  0.1283102E+00
         21   -1    0    0  501  502  0.00000000000E+00  0.00000000000E+00  0.36999948402E+02  0.36999948402E+02  0.00000000000E+00 0. -1.
         21   -1    0    0  502  503 -0.00000000000E+00 -0.00000000000E+00 -0.10081412753E+04  0.10081412753E+04  0.00000000000E+00 0.  1.
         24    1    1    2    0    0 -0.57977663719E+02  0.31165110396E+02 -0.10205027013E+03  0.14565077132E+03  0.80419002446E+02 0. -1.
          1    1    1    2  501    0  0.23116243797E+02  0.20640083991E+02 -0.29816153110E+01  0.31133002173E+02  0.00000000000E+00 0. -1.
         -2    1    1    2    0  503  0.34861419922E+02 -0.51805194387E+02 -0.86610944144E+03  0.86835745020E+03  0.00000000000E+00 0.  1.
<mgrwt>
<rscale>  2 0.98677582E+02</rscale>
<asrwt>0</asrwt>
<pdfrwt beam="1">  1       21 0.56922989E-02 0.98677582E+02</pdfrwt>
<pdfrwt beam="2">  1       21 0.15509868E+00 0.98677582E+02</pdfrwt>
<totfact> 0.62642078E+04</totfact>
</mgrwt>
</event>
<event>
 5    1  0.1855960E+000  0.1207235E+03  0.7546771E-02  0.1241908E+00
         21   -1    0    0  503  502  0.00000000000E+00  0.00000000000E+00  0.32241593418E+03  0.32241593418E+03  0.00000000000E+00 0. -1.
         21   -1    0    0  501  503 -0.00000000000E+00 -0.00000000000E+00 -0.62439131623E+02  0.62439131623E+02  0.00000000000E+00 0.  1.
         24    1    1    2    0    0 -0.35414033010E+02 -0.61249210149E+02  0.75387014386E+02  0.13098105730E+03  0.80419002446E+02 0.  1.
          1    1    1    2  501    0  0.42538480836E+02  0.92749834776E+02  0.46638590449E+02  0.11219274630E+03  0.00000000000E+00 0. -1.
         -2    1    1    2    0  502 -0.71244478258E+01 -0.31500624627E+02  0.13795119772E+03  0.14168126221E+03  0.00000000000E+00 0.  1.
<mgrwt>
<rscale>  2 0.12072352E+03</rscale>
<asrwt>0</asrwt>
<pdfrwt beam="1">  1       21 0.49602451E-01 0.12072352E+03</pdfrwt>
<pdfrwt beam="2">  1       21 0.96060204E-02 0.12072352E+03</pdfrwt>
<totfact> 0.34217695E+05</totfact>
</mgrwt>
</event>
<event>
 5    1  0.1855960E+000  0.8214571E+02  0.7546771E-02  0.1323070E+00
         21   -1    0    0  503  502  0.00000000000E+00  0.00000000000E+00  0.32097576707E+03  0.32097576707E+03  0.00000000000E+00 0. -1.
         21   -1    0    0  501  503 -0.00000000000E+00 -0.00000000000E+00 -0.89691433144E+02  0.89691433144E+02  0.00000000000E+00 0. -1.
         24    1    1    2    0    0 -0.36923477787E+02 -0.41442779850E+02  0.16034096306E+03  0.18776924030E+03  0.80419002446E+02 0. -1.
          1    1    1    2  501    0  0.40148929844E+02  0.19928994026E+02 -0.68448537624E+02  0.81818724467E+02  0.00000000000E+00 0. -1.
         -2    1    1    2    0  502 -0.32254520573E+01  0.21513785824E+02  0.13939190849E+03  0.14107923545E+03  0.00000000000E+00 0.  1.
<mgrwt>
<rscale>  2 0.82145711E+02</rscale>
<asrwt>0</asrwt>
<pdfrwt beam="1">  1       21 0.49380887E-01 0.82145711E+02</pdfrwt>
<pdfrwt beam="2">  1       21 0.13798682E-01 0.82145711E+02</pdfrwt>
<totfact> 0.18459584E+05</totfact>
</mgrwt>
</event>
<event>
 5    1  0.1855960E+000  0.6636980E+02  0.7546771E-02  0.1372892E+00
         21   -1    0    0  501  502  0.00000000000E+00  0.00000000000E+00  0.11237329785E+03  0.11237329785E+03  0.00000000000E+00 0. -1.
         21   -1    0    0  502  503 -0.00000000000E+00 -0.00000000000E+00 -0.93823669323E+02  0.93823669323E+02  0.00000000000E+00 0.  1.
         24    1    1    2    0    0  0.11082407125E+02 -0.15553979529E+01  0.18291074444E+02  0.83228711207E+02  0.80419002446E+02 0.  1.
          1    1    1    2  501    0  0.18178729337E+02  0.10442707028E+02  0.55775734043E+02  0.59585642888E+02  0.00000000000E+00 0. -1.
         -2    1    1    2    0  503 -0.29261136462E+02 -0.88873090750E+01 -0.55517179961E+02  0.63382613077E+02  0.00000000000E+00 0.  1.
<mgrwt>
<rscale>  2 0.66369796E+02</rscale>
<asrwt>0</asrwt>
<pdfrwt beam="1">  1       21 0.17288200E-01 0.66369796E+02</pdfrwt>
<pdfrwt beam="2">  1       21 0.14434411E-01 0.66369796E+02</pdfrwt>
<totfact> 0.12489286E+06</totfact>
</mgrwt>
</event>
<event>
 5    1  0.1855960E+000  0.1108859E+03  0.7546771E-02  0.1258938E+00
         21   -1    0    0  503  502  0.00000000000E+00  0.00000000000E+00  0.11209394491E+02  0.11209394491E+02  0.00000000000E+00 0. -1.
         21   -1    0    0  501  503 -0.00000000000E+00 -0.00000000000E+00 -0.12917056973E+04  0.12917056973E+04  0.00000000000E+00 0. -1.
         24    1    1    2    0    0 -0.14444797525E+02 -0.85962922335E+02 -0.47775398496E+03  0.49225436747E+03  0.80419002446E+02 0. -1.
          1    1    1    2  501    0  0.35621905296E+02  0.58532734791E+02 -0.66907353954E+03  0.67257297188E+03  0.00000000000E+00 0. -1.
         -2    1    1    2    0  502 -0.21177107771E+02  0.27430187543E+02 -0.13366877826E+03  0.13808775240E+03  0.00000000000E+00 0.  1.
<mgrwt>
<rscale>  2 0.11088595E+03</rscale>
<asrwt>0</asrwt>
<pdfrwt beam="1">  1       21 0.17245221E-02 0.11088595E+03</pdfrwt>
<pdfrwt beam="2">  1       21 0.19872397E+00 0.11088595E+03</pdfrwt>
<totfact> 0.22353585E+05</totfact>
</mgrwt>
</event>
<event>
 5    1  0.1855960E+000  0.7494669E+02  0.7546771E-02  0.1344036E+00
         21   -1    0    0  503  502  0.00000000000E+00  0.00000000000E+00  0.50551177822E+02  0.50551177822E+02  0.00000000000E+00 0.  1.
         21   -1    0    0  501  503 -0.00000000000E+00 -0.00000000000E+00 -0.13705463553E+03  0.13705463553E+03  0.00000000000E+00 0.  1.
         24    1    1    2    0    0  0.31851973817E+02  0.32263838067E+02 -0.17362049404E+02  0.93937001212E+02  0.80419002446E+02 0.  1.
          1    1    1    2  501    0 -0.21000343949E+02  0.25074647896E+01 -0.45688738883E+02  0.50346426749E+02  0.00000000000E+00 0. -1.
         -2    1    1    2    0  502 -0.10851629868E+02 -0.34771302857E+02 -0.23452669424E+02  0.43322385394E+02  0.00000000000E+00 0.  1.
<mgrwt>
<rscale>  2 0.74946686E+02</rscale>
<asrwt>0</asrwt>
<pdfrwt beam="1">  1       21 0.77771043E-02 0.74946686E+02</pdfrwt>
<pdfrwt beam="2">  1       21 0.21085328E-01 0.74946686E+02</pdfrwt>
<totfact> 0.25533185E+06</totfact>
</mgrwt>
</event>
<event>
 5    1  0.1855960E+000  0.7680670E+02  0.7546771E-02  0.1338366E+00
         21   -1    0    0  503  502  0.00000000000E+00  0.00000000000E+00  0.91577270126E+02  0.91577270126E+02  0.00000000000E+00 0. -1.
         21   -1    0    0  501  503 -0.00000000000E+00 -0.00000000000E+00 -0.82405994408E+02  0.82405994408E+02  0.00000000000E+00 0. -1.
         24    1    1    2    0    0  0.12993870088E+02 -0.14388953116E+02  0.37932433778E+02  0.91005319176E+02  0.80419002446E+02 0.  0.
          1    1    1    2  501    0 -0.36822679958E+02 -0.85633888236E+01 -0.32272984214E+02  0.49707010546E+02  0.00000000000E+00 0. -1.
         -2    1    1    2    0  502  0.23828809870E+02  0.22952341939E+02  0.35118261534E+01  0.33270934812E+02  0.00000000000E+00 0.  1.
<mgrwt>
<rscale>  2 0.76806704E+02</rscale>
<asrwt>0</asrwt>
<pdfrwt beam="1">  1       21 0.14088811E-01 0.76806704E+02</pdfrwt>
<pdfrwt beam="2">  1       21 0.12677845E-01 0.76806704E+02</pdfrwt>
<totfact> 0.22728260E+06</totfact>
</mgrwt>
</event>
<event>
 5    1  0.1855960E+000  0.7807289E+02  0.7546771E-02  0.1334611E+00
         21   -1    0    0  503  502  0.00000000000E+00  0.00000000000E+00  0.88108584712E+01  0.88108584712E+01  0.00000000000E+00 0. -1.
         21   -1    0    0  501  503 -0.00000000000E+00 -0.00000000000E+00 -0.75214973312E+03  0.75214973312E+03  0.00000000000E+00 0.  1.
         24    1    1    2    0    0  0.36006278696E+02  0.10899433253E+02 -0.31183488440E+03  0.32422748316E+03  0.80419002446E+02 0. -1.
          1    1    1    2  501    0 -0.45594591549E+02  0.78860367452E+01 -0.30101893895E+03  0.30455452379E+03  0.00000000000E+00 0. -1.
         -2    1    1    2    0  502  0.95883128530E+01 -0.18785469998E+02 -0.13048505129E+03  0.13217858464E+03  0.00000000000E+00 0.  1.
<mgrwt>
<rscale>  2 0.78072893E+02</rscale>
<asrwt>0</asrwt>
<pdfrwt beam="1">  1       21 0.13555161E-02 0.78072893E+02</pdfrwt>
<pdfrwt beam="2">  1       21 0.11571540E+00 0.78072893E+02</pdfrwt>
<totfact> 0.13339444E+06</totfact>
</mgrwt>
</event>
<event>
 5    1  0.1855960E+000  0.7557666E+02  0.7546771E-02  0.1342095E+00
         21   -1    0    0  503  502  0.00000000000E+00  0.00000000000E+00  0.18735299004E+02  0.18735299004E+02  0.00000000000E+00 0. -1.
         21   -1    0    0  501  503 -0.00000000000E+00 -0.00000000000E+00 -0.39540678315E+03  0.39540678315E+03  0.00000000000E+00 0.  1.
         24    1    1    2    0    0 -0.88550289565E+01  0.37403435407E+02 -0.31173341725E+03  0.32422579771E+03  0.80419002446E+02 0.  1.
          1    1    1    2  501    0 -0.17867840139E+02 -0.28899842088E+02 -0.38889785191E+02  0.51641804540E+02  0.00000000000E+00 0. -1.
         -2    1    1    2    0  502  0.26722869096E+02 -0.85035933183E+01 -0.26048281711E+02  0.38274479906E+02  0.00000000000E+00 0.  1.
<mgrwt>
<rscale>  2 0.75576660E+02</rscale>
<asrwt>0</asrwt>
<pdfrwt beam="1">  1       21 0.28823537E-02 0.75576660E+02</pdfrwt>
<pdfrwt beam="2">  1       21 0.60831814E-01 0.75576660E+02</pdfrwt>
<totfact> 0.16742395E+06</totfact>
</mgrwt>
</event>
<event>
 5    1  0.1855960E+000  0.8213055E+02  0.7546771E-02  0.1323112E+00
         21   -1    0    0  501  502  0.00000000000E+00  0.00000000000E+00  0.15480189984E+03  0.15480189984E+03  0.00000000000E+00 0. -1.
         21   -1    0    0  502  503 -0.00000000000E+00 -0.00000000000E+00 -0.14297233649E+03  0.14297233649E+03  0.00000000000E+00 0.  1.
         24    1    1    2    0    0  0.35396578248E+02 -0.50101676136E+02  0.11438963527E+03  0.15269348484E+03  0.80419002446E+02 0. -1.
          1    1    1    2  501    0 -0.29944840572E+02  0.30389757439E+02 -0.22677833967E+01  0.42724392046E+02  0.00000000000E+00 0. -1.
         -2    1    1    2    0  503 -0.54517376753E+01  0.19711918696E+02 -0.10029228851E+03  0.10235635944E+03  0.00000000000E+00 0.  1.
<mgrwt>
<rscale>  2 0.82130545E+02</rscale>
<asrwt>0</asrwt>
<pdfrwt beam="1">  1       21 0.23815677E-01 0.82130545E+02</pdfrwt>
<pdfrwt beam="2">  1       21 0.21995744E-01 0.82130545E+02</pdfrwt>
<totfact> 0.32710990E+05</totfact>
</mgrwt>
</event>
<event>
 5    1  0.1855960E+000  0.8100103E+02  0.7546771E-02  0.1326234E+00
         21   -1    0    0  503  502  0.00000000000E+00  0.00000000000E+00  0.38693937538E+03  0.38693937538E+03  0.00000000000E+00 0.  1.
         21   -1    0    0  501  503 -0.00000000000E+00 -0.00000000000E+00 -0.38059435794E+02  0.38059435794E+02  0.00000000000E+00 0. -1.
         24    1    1    2    0    0 -0.31543173815E+02 -0.12022145358E+02  0.18533928490E+03  0.20483498304E+03  0.80419002446E+02 0.  1.
          1    1    1    2  501    0 -0.20282176084E+02 -0.37233406937E+01 -0.20042868569E+02  0.28756677713E+02  0.00000000000E+00 0. -1.
         -2    1    1    2    0  502  0.51825349899E+02  0.15745486052E+02  0.18358352325E+03  0.19140715042E+03  0.00000000000E+00 0.  1.
<mgrwt>
<rscale>  2 0.81001030E+02</rscale>
<asrwt>0</asrwt>
<pdfrwt beam="1">  1       21 0.59529132E-01 0.81001030E+02</pdfrwt>
<pdfrwt beam="2">  1       21 0.58552981E-02 0.81001030E+02</pdfrwt>
<totfact> 0.54747876E+05</totfact>
</mgrwt>
</event>
<event>
 5    1  0.1855960E+000  0.7180511E+02  0.7546771E-02  0.1354060E+00
         21   -1    0    0  501  502  0.00000000000E+00  0.00000000000E+00  0.11098010547E+03  0.11098010547E+03  0.00000000000E+00 0. -1.
         21   -1    0    0  502  503 -0.00000000000E+00 -0.00000000000E+00 -0.73433440736E+02  0.73433440736E+02  0.00000000000E+00 0.  1.
         24    1    1    2    0    0 -0.51904763677E+01 -0.43892303875E+02  0.16508789016E+02  0.93237500254E+02  0.80419002446E+02 0.  1.
          1    1    1    2  501    0 -0.10436238710E+02  0.26411698688E+02  0.47797343406E+02  0.55597472449E+02  0.00000000000E+00 0. -1.
         -2    1    1    2    0  503  0.15626715077E+02  0.17480605187E+02 -0.26759467687E+02  0.35578573506E+02  0.00000000000E+00 0.  1.
<mgrwt>
<rscale>  2 0.71805114E+02</rscale>
<asrwt>0</asrwt>
<pdfrwt beam="1">  1       21 0.17073862E-01 0.71805114E+02</pdfrwt>
<pdfrwt beam="2">  1       21 0.11297452E-01 0.71805114E+02</pdfrwt>
<totfact> 0.19673441E+06</totfact>
</mgrwt>
</event>
<event>
 5    1  0.1855960E+000  0.7234631E+02  0.7546771E-02  0.1352291E+00
         21   -1    0    0  501  502  0.00000000000E+00  0.00000000000E+00  0.29502444698E+03  0.29502444698E+03  0.00000000000E+00 0.  1.
         21   -1    0    0  502  503 -0.00000000000E+00 -0.00000000000E+00 -0.22798156478E+02  0.22798156478E+02  0.00000000000E+00 0. -1.
         24    1    1    2    0    0  0.10458589986E+01 -0.48829340684E+02  0.18348434897E+03  0.20620165034E+03  0.80419002446E+02 0.  0.
          1    1    1    2  501    0 -0.70377171621E+01  0.21378077727E+02  0.78584144017E+02  0.81743619697E+02  0.00000000000E+00 0. -1.
         -2    1    1    2    0  503  0.59918581635E+01  0.27451262957E+02  0.10157797523E+02  0.29877333426E+02  0.00000000000E+00 0.  1.
<mgrwt>
<rscale>  2 0.72346309E+02</rscale>
<asrwt>0</asrwt>
<pdfrwt beam="1">  1       21 0.45388374E-01 0.72346309E+02</pdfrwt>
<pdfrwt beam="2">  1       21 0.35074089E-02 0.72346309E+02</pdfrwt>
<totfact> 0.22129767E+06</totfact>
</mgrwt>
</event>
<event>
 5    1  0.1855960E+000  0.8522758E+02  0.7546771E-02  0.1314838E+00
         21   -1    0    0  503  502  0.00000000000E+00  0.00000000000E+00  0.17296793813E+04  0.17296793813E+04  0.00000000000E+00 0. -1.
         21   -1    0    0  501  503 -0.00000000000E+00 -0.00000000000E+00 -0.50075825053E+01  0.50075825053E+01  0.00000000000E+00 0. -1.
         24    1    1    2    0    0 -0.38050614578E+01 -0.62856088963E+02  0.13471614886E+04  0.13510280007E+04  0.80419002446E+02 0. -1.
          1    1    1    2  501    0 -0.97894327322E+01  0.43961070393E+02  0.23904911502E+03  0.24325478021E+03  0.00000000000E+00 0. -1.
         -2    1    1    2    0  502  0.13594494190E+02  0.18895018570E+02  0.13846119515E+03  0.14040418285E+03  0.00000000000E+00 0.  1.
<mgrwt>
<rscale>  2 0.85227579E+02</rscale>
<asrwt>0</asrwt>
<pdfrwt beam="1">  1       21 0.26610404E+00 0.85227579E+02</pdfrwt>
<pdfrwt beam="2">  1       21 0.77039869E-03 0.85227579E+02</pdfrwt>
<totfact> 0.32954873E+05</totfact>
</mgrwt>
</event>
<event>
 5    1  0.1855960E+000  0.8386447E+02  0.7546771E-02  0.1318429E+00
         21   -1    0    0  501  502  0.00000000000E+00  0.00000000000E+00  0.13216221229E+04  0.13216221229E+04  0.00000000000E+00 0. -1.
         21   -1    0    0  502  503 -0.00000000000E+00 -0.00000000000E+00 -0.18020239062E+03  0.18020239062E+03  0.00000000000E+00 0. -1.
         24    1    1    2    0    0 -0.24932748840E+02  0.10544830494E+02 -0.88688215478E+02  0.12274221333E+03  0.80419002446E+02 0. -1.
          1    1    1    2  501    0 -0.16253944349E+01 -0.41816662311E+02  0.12985828752E+04  0.12992570026E+04  0.00000000000E+00 0. -1.
         -2    1    1    2    0  503  0.26558143275E+02  0.31271831817E+02 -0.68474927447E+02  0.79825297545E+02  0.00000000000E+00 0.  1.
<mgrwt>
<rscale>  2 0.83864469E+02</rscale>
<asrwt>0</asrwt>
<pdfrwt beam="1">  1       21 0.20332647E+00 0.83864469E+02</pdfrwt>
<pdfrwt beam="2">  1       21 0.27723446E-01 0.83864469E+02</pdfrwt>
<totfact> 0.18712178E+03</totfact>
</mgrwt>
</event>
<event>
 5    1  0.1855960E+000  0.1096795E+03  0.7546771E-02  0.1261165E+00
         21   -1    0    0  503  502  0.00000000000E+00  0.00000000000E+00  0.21276636035E+02  0.21276636035E+02  0.00000000000E+00 0. -1.
         21   -1    0    0  501  503 -0.00000000000E+00 -0.00000000000E+00 -0.16180329820E+04  0.16180329820E+04  0.00000000000E+00 0. -1.
         24    1    1    2    0    0  0.62947804439E+01 -0.47959749815E+02 -0.13149985395E+03  0.16155243547E+03  0.80419002446E+02 0. -1.
          1    1    1    2  501    0 -0.57748605534E+02  0.46326002107E+02 -0.13438425455E+04  0.13458803019E+04  0.00000000000E+00 0. -1.
         -2    1    1    2    0  502  0.51453825090E+02  0.16337477084E+01 -0.12141394648E+03  0.13187688064E+03  0.00000000000E+00 0.  1.
<mgrwt>
<rscale>  2 0.10967952E+03</rscale>
<asrwt>0</asrwt>
<pdfrwt beam="1">  1       21 0.32733290E-02 0.10967952E+03</pdfrwt>
<pdfrwt beam="2">  1       21 0.24892812E+00 0.10967952E+03</pdfrwt>
<totfact> 0.39985673E+04</totfact>
</mgrwt>
</event>
<event>
 5    1  0.1855960E+000  0.9194223E+02  0.7546771E-02  0.1298215E+00
         21   -1    0    0  503  502  0.00000000000E+00  0.00000000000E+00  0.74777832115E+02  0.74777832115E+02  0.00000000000E+00 0.  1.
         21   -1    0    0  501  503 -0.00000000000E+00 -0.00000000000E+00 -0.13761471886E+03  0.13761471886E+03  0.00000000000E+00 0.  1.
         24    1    1    2    0    0 -0.44619648122E+01  0.57747217369E+02 -0.68043600968E+02  0.12021563056E+03  0.80419002446E+02 0.  1.
          1    1    1    2  501    0  0.25602888419E+02 -0.26192654313E+01 -0.14980089202E+02  0.29778709161E+02  0.00000000000E+00 0. -1.
         -2    1    1    2    0  502 -0.21140923607E+02 -0.55127951938E+02  0.20186803421E+02  0.62398211258E+02  0.00000000000E+00 0.  1.
<mgrwt>
<rscale>  2 0.91942229E+02</rscale>
<asrwt>0</asrwt>
<pdfrwt beam="1">  1       21 0.11504282E-01 0.91942229E+02</pdfrwt>
<pdfrwt beam="2">  1       21 0.21171495E-01 0.91942229E+02</pdfrwt>
<totfact> 0.13015187E+06</totfact>
</mgrwt>
</event>
<event>
 5    1  0.1855960E+000  0.7301486E+02  0.7546771E-02  0.1350131E+00
         21   -1    0    0  501  502  0.00000000000E+00  0.00000000000E+00  0.97043732558E+01  0.97043732558E+01  0.00000000000E+00 0. -1.
         21   -1    0    0  502  503 -0.00000000000E+00 -0.00000000000E+00 -0.70725130608E+03  0.70725130608E+03  0.00000000000E+00 0. -1.
         24    1    1    2    0    0 -0.28050911456E+02  0.37643007113E+02 -0.46257420282E+03  0.47185374714E+03  0.80419002446E+02 0. -1.
          1    1    1    2  501    0  0.25120246879E+02 -0.13360112976E+02 -0.42895883444E+02  0.51474034604E+02  0.00000000000E+00 0. -1.
         -2    1    1    2    0  503  0.29306645769E+01 -0.24282894137E+02 -0.19207684656E+03  0.19362789759E+03  0.00000000000E+00 0.  1.
<mgrwt>
<rscale>  2 0.73014857E+02</rscale>
<asrwt>0</asrwt>
<pdfrwt beam="1">  1       21 0.14929799E-02 0.73014857E+02</pdfrwt>
<pdfrwt beam="2">  1       21 0.10880794E+00 0.73014857E+02</pdfrwt>
<totfact> 0.13225903E+06</totfact>
</mgrwt>
</event>
<event>
 5    1  0.1855960E+000  0.7370494E+02  0.7546771E-02  0.1347929E+00
         21   -1    0    0  501  502  0.00000000000E+00  0.00000000000E+00  0.26875696846E+04  0.26875696846E+04  0.00000000000E+00 0. -1.
         21   -1    0    0  502  503 -0.00000000000E+00 -0.00000000000E+00 -0.22964698195E+01  0.22964698195E+01  0.00000000000E+00 0. -1.
         24    1    1    2    0    0  0.98086375936E+01  0.12646391452E+02  0.15513339900E+04  0.15534994384E+04  0.80419002446E+02 0. -1.
          1    1    1    2  501    0 -0.32981486496E+02 -0.22819532344E+02  0.92982710723E+03  0.93069165616E+03  0.00000000000E+00 0. -1.
         -2    1    1    2    0  503  0.23172848902E+02  0.10173140892E+02  0.20411211756E+03  0.20567505988E+03  0.00000000000E+00 0.  1.
<mgrwt>
<rscale>  2 0.73704943E+02</rscale>
<asrwt>0</asrwt>
<pdfrwt beam="1">  1       21 0.41346974E+00 0.73704943E+02</pdfrwt>
<pdfrwt beam="2">  1       21 0.35330520E-03 0.73704943E+02</pdfrwt>
<totfact> 0.16475553E+05</totfact>
</mgrwt>
</event>
<event>
 5    1  0.1855960E+000  0.6972101E+02  0.7546771E-02  0.1361044E+00
         21   -1    0    0  501  502  0.00000000000E+00  0.00000000000E+00  0.12095758589E+02  0.12095758589E+02  0.00000000000E+00 0.  1.
         21   -1    0    0  502  503 -0.00000000000E+00 -0.00000000000E+00 -0.53687597195E+03  0.53687597195E+03  0.00000000000E+00 0.  1.
         24    1    1    2    0    0 -0.19056370663E+02 -0.37654114447E+02 -0.40182868292E+03  0.41196417801E+03  0.80419002446E+02 0.  1.
          1    1    1    2  501    0  0.12002412587E+01  0.28557581092E+02 -0.28172378154E+02  0.40133015184E+02  0.00000000000E+00 0. -1.
         -2    1    1    2    0  503  0.17856129405E+02  0.90965333549E+01 -0.94779152292E+02  0.96874537344E+02  0.00000000000E+00 0.  1.
<mgrwt>
<rscale>  2 0.69721013E+02</rscale>
<asrwt>0</asrwt>
<pdfrwt beam="1">  1       21 0.18608862E-02 0.69721013E+02</pdfrwt>
<pdfrwt beam="2">  1       21 0.82596290E-01 0.69721013E+02</pdfrwt>
<totfact> 0.17428645E+06</totfact>
</mgrwt>
</event>
<event>
 5    1  0.1855960E+000  0.7760784E+02  0.7546771E-02  0.1335980E+00
         21   -1    0    0  501  502  0.00000000000E+00  0.00000000000E+00  0.27469012651E+02  0.27469012651E+02  0.00000000000E+00 0.  1.
         21   -1    0    0  502  503 -0.00000000000E+00 -0.00000000000E+00 -0.40465522967E+03  0.40465522967E+03  0.00000000000E+00 0. -1.
         24    1    1    2    0    0  0.47219968360E+02  0.75772053382E+01 -0.27502395896E+03  0.29050393011E+03  0.80419002446E+02 0. -1.
          1    1    1    2  501    0 -0.17318626871E+02 -0.22370051563E+02  0.55764650355E+01  0.28834892160E+02  0.00000000000E+00 0. -1.
         -2    1    1    2    0  503 -0.29901341489E+02  0.14792846224E+02 -0.10773872309E+03  0.11278542005E+03  0.00000000000E+00 0.  1.
<mgrwt>
<rscale>  2 0.77607838E+02</rscale>
<asrwt>0</asrwt>
<pdfrwt beam="1">  1       21 0.42260018E-02 0.77607838E+02</pdfrwt>
<pdfrwt beam="2">  1       21 0.62254653E-01 0.77607838E+02</pdfrwt>
<totfact> 0.85557353E+05</totfact>
</mgrwt>
</event>
<event>
 5    1  0.1855960E+000  0.1502202E+03  0.7546771E-02  0.1200203E+00
         21   -1    0    0  503  502  0.00000000000E+00  0.00000000000E+00  0.87664383405E+02  0.87664383405E+02  0.00000000000E+00 0. -1.
         21   -1    0    0  501  503 -0.00000000000E+00 -0.00000000000E+00 -0.78791069506E+03  0.78791069506E+03  0.00000000000E+00 0. -1.
         24    1    1    2    0    0  0.13211393077E+03 -0.10345765951E+02 -0.82673770926E+02  0.17567952052E+03  0.80419002446E+02 0. -1.
          1    1    1    2  501    0 -0.12262525844E+03 -0.99469030129E+01 -0.64941328488E+03  0.66096407578E+03  0.00000000000E+00 0. -1.
         -2    1    1    2    0  502 -0.94886723284E+01  0.20292668963E+02  0.31840744147E+02  0.38931482172E+02  0.00000000000E+00 0.  1.
<mgrwt>
<rscale>  2 0.15022015E+03</rscale>
<asrwt>0</asrwt>
<pdfrwt beam="1">  1       21 0.13486828E-01 0.15022015E+03</pdfrwt>
<pdfrwt beam="2">  1       21 0.12121703E+00 0.15022015E+03</pdfrwt>
<totfact> 0.25175476E+04</totfact>
</mgrwt>
</event>
<event>
 5    1  0.1855960E+000  0.8116600E+02  0.7546771E-02  0.1325775E+00
         21   -1    0    0  501  502  0.00000000000E+00  0.00000000000E+00  0.71066685180E+02  0.71066685180E+02  0.00000000000E+00 0.  1.
         21   -1    0    0  502  503 -0.00000000000E+00 -0.00000000000E+00 -0.33182421092E+03  0.33182421092E+03  0.00000000000E+00 0.  1.
         24    1    1    2    0    0 -0.49777274879E+02  0.22186964496E+02 -0.19514620516E+03  0.21798921035E+03  0.80419002446E+02 0. -1.
          1    1    1    2  501    0  0.20624788360E+02 -0.28673845783E+02  0.52387282036E+02  0.63182265281E+02  0.00000000000E+00 0. -1.
         -2    1    1    2    0  503  0.29152486519E+02  0.64868812872E+01 -0.11799860262E+03  0.12171942047E+03  0.00000000000E+00 0.  1.
<mgrwt>
<rscale>  2 0.81165996E+02</rscale>
<asrwt>0</asrwt>
<pdfrwt beam="1">  1       21 0.10933336E-01 0.81165996E+02</pdfrwt>
<pdfrwt beam="2">  1       21 0.51049878E-01 0.81165996E+02</pdfrwt>
<totfact> 0.25949601E+05</totfact>
</mgrwt>
</event>
<event>
 5    1  0.1855960E+000  0.7690484E+02  0.7546771E-02  0.1338072E+00
         21   -1    0    0  503  502  0.00000000000E+00  0.00000000000E+00  0.32679533327E+02  0.32679533327E+02  0.00000000000E+00 0.  1.
         21   -1    0    0  501  503 -0.00000000000E+00 -0.00000000000E+00 -0.14369415247E+04  0.14369415247E+04  0.00000000000E+00 0. -1.
         24    1    1    2    0    0 -0.28835617573E+02  0.49260777839E+01 -0.23756543924E+03  0.25250804534E+03  0.80419002446E+02 0. -1.
          1    1    1    2  501    0  0.33733886239E+02 -0.28497853735E+02 -0.11856501126E+04  0.11864722046E+04  0.00000000000E+00 0. -1.
         -2    1    1    2    0  502 -0.48982686657E+01  0.23571775951E+02  0.18953560564E+02  0.30640808009E+02  0.00000000000E+00 0.  1.
<mgrwt>
<rscale>  2 0.76904842E+02</rscale>
<asrwt>0</asrwt>
<pdfrwt beam="1">  1       21 0.50276213E-02 0.76904842E+02</pdfrwt>
<pdfrwt beam="2">  1       21 0.22106789E+00 0.76904842E+02</pdfrwt>
<totfact> 0.29822691E+04</totfact>
</mgrwt>
</event>
<event>
 5    1  0.1855960E+000  0.1006363E+03  0.7546771E-02  0.1278964E+00
         21   -1    0    0  503  502  0.00000000000E+00  0.00000000000E+00  0.12925767962E+03  0.12925767962E+03  0.00000000000E+00 0.  1.
         21   -1    0    0  501  503 -0.00000000000E+00 -0.00000000000E+00 -0.28482793445E+03  0.28482793445E+03  0.00000000000E+00 0.  1.
         24    1    1    2    0    0  0.26337885440E+02 -0.70704919895E+02 -0.18008601601E+03  0.21116595138E+03  0.80419002446E+02 0.  1.
          1    1    1    2  501    0 -0.34151450787E+02  0.19753561846E+02 -0.78427549709E+02  0.87791829630E+02  0.00000000000E+00 0. -1.
         -2    1    1    2    0  502  0.78135653471E+01  0.50951358048E+02  0.10294331088E+03  0.11512783306E+03  0.00000000000E+00 0.  1.
<mgrwt>
<rscale>  2 0.10063630E+03</rscale>
<asrwt>0</asrwt>
<pdfrwt beam="1">  1       21 0.19885797E-01 0.10063630E+03</pdfrwt>
<pdfrwt beam="2">  1       21 0.43819682E-01 0.10063630E+03</pdfrwt>
<totfact> 0.12081515E+05</totfact>
</mgrwt>
</event>
<event>
 5    1  0.1855960E+000  0.6873140E+02  0.7546771E-02  0.1364461E+00
         21   -1    0    0  501  502  0.00000000000E+00  0.00000000000E+00  0.37822923695E+02  0.37822923695E+02  0.00000000000E+00 0.  1.
         21   -1    0    0  502  503 -0.00000000000E+00 -0.00000000000E+00 -0.14856304468E+03  0.14856304468E+03  0.00000000000E+00 0. -1.
         24    1    1    2    0    0 -0.34856507744E+02 -0.21206750219E+02 -0.34431238820E+02  0.96526828126E+02  0.80419002446E+02 0.  1.
          1    1    1    2  501    0  0.23185851863E+02  0.12165975280E+00 -0.41172037570E+02  0.47251827535E+02  0.00000000000E+00 0. -1.
         -2    1    1    2    0  503  0.11670655881E+02  0.21085090466E+02 -0.35136844591E+02  0.42607312711E+02  0.00000000000E+00 0.  1.
<mgrwt>
<rscale>  2 0.68731404E+02</rscale>
<asrwt>0</asrwt>
<pdfrwt beam="1">  1       21 0.58189113E-02 0.68731404E+02</pdfrwt>
<pdfrwt beam="2">  1       21 0.22855853E-01 0.68731404E+02</pdfrwt>
<totfact> 0.35661849E+06</totfact>
</mgrwt>
</event>
<event>
 5    1  0.1855960E+000  0.6599763E+02  0.7546771E-02  0.1374258E+00
         21   -1    0    0  503  502  0.00000000000E+00  0.00000000000E+00  0.19665591126E+02  0.19665591126E+02  0.00000000000E+00 0.  1.
         21   -1    0    0  501  503 -0.00000000000E+00 -0.00000000000E+00 -0.61262069060E+03  0.61262069060E+03  0.00000000000E+00 0. -1.
         24    1    1    2    0    0 -0.21229792887E+02  0.11114012461E+02 -0.14384485592E+03  0.16653163036E+03  0.80419002446E+02 0.  0.
          1    1    1    2  501    0  0.17484737958E+02  0.14180154701E+02 -0.43679293186E+03  0.43737267653E+03  0.00000000000E+00 0. -1.
         -2    1    1    2    0  502  0.37450549295E+01 -0.25294167162E+02 -0.12317311694E+02  0.28381974847E+02  0.00000000000E+00 0.  1.
<mgrwt>
<rscale>  2 0.65997634E+02</rscale>
<asrwt>0</asrwt>
<pdfrwt beam="1">  1       21 0.30254763E-02 0.65997634E+02</pdfrwt>
<pdfrwt beam="2">  1       21 0.94249315E-01 0.65997634E+02</pdfrwt>
<totfact> 0.59654502E+05</totfact>
</mgrwt>
</event>
<event>
 5    1  0.1855960E+000  0.6954940E+02  0.7546771E-02  0.1361632E+00
         21   -1    0    0  501  502  0.00000000000E+00  0.00000000000E+00  0.44855589327E+03  0.44855589327E+03  0.00000000000E+00 0. -1.
         21   -1    0    0  502  503 -0.00000000000E+00 -0.00000000000E+00 -0.24670594493E+02  0.24670594493E+02  0.00000000000E+00 0.  1.
         24    1    1    2    0    0  0.45253890407E+02 -0.39164538776E+01  0.73916527907E+02  0.11829675507E+03  0.80419002446E+02 0.  1.
          1    1    1    2  501    0 -0.24452160693E+02 -0.33998729339E+01  0.28976439732E+03  0.29081415587E+03  0.00000000000E+00 0. -1.
         -2    1    1    2    0  503 -0.20801729714E+02  0.73163268115E+01  0.60204373553E+02  0.64115576828E+02  0.00000000000E+00 0.  1.
<mgrwt>
<rscale>  2 0.69549397E+02</rscale>
<asrwt>0</asrwt>
<pdfrwt beam="1">  1       21 0.69008593E-01 0.69549397E+02</pdfrwt>
<pdfrwt beam="2">  1       21 0.37954764E-02 0.69549397E+02</pdfrwt>
<totfact> 0.81859008E+05</totfact>
</mgrwt>
</event>
<event>
 5    1  0.1855960E+000  0.1237138E+03  0.7546771E-02  0.1237093E+00
         21   -1    0    0  503  502  0.00000000000E+00  0.00000000000E+00  0.28790436788E+02  0.28790436788E+02  0.00000000000E+00 0. -1.
         21   -1    0    0  501  503 -0.00000000000E+00 -0.00000000000E+00 -0.27089090830E+04  0.27089090830E+04  0.00000000000E+00 0. -1.
         24    1    1    2    0    0 -0.93907968787E+02 -0.15796360005E+02 -0.13419140723E+03  0.18314688455E+03  0.80419002446E+02 0. -1.
          1    1    1    2  501    0  0.53147875331E+02  0.47396297758E+02 -0.23737248427E+04  0.23747927771E+04  0.00000000000E+00 0. -1.
         -2    1    1    2    0  502  0.40760093456E+02 -0.31599937753E+02 -0.17220239634E+03  0.17975985811E+03  0.00000000000E+00 0.  1.
<mgrwt>
<rscale>  2 0.12371380E+03</rscale>
<asrwt>0</asrwt>
<pdfrwt beam="1">  1       21 0.44292955E-02 0.12371380E+03</pdfrwt>
<pdfrwt beam="2">  1       21 0.41675547E+00 0.12371380E+03</pdfrwt>
<totfact> 0.25555324E+03</totfact>
</mgrwt>
</event>
<event>
 5    1  0.1855960E+000  0.8490234E+02  0.7546771E-02  0.1315688E+00
         21   -1    0    0  503  502  0.00000000000E+00  0.00000000000E+00  0.38723308103E+03  0.38723308103E+03  0.00000000000E+00 0. -1.
         21   -1    0    0  501  503 -0.00000000000E+00 -0.00000000000E+00 -0.30204539181E+02  0.30204539181E+02  0.00000000000E+00 0.  1.
         24    1    1    2    0    0  0.12346790493E+02  0.49774462487E+02  0.24092368314E+03  0.25911653248E+03  0.80419002446E+02 0. -1.
          1    1    1    2  501    0  0.20148754198E+02 -0.84346874424E+01 -0.82162075018E+01  0.23337144506E+02  0.00000000000E+00 0. -1.
         -2    1    1    2    0  502 -0.32495544691E+02 -0.41339775045E+02  0.12432106621E+03  0.13498394323E+03  0.00000000000E+00 0.  1.
<mgrwt>
<rscale>  2 0.84902339E+02</rscale>
<asrwt>0</asrwt>
<pdfrwt beam="1">  1       21 0.59574317E-01 0.84902339E+02</pdfrwt>
<pdfrwt beam="2">  1       21 0.46468525E-02 0.84902339E+02</pdfrwt>
<totfact> 0.80327963E+05</totfact>
</mgrwt>
</event>
<event>
 5    1  0.1855960E+000  0.1109862E+03  0.7546771E-02  0.1258754E+00
         21   -1    0    0  503  502  0.00000000000E+00  0.00000000000E+00  0.36265819688E+02  0.36265819688E+02  0.00000000000E+00 0. -1.
         21   -1    0    0  501  503 -0.00000000000E+00 -0.00000000000E+00 -0.40994756651E+03  0.40994756651E+03  0.00000000000E+00 0.  1.
         24    1    1    2    0    0  0.44471537074E+02  0.53359723994E+02 -0.87981602594E+02  0.13795998008E+03  0.80419002446E+02 0. -1.
          1    1    1    2  501    0  0.57400156988E+01  0.23339221925E+02 -0.62316791189E+02  0.66791088660E+02  0.00000000000E+00 0. -1.
         -2    1    1    2    0  502 -0.50211552773E+02 -0.76698945919E+02 -0.22338335304E+03  0.24146231746E+03  0.00000000000E+00 0.  1.
<mgrwt>
<rscale>  2 0.11098619E+03</rscale>
<asrwt>0</asrwt>
<pdfrwt beam="1">  1       21 0.55793562E-02 0.11098619E+03</pdfrwt>
<pdfrwt beam="2">  1       21 0.63068864E-01 0.11098619E+03</pdfrwt>
<totfact> 0.52497793E+05</totfact>
</mgrwt>
</event>
<event>
 5    1  0.1855960E+000  0.1144359E+03  0.7546771E-02  0.1252569E+00
         21   -1    0    0  501  502  0.00000000000E+00  0.00000000000E+00  0.30032190126E+03  0.30032190126E+03  0.00000000000E+00 0. -1.
         21   -1    0    0  502  503 -0.00000000000E+00 -0.00000000000E+00 -0.84746897287E+02  0.84746897287E+02  0.00000000000E+00 0. -1.
         24    1    1    2    0    0  0.56270823112E+02 -0.83021872495E+02  0.98184869726E+02  0.16176069190E+03  0.80419002446E+02 0. -1.
          1    1    1    2  501    0 -0.44660467235E+02  0.64324502277E+02  0.15843713387E+03  0.17673291803E+03  0.00000000000E+00 0. -1.
         -2    1    1    2    0  503 -0.11610355877E+02  0.18697370218E+02 -0.41046999623E+02  0.46575188617E+02  0.00000000000E+00 0.  1.
<mgrwt>
<rscale>  2 0.11443587E+03</rscale>
<asrwt>0</asrwt>
<pdfrwt beam="1">  1       21 0.46203369E-01 0.11443587E+03</pdfrwt>
<pdfrwt beam="2">  1       21 0.13037984E-01 0.11443587E+03</pdfrwt>
<totfact> 0.23148673E+05</totfact>
</mgrwt>
</event>
<event>
 5    1  0.1855960E+000  0.7563665E+02  0.7546771E-02  0.1341911E+00
         21   -1    0    0  503  502  0.00000000000E+00  0.00000000000E+00  0.89052736461E+02  0.89052736461E+02  0.00000000000E+00 0.  1.
         21   -1    0    0  501  503 -0.00000000000E+00 -0.00000000000E+00 -0.12144225547E+03  0.12144225547E+03  0.00000000000E+00 0. -1.
         24    1    1    2    0    0 -0.46785238395E+02  0.19998620774E+02 -0.54535225541E+02  0.10968185877E+03  0.80419002446E+02 0. -1.
          1    1    1    2  501    0  0.12519079145E+02 -0.17815845587E+02 -0.30793328183E+02  0.37714198350E+02  0.00000000000E+00 0. -1.
         -2    1    1    2    0  502  0.34266159249E+02 -0.21827751871E+01  0.52939034716E+02  0.63098934807E+02  0.00000000000E+00 0.  1.
<mgrwt>
<rscale>  2 0.75636648E+02</rscale>
<asrwt>0</asrwt>
<pdfrwt beam="1">  1       21 0.13700421E-01 0.75636648E+02</pdfrwt>
<pdfrwt beam="2">  1       21 0.18683424E-01 0.75636648E+02</pdfrwt>
<totfact> 0.11963988E+06</totfact>
</mgrwt>
</event>
<event>
 5    1  0.1855960E+000  0.6386870E+02  0.7546771E-02  0.1382278E+00
         21   -1    0    0  503  502  0.00000000000E+00  0.00000000000E+00  0.34367164556E+03  0.34367164556E+03  0.00000000000E+00 0. -1.
         21   -1    0    0  501  503 -0.00000000000E+00 -0.00000000000E+00 -0.36017285698E+02  0.36017285698E+02  0.00000000000E+00 0.  1.
         24    1    1    2    0    0  0.10762739486E+02 -0.35520976739E+01  0.29826655207E+03  0.30912555054E+03  0.80419002446E+02 0. -1.
          1    1    1    2  501    0 -0.20015216414E+02 -0.15518854462E+02 -0.21418377675E+02  0.33169121697E+02  0.00000000000E+00 0. -1.
         -2    1    1    2    0  502  0.92524769278E+01  0.19070952136E+02  0.30806185468E+02  0.37394259021E+02  0.00000000000E+00 0.  1.
<mgrwt>
<rscale>  2 0.63868696E+02</rscale>
<asrwt>0</asrwt>
<pdfrwt beam="1">  1       21 0.52872559E-01 0.63868696E+02</pdfrwt>
<pdfrwt beam="2">  1       21 0.55411211E-02 0.63868696E+02</pdfrwt>
<totfact> 0.76450476E+05</totfact>
</mgrwt>
</event>
<event>
 5    1  0.1855960E+000  0.9351188E+02  0.7546771E-02  0.1294563E+00
         21   -1    0    0  503  502  0.00000000000E+00  0.00000000000E+00  0.13987113727E+03  0.13987113727E+03  0.00000000000E+00 0. -1.
         21   -1    0    0  501  503 -0.00000000000E+00 -0.00000000000E+00 -0.16608932152E+03  0.16608932152E+03  0.00000000000E+00 0.  1.
         24    1    1    2    0    0 -0.48528622493E+02 -0.12509688094E+02  0.44829736661E+02  0.10482576373E+03  0.80419002446E+02 0. -1.
          1    1    1    2  501    0 -0.13645701246E+02 -0.18340683956E+02 -0.11613828539E+03  0.11836674864E+03  0.00000000000E+00 0. -1.
         -2    1    1    2    0  502  0.62174323740E+02  0.30850372050E+02  0.45090364474E+02  0.82767946431E+02  0.00000000000E+00 0.  1.
<mgrwt>
<rscale>  2 0.93511880E+02</rscale>
<asrwt>0</asrwt>
<pdfrwt beam="1">  1       21 0.21518637E-01 0.93511880E+02</pdfrwt>
<pdfrwt beam="2">  1       21 0.25552203E-01 0.93511880E+02</pdfrwt>
<totfact> 0.29817607E+05</totfact>
</mgrwt>
</event>
<event>
 5    1  0.2307782E+000  0.9035659E+02  0.7546771E-02  0.1301990E+00
         21   -1    0    0  501  502  0.00000000000E+00  0.00000000000E+00  0.12632815693E+03  0.12632815693E+03  0.00000000000E+00 0. -1.
         21   -1    0    0  502  503 -0.00000000000E+00 -0.00000000000E+00 -0.64437552627E+03  0.64437552627E+03  0.00000000000E+00 0.  1.
         24    1    1    2    0    0  0.15096291346E+02  0.36863421220E+02  0.18023398394E+02  0.91536160508E+02  0.80419002446E+02 0.  0.
          1    1    1    2  501    0 -0.44500856374E+00 -0.61931618480E+02  0.57724304030E+02  0.84662971103E+02  0.00000000000E+00 0. -1.
         -2    1    1    2    0  503 -0.14651282783E+02  0.25068197260E+02 -0.59379507177E+03  0.59450455159E+03  0.00000000000E+00 0.  1.
<mgrwt>
<rscale>  2 0.90356594E+02</rscale>
<asrwt>0</asrwt>
<pdfrwt beam="1">  1       21 0.19435101E-01 0.90356594E+02</pdfrwt>
<pdfrwt beam="2">  1       21 0.99134695E-01 0.90356594E+02</pdfrwt>
<totfact> 0.22040462E+04</totfact>
</mgrwt>
</event>
<event>
 5    1  0.1855960E+000  0.7621422E+02  0.7546771E-02  0.1340152E+00
         21   -1    0    0  501  502  0.00000000000E+00  0.00000000000E+00  0.56542793660E+02  0.56542793660E+02  0.00000000000E+00 0. -1.
         21   -1    0    0  502  503 -0.00000000000E+00 -0.00000000000E+00 -0.15431912958E+03  0.15431912958E+03  0.00000000000E+00 0.  1.
         24    1    1    2    0    0 -0.25298876018E+02  0.41654493814E+02 -0.85569408118E+02  0.12713956718E+03  0.80419002446E+02 0.  1.
          1    1    1    2  501    0  0.30030866717E+02 -0.19652837931E+02  0.22498596433E+02  0.42358869626E+02  0.00000000000E+00 0. -1.
         -2    1    1    2    0  503 -0.47319906989E+01 -0.22001655883E+02 -0.34705524238E+02  0.41363486437E+02  0.00000000000E+00 0.  1.
<mgrwt>
<rscale>  2 0.76214223E+02</rscale>
<asrwt>0</asrwt>
<pdfrwt beam="1">  1       21 0.86988914E-02 0.76214223E+02</pdfrwt>
<pdfrwt beam="2">  1       21 0.23741404E-01 0.76214223E+02</pdfrwt>
<totfact> 0.16973937E+06</totfact>
</mgrwt>
</event>
<event>
 5    1  0.1855960E+000  0.8381645E+02  0.7546771E-02  0.1318557E+00
         21   -1    0    0  501  502  0.00000000000E+00  0.00000000000E+00  0.10410338351E+03  0.10410338351E+03  0.00000000000E+00 0. -1.
         21   -1    0    0  502  503 -0.00000000000E+00 -0.00000000000E+00 -0.90538990545E+02  0.90538990545E+02  0.00000000000E+00 0. -1.
         24    1    1    2    0    0  0.21529505548E+02 -0.13021197581E+02 -0.21680030859E+02  0.87007533513E+02  0.80419002446E+02 0. -1.
          1    1    1    2  501    0  0.86227054976E+01  0.41204332550E+02  0.48560405604E+02  0.64267107165E+02  0.00000000000E+00 0. -1.
         -2    1    1    2    0  503 -0.30152211045E+02 -0.28183134970E+02 -0.13315981779E+02  0.43367733378E+02  0.00000000000E+00 0.  1.
<mgrwt>
<rscale>  2 0.83816451E+02</rscale>
<asrwt>0</asrwt>
<pdfrwt beam="1">  1       21 0.16015905E-01 0.83816451E+02</pdfrwt>
<pdfrwt beam="2">  1       21 0.13929075E-01 0.83816451E+02</pdfrwt>
<totfact> 0.15381223E+06</totfact>
</mgrwt>
</event>
<event>
 5    1  0.1855960E+000  0.9692442E+02  0.7546771E-02  0.1286900E+00
         21   -1    0    0  503  502  0.00000000000E+00  0.00000000000E+00  0.99827384672E+02  0.99827384672E+02  0.00000000000E+00 0.  1.
         21   -1    0    0  501  503 -0.00000000000E+00 -0.00000000000E+00 -0.18702847715E+03  0.18702847715E+03  0.00000000000E+00 0. -1.
         24    1    1    2    0    0  0.27807487235E+02  0.26554682840E+02  0.51772413235E+02  0.10308252157E+03  0.80419002446E+02 0.  1.
          1    1    1    2  501    0 -0.62717847965E+02 -0.33810108738E+01 -0.12449344925E+03  0.13944023306E+03  0.00000000000E+00 0. -1.
         -2    1    1    2    0  502  0.34910360729E+02 -0.23173671966E+02 -0.14480056464E+02  0.44333107198E+02  0.00000000000E+00 0.  1.
<mgrwt>
<rscale>  2 0.96924420E+02</rscale>
<asrwt>0</asrwt>
<pdfrwt beam="1">  1       21 0.15358059E-01 0.96924420E+02</pdfrwt>
<pdfrwt beam="2">  1       21 0.28773611E-01 0.96924420E+02</pdfrwt>
<totfact> 0.43959248E+05</totfact>
</mgrwt>
</event>
<event>
 5    1  0.1855960E+000  0.9947109E+02  0.7546771E-02  0.1281412E+00
         21   -1    0    0  501  502  0.00000000000E+00  0.00000000000E+00  0.19661735775E+03  0.19661735775E+03  0.00000000000E+00 0. -1.
         21   -1    0    0  502  503 -0.00000000000E+00 -0.00000000000E+00 -0.70420844189E+02  0.70420844189E+02  0.00000000000E+00 0. -1.
         24    1    1    2    0    0  0.14955061664E+02 -0.50790250118E+02 -0.86420858947E+01  0.96670600388E+02  0.80419002446E+02 0. -1.
          1    1    1    2  501    0  0.30732433848E+02  0.47859586521E+02  0.88703412430E+02  0.10537228236E+03  0.00000000000E+00 0. -1.
         -2    1    1    2    0  503 -0.45687495512E+02  0.29306635967E+01  0.46135187028E+02  0.64995319196E+02  0.00000000000E+00 0.  1.
<mgrwt>
<rscale>  2 0.99471094E+02</rscale>
<asrwt>0</asrwt>
<pdfrwt beam="1">  1       21 0.30248824E-01 0.99471094E+02</pdfrwt>
<pdfrwt beam="2">  1       21 0.10833976E-01 0.99471094E+02</pdfrwt>
<totfact> 0.74065573E+05</totfact>
</mgrwt>
</event>
<event>
 5    1  0.1855960E+000  0.7541445E+02  0.7546771E-02  0.1342592E+00
         21   -1    0    0  503  502  0.00000000000E+00  0.00000000000E+00  0.60622185948E+02  0.60622185948E+02  0.00000000000E+00 0. -1.
         21   -1    0    0  501  503 -0.00000000000E+00 -0.00000000000E+00 -0.21142943397E+03  0.21142943397E+03  0.00000000000E+00 0.  1.
         24    1    1    2    0    0  0.41114084034E+02  0.14823424670E+02 -0.88861951646E+02  0.12756866476E+03  0.80419002446E+02 0. -1.
          1    1    1    2  501    0 -0.21151190451E+02 -0.28214966586E+02 -0.96300087800E+02  0.10255322573E+03  0.00000000000E+00 0. -1.
         -2    1    1    2    0  502 -0.19962893582E+02  0.13391541916E+02  0.34354791429E+02  0.41929729420E+02  0.00000000000E+00 0.  1.
<mgrwt>
<rscale>  2 0.75414449E+02</rscale>
<asrwt>0</asrwt>
<pdfrwt beam="1">  1       21 0.93264902E-02 0.75414449E+02</pdfrwt>
<pdfrwt beam="2">  1       21 0.32527605E-01 0.75414449E+02</pdfrwt>
<totfact> 0.83228282E+05</totfact>
</mgrwt>
</event>
<event>
 5    1  0.1855960E+000  0.6946475E+02  0.7546771E-02  0.1361923E+00
         21   -1    0    0  501  502  0.00000000000E+00  0.00000000000E+00  0.75423205571E+03  0.75423205571E+03  0.00000000000E+00 0. -1.
         21   -1    0    0  502  503 -0.00000000000E+00 -0.00000000000E+00 -0.19688587566E+02  0.19688587566E+02  0.00000000000E+00 0.  1.
         24    1    1    2    0    0 -0.24571947071E+01 -0.45447256723E+02  0.37719173725E+03  0.38834561096E+03  0.80419002446E+02 0.  0.
          1    1    1    2  501    0 -0.35829813170E+01  0.23055409267E+02  0.36129704236E+03  0.36204964089E+03  0.00000000000E+00 0. -1.
         -2    1    1    2    0  503  0.60401760242E+01  0.22391847455E+02 -0.39453114691E+01  0.23525391420E+02  0.00000000000E+00 0.  1.
<mgrwt>
<rscale>  2 0.69464746E+02</rscale>
<asrwt>0</asrwt>
<pdfrwt beam="1">  1       21 0.11603568E+00 0.69464746E+02</pdfrwt>
<pdfrwt beam="2">  1       21 0.30290140E-02 0.69464746E+02</pdfrwt>
<totfact> 0.36821553E+05</totfact>
</mgrwt>
</event>
<event>
 5    1  0.1855960E+000  0.8511807E+02  0.7546771E-02  0.1315124E+00
         21   -1    0    0  503  502  0.00000000000E+00  0.00000000000E+00  0.27603034338E+03  0.27603034338E+03  0.00000000000E+00 0.  1.
         21   -1    0    0  501  503 -0.00000000000E+00 -0.00000000000E+00 -0.43880470763E+02  0.43880470763E+02  0.00000000000E+00 0.  1.
         24    1    1    2    0    0  0.56939955270E+02  0.23530874828E+02  0.86762920958E+02  0.13338246131E+03  0.80419002446E+02 0.  1.
          1    1    1    2  501    0 -0.24343840415E+02 -0.26756883303E+02 -0.13310668473E+01  0.36198413075E+02  0.00000000000E+00 0. -1.
         -2    1    1    2    0  502 -0.32596114855E+02  0.32260084748E+01  0.14671801851E+03  0.15032993976E+03  0.00000000000E+00 0.  1.
<mgrwt>
<rscale>  2 0.85118070E+02</rscale>
<asrwt>0</asrwt>
<pdfrwt beam="1">  1       21 0.42466206E-01 0.85118070E+02</pdfrwt>
<pdfrwt beam="2">  1       21 0.67508418E-02 0.85118070E+02</pdfrwt>
<totfact> 0.85867543E+05</totfact>
</mgrwt>
</event>
<event>
 5    1  0.1855960E+000  0.8285772E+02  0.7546771E-02  0.1321132E+00
         21   -1    0    0  503  502  0.00000000000E+00  0.00000000000E+00  0.20919575537E+03  0.20919575537E+03  0.00000000000E+00 0.  1.
         21   -1    0    0  501  503 -0.00000000000E+00 -0.00000000000E+00 -0.87786278280E+02  0.87786278280E+02  0.00000000000E+00 0.  1.
         24    1    1    2    0    0  0.59655396265E+02 -0.70683606172E+01  0.49081297767E+01  0.10049892396E+03  0.80419002446E+02 0.  1.
          1    1    1    2  501    0 -0.29739772421E+02 -0.93968226237E+01 -0.31657278126E+02  0.44440269997E+02  0.00000000000E+00 0. -1.
         -2    1    1    2    0  502 -0.29915623844E+02  0.16465183241E+02  0.14815862544E+03  0.15204283969E+03  0.00000000000E+00 0.  1.
<mgrwt>
<rscale>  2 0.82857720E+02</rscale>
<asrwt>0</asrwt>
<pdfrwt beam="1">  1       21 0.32183962E-01 0.82857720E+02</pdfrwt>
<pdfrwt beam="2">  1       21 0.13505581E-01 0.82857720E+02</pdfrwt>
<totfact> 0.44627877E+05</totfact>
</mgrwt>
</event>
<event>
 5    1  0.1855960E+000  0.8094163E+02  0.7546771E-02  0.1326400E+00
         21   -1    0    0  501  502  0.00000000000E+00  0.00000000000E+00  0.85491283435E+03  0.85491283435E+03  0.00000000000E+00 0. -1.
         21   -1    0    0  502  503 -0.00000000000E+00 -0.00000000000E+00 -0.20046292990E+02  0.20046292990E+02  0.00000000000E+00 0.  1.
         24    1    1    2    0    0  0.15534500991E+02 -0.87300433342E+01  0.35410558257E+03  0.36355950536E+03  0.80419002446E+02 0.  1.
          1    1    1    2  501    0  0.31150043527E+02  0.10282586958E+02  0.45847177561E+03  0.45964380322E+03  0.00000000000E+00 0. -1.
         -2    1    1    2    0  503 -0.46684544518E+02 -0.15525436242E+01  0.22289183181E+02  0.51755818759E+02  0.00000000000E+00 0.  1.
<mgrwt>
<rscale>  2 0.80941627E+02</rscale>
<asrwt>0</asrwt>
<pdfrwt beam="1">  1       21 0.13152502E+00 0.80941627E+02</pdfrwt>
<pdfrwt beam="2">  1       21 0.30840457E-02 0.80941627E+02</pdfrwt>
<totfact> 0.26360768E+05</totfact>
</mgrwt>
</event>
<event>
 5    1  0.1855960E+000  0.6256229E+02  0.7546771E-02  0.1387383E+00
         21   -1    0    0  501  502  0.00000000000E+00  0.00000000000E+00  0.47083151097E+03  0.47083151097E+03  0.00000000000E+00 0.  1.
         21   -1    0    0  502  503 -0.00000000000E+00 -0.00000000000E+00 -0.11441320988E+02  0.11441320988E+02  0.00000000000E+00 0.  1.
         24    1    1    2    0    0  0.28949299479E+01 -0.36429373088E+01  0.32199050608E+03  0.33191377430E+03  0.80419002446E+02 0.  1.
          1    1    1    2  501    0 -0.12034777459E+02 -0.17671125883E+02  0.11858164575E+03  0.12049361505E+03  0.00000000000E+00 0. -1.
         -2    1    1    2    0  503  0.91398475106E+01  0.21314063192E+02  0.18818038153E+02  0.29865442609E+02  0.00000000000E+00 0.  1.
<mgrwt>
<rscale>  2 0.62562295E+02</rscale>
<asrwt>0</asrwt>
<pdfrwt beam="1">  1       21 0.72435602E-01 0.62562295E+02</pdfrwt>
<pdfrwt beam="2">  1       21 0.17602036E-02 0.62562295E+02</pdfrwt>
<totfact> 0.25196203E+06</totfact>
</mgrwt>
</event>
<event>
 5    1  0.1855960E+000  0.8392158E+02  0.7546771E-02  0.1318277E+00
         21   -1    0    0  503  502  0.00000000000E+00  0.00000000000E+00  0.52531402188E+02  0.52531402188E+02  0.00000000000E+00 0.  1.
         21   -1    0    0  501  503 -0.00000000000E+00 -0.00000000000E+00 -0.28739068404E+03  0.28739068404E+03  0.00000000000E+00 0. -1.
         24    1    1    2    0    0  0.98430143620E+01 -0.62861149265E+02 -0.61413471102E+02  0.11952924080E+03  0.80419002446E+02 0.  1.
          1    1    1    2  501    0 -0.10135404344E+02  0.19873552905E+02 -0.17592403527E+03  0.17733288108E+03  0.00000000000E+00 0. -1.
         -2    1    1    2    0  502  0.29238998159E+00  0.42987596360E+02  0.24782245257E+01  0.43059964346E+02  0.00000000000E+00 0.  1.
<mgrwt>
<rscale>  2 0.83921578E+02</rscale>
<asrwt>0</asrwt>
<pdfrwt beam="1">  1       21 0.80817542E-02 0.83921578E+02</pdfrwt>
<pdfrwt beam="2">  1       21 0.44213951E-01 0.83921578E+02</pdfrwt>
<totfact> 0.58368138E+05</totfact>
</mgrwt>
</event>
<event>
 5    1  0.1855960E+000  0.8384822E+02  0.7546771E-02  0.1318472E+00
         21   -1    0    0  501  502  0.00000000000E+00  0.00000000000E+00  0.78680974710E+02  0.78680974710E+02  0.00000000000E+00 0. -1.
         21   -1    0    0  502  503 -0.00000000000E+00 -0.00000000000E+00 -0.92408078353E+02  0.92408078353E+02  0.00000000000E+00 0. -1.
         24    1    1    2    0    0  0.22837724747E+01  0.42323529686E+02  0.76561633603E+01  0.91226802934E+02  0.80419002446E+02 0. -1.
          1    1    1    2  501    0  0.25202900208E+02 -0.42376552151E+02 -0.11289110362E+02  0.50580652070E+02  0.00000000000E+00 0. -1.
         -2    1    1    2    0  503 -0.27486672683E+02  0.53022464510E-01 -0.10094156640E+02  0.29281598058E+02  0.00000000000E+00 0.  1.
<mgrwt>
<rscale>  2 0.83848220E+02</rscale>
<asrwt>0</asrwt>
<pdfrwt beam="1">  1       21 0.12104765E-01 0.83848220E+02</pdfrwt>
<pdfrwt beam="2">  1       21 0.14216627E-01 0.83848220E+02</pdfrwt>
<totfact> 0.24357635E+06</totfact>
</mgrwt>
</event>
<event>
 5    1  0.1855960E+000  0.6199116E+02  0.7546771E-02  0.1389661E+00
         21   -1    0    0  501  502  0.00000000000E+00  0.00000000000E+00  0.31977871597E+02  0.31977871597E+02  0.00000000000E+00 0.  1.
         21   -1    0    0  502  503 -0.00000000000E+00 -0.00000000000E+00 -0.18217182167E+03  0.18217182167E+03  0.00000000000E+00 0.  1.
         24    1    1    2    0    0  0.35609063650E+00  0.13579622250E+01 -0.82390971637E+02  0.11514103970E+03  0.80419002446E+02 0.  0.
          1    1    1    2  501    0 -0.20813833573E+02  0.62382042322E+01  0.55932678007E+01  0.22436922800E+02  0.00000000000E+00 0. -1.
         -2    1    1    2    0  503  0.20457742936E+02 -0.75961664571E+01 -0.73396246237E+02  0.76571730767E+02  0.00000000000E+00 0.  1.
<mgrwt>
<rscale>  2 0.61991158E+02</rscale>
<asrwt>0</asrwt>
<pdfrwt beam="1">  1       21 0.49196725E-02 0.61991158E+02</pdfrwt>
<pdfrwt beam="2">  1       21 0.28026434E-01 0.61991158E+02</pdfrwt>
<totfact> 0.32029793E+06</totfact>
</mgrwt>
</event>
<event>
 5    1  0.1855960E+000  0.9389906E+02  0.7546771E-02  0.1293675E+00
         21   -1    0    0  503  502  0.00000000000E+00  0.00000000000E+00  0.15990653203E+03  0.15990653203E+03  0.00000000000E+00 0. -1.
         21   -1    0    0  501  503 -0.00000000000E+00 -0.00000000000E+00 -0.67706931098E+02  0.67706931098E+02  0.00000000000E+00 0.  1.
         24    1    1    2    0    0 -0.99411309096E+01  0.48103621988E+02  0.95023430926E+02  0.13382620413E+03  0.80419002446E+02 0.  0.
          1    1    1    2  501    0 -0.10217268235E+02 -0.65892135280E+02 -0.46426651156E+01  0.66841008381E+02  0.00000000000E+00 0. -1.
         -2    1    1    2    0  502  0.20158399144E+02  0.17788513292E+02  0.18188351215E+01  0.26946250619E+02  0.00000000000E+00 0.  1.
<mgrwt>
<rscale>  2 0.93899064E+02</rscale>
<asrwt>0</asrwt>
<pdfrwt beam="1">  1       21 0.24601005E-01 0.93899064E+02</pdfrwt>
<pdfrwt beam="2">  1       21 0.10416451E-01 0.93899064E+02</pdfrwt>
<totfact> 0.11720016E+06</totfact>
</mgrwt>
</event>
<event>
 5    1  0.1855960E+000  0.1053758E+03  0.7546771E-02  0.1269381E+00
         21   -1    0    0  503  502  0.00000000000E+00  0.00000000000E+00  0.80988029083E+03  0.80988029083E+03  0.00000000000E+00 0. -1.
         21   -1    0    0  501  503 -0.00000000000E+00 -0.00000000000E+00 -0.35082032804E+02  0.35082032804E+02  0.00000000000E+00 0. -1.
         24    1    1    2    0    0 -0.35570896555E+02  0.41397546931E+02  0.43176199437E+03  0.44256601916E+03  0.80419002446E+02 0. -1.
          1    1    1    2  501    0  0.50077318315E+02 -0.67290891944E+02  0.31733305786E+02  0.89681685112E+02  0.00000000000E+00 0. -1.
         -2    1    1    2    0  502 -0.14506421760E+02  0.25893345014E+02  0.31130295787E+03  0.31271461937E+03  0.00000000000E+00 0.  1.
<mgrwt>
<rscale>  2 0.10537578E+03</rscale>
<asrwt>0</asrwt>
<pdfrwt beam="1">  1       21 0.12459695E+00 0.10537578E+03</pdfrwt>
<pdfrwt beam="2">  1       21 0.53972364E-02 0.10537578E+03</pdfrwt>
<totfact> 0.11817015E+05</totfact>
</mgrwt>
</event>
<event>
 5    1  0.2120318E+000  0.1021266E+03  0.7546771E-02  0.1275887E+00
         21   -1    0    0  503  502  0.00000000000E+00  0.00000000000E+00  0.12078995446E+04  0.12078995446E+04  0.00000000000E+00 0.  1.
         21   -1    0    0  501  503 -0.00000000000E+00 -0.00000000000E+00 -0.48023600179E+02  0.48023600179E+02  0.00000000000E+00 0. -1.
         24    1    1    2    0    0  0.60080368658E+01 -0.99240312462E+01  0.57247867905E+03  0.57821590848E+03  0.80419002446E+02 0.  1.
          1    1    1    2  501    0 -0.58045481823E+02 -0.21860070453E+02 -0.21589540786E+02  0.65675329551E+02  0.00000000000E+00 0. -1.
         -2    1    1    2    0  502  0.52037444957E+02  0.31784101699E+02  0.60898680618E+03  0.61203190677E+03  0.00000000000E+00 0.  1.
<mgrwt>
<rscale>  2 0.10212660E+03</rscale>
<asrwt>0</asrwt>
<pdfrwt beam="1">  1       21 0.18583068E+00 0.10212660E+03</pdfrwt>
<pdfrwt beam="2">  1       21 0.73882471E-02 0.10212660E+03</pdfrwt>
<totfact> 0.24760778E+04</totfact>
</mgrwt>
</event>
<event>
 5    1  0.1855960E+000  0.1127019E+03  0.7546771E-02  0.1255647E+00
         21   -1    0    0  501  502  0.00000000000E+00  0.00000000000E+00  0.32837628988E+03  0.32837628988E+03  0.00000000000E+00 0. -1.
         21   -1    0    0  502  503 -0.00000000000E+00 -0.00000000000E+00 -0.10181435268E+03  0.10181435268E+03  0.00000000000E+00 0.  1.
         24    1    1    2    0    0  0.21907760127E+02 -0.16813626106E+02 -0.31500442421E+02  0.90676026621E+02  0.80419002446E+02 0.  1.
          1    1    1    2  501    0  0.38809556674E+02  0.55983143223E+02  0.25843120626E+03  0.26725826906E+03  0.00000000000E+00 0. -1.
         -2    1    1    2    0  503 -0.60717316801E+02 -0.39169517117E+02 -0.36882663037E+00  0.72256346875E+02  0.00000000000E+00 0.  1.
<mgrwt>
<rscale>  2 0.11270186E+03</rscale>
<asrwt>0</asrwt>
<pdfrwt beam="1">  1       21 0.50519429E-01 0.11270186E+03</pdfrwt>
<pdfrwt beam="2">  1       21 0.15663747E-01 0.11270186E+03</pdfrwt>
<totfact> 0.13893380E+05</totfact>
</mgrwt>
</event>
<event>
 5    1  0.1855960E+000  0.1522379E+03  0.7546771E-02  0.1197750E+00
         21   -1    0    0  501  502  0.00000000000E+00  0.00000000000E+00  0.42928349580E+03  0.42928349580E+03  0.00000000000E+00 0.  1.
         21   -1    0    0  502  503 -0.00000000000E+00 -0.00000000000E+00 -0.73991928111E+02  0.73991928111E+02  0.00000000000E+00 0. -1.
         24    1    1    2    0    0 -0.34789381677E+02 -0.88024109420E+02  0.26682003068E+03  0.29431053267E+03  0.80419002446E+02 0.  1.
          1    1    1    2  501    0  0.39826525024E+02  0.13104354071E+03  0.92793635424E+02  0.16543645436E+03  0.00000000000E+00 0. -1.
         -2    1    1    2    0  503 -0.50371433471E+01 -0.43019431292E+02 -0.43220984157E+01  0.43528436872E+02  0.00000000000E+00 0.  1.
<mgrwt>
<rscale>  2 0.15223786E+03</rscale>
<asrwt>0</asrwt>
<pdfrwt beam="1">  1       21 0.66043613E-01 0.15223786E+03</pdfrwt>
<pdfrwt beam="2">  1       21 0.11383374E-01 0.15223786E+03</pdfrwt>
<totfact> 0.13767483E+05</totfact>
</mgrwt>
</event>
<event>
 5    1  0.1855960E+000  0.1150431E+03  0.7546771E-02  0.1251506E+00
         21   -1    0    0  501  502  0.00000000000E+00  0.00000000000E+00  0.10719956204E+04  0.10719956204E+04  0.00000000000E+00 0. -1.
         21   -1    0    0  502  503 -0.00000000000E+00 -0.00000000000E+00 -0.24376368967E+02  0.24376368967E+02  0.00000000000E+00 0.  1.
         24    1    1    2    0    0  0.38370102944E+02 -0.69509863624E+02  0.67540440654E+03  0.68479355595E+03  0.80419002446E+02 0. -1.
          1    1    1    2  501    0 -0.65281100165E+02  0.37603143816E+02  0.36041201328E+03  0.36820162653E+03  0.00000000000E+00 0. -1.
         -2    1    1    2    0  503  0.26910997221E+02  0.31906719807E+02  0.11802831592E+02  0.43376806866E+02  0.00000000000E+00 0.  1.
<mgrwt>
<rscale>  2 0.11504308E+03</rscale>
<asrwt>0</asrwt>
<pdfrwt beam="1">  1       21 0.16492237E+00 0.11504308E+03</pdfrwt>
<pdfrwt beam="2">  1       21 0.37502114E-02 0.11504308E+03</pdfrwt>
<totfact> 0.10554249E+05</totfact>
</mgrwt>
</event>
<event>
 5    1  0.1855960E+000  0.8423698E+02  0.7546771E-02  0.1317440E+00
         21   -1    0    0  503  502  0.00000000000E+00  0.00000000000E+00  0.12869184927E+03  0.12869184927E+03  0.00000000000E+00 0. -1.
         21   -1    0    0  501  503 -0.00000000000E+00 -0.00000000000E+00 -0.65037866057E+02  0.65037866057E+02  0.00000000000E+00 0.  1.
         24    1    1    2    0    0  0.14729184381E+02  0.34714138781E+01  0.39395183399E+02  0.90819579476E+02  0.80419002446E+02 0.  0.
          1    1    1    2  501    0 -0.45526230104E+02 -0.22146006523E+02 -0.11758475933E+02  0.51974464775E+02  0.00000000000E+00 0. -1.
         -2    1    1    2    0  502  0.30797045723E+02  0.18674592645E+02  0.36017275751E+02  0.50935671079E+02  0.00000000000E+00 0.  1.
<mgrwt>
<rscale>  2 0.84236975E+02</rscale>
<asrwt>0</asrwt>
<pdfrwt beam="1">  1       21 0.19798746E-01 0.84236975E+02</pdfrwt>
<pdfrwt beam="2">  1       21 0.10005826E-01 0.84236975E+02</pdfrwt>
<totfact> 0.18705457E+06</totfact>
</mgrwt>
</event>
<event>
 5    1  0.1855960E+000  0.6897056E+02  0.7546771E-02  0.1363629E+00
         21   -1    0    0  503  502  0.00000000000E+00  0.00000000000E+00  0.46925165767E+02  0.46925165767E+02  0.00000000000E+00 0.  1.
         21   -1    0    0  501  503 -0.00000000000E+00 -0.00000000000E+00 -0.20540697438E+03  0.20540697438E+03  0.00000000000E+00 0.  1.
         24    1    1    2    0    0 -0.16580843215E+02  0.41997142678E+02 -0.13990436629E+03  0.16756829060E+03  0.80419002446E+02 0.  1.
          1    1    1    2  501    0  0.12296264062E+02 -0.21449331738E+02 -0.44803517850E+02  0.51172523424E+02  0.00000000000E+00 0. -1.
         -2    1    1    2    0  502  0.42845791530E+01 -0.20547810939E+02  0.26226075525E+02  0.33591326118E+02  0.00000000000E+00 0.  1.
<mgrwt>
<rscale>  2 0.68970558E+02</rscale>
<asrwt>0</asrwt>
<pdfrwt beam="1">  1       21 0.72192563E-02 0.68970558E+02</pdfrwt>
<pdfrwt beam="2">  1       21 0.31601073E-01 0.68970558E+02</pdfrwt>
<totfact> 0.13557394E+06</totfact>
</mgrwt>
</event>
<event>
 5    1  0.1855960E+000  0.6571302E+02  0.7546771E-02  0.1375309E+00
         21   -1    0    0  503  502  0.00000000000E+00  0.00000000000E+00  0.57853262210E+03  0.57853262210E+03  0.00000000000E+00 0.  1.
         21   -1    0    0  501  503 -0.00000000000E+00 -0.00000000000E+00 -0.97488331936E+01  0.97488331936E+01  0.00000000000E+00 0. -1.
         24    1    1    2    0    0  0.11554349299E+02  0.67287369404E+01  0.44006755053E+03  0.44755496185E+03  0.80419002446E+02 0.  1.
          1    1    1    2  501    0 -0.25547183876E+02  0.10575133986E+02  0.36087381793E+02  0.45461975182E+02  0.00000000000E+00 0. -1.
         -2    1    1    2    0  502  0.13992834577E+02 -0.17303870926E+02  0.92628856588E+02  0.95264518271E+02  0.00000000000E+00 0.  1.
<mgrwt>
<rscale>  2 0.65713018E+02</rscale>
<asrwt>0</asrwt>
<pdfrwt beam="1">  1       21 0.89004992E-01 0.65713018E+02</pdfrwt>
<pdfrwt beam="2">  1       21 0.14998209E-02 0.65713018E+02</pdfrwt>
<totfact> 0.20707988E+06</totfact>
</mgrwt>
</event>
<event>
 5    1  0.2396438E+000  0.8842925E+02  0.7546771E-02  0.1306701E+00
         21   -1    0    0  503  502  0.00000000000E+00  0.00000000000E+00  0.40780660153E+03  0.40780660153E+03  0.00000000000E+00 0.  1.
         21   -1    0    0  501  503 -0.00000000000E+00 -0.00000000000E+00 -0.11511685699E+03  0.11511685699E+03  0.00000000000E+00 0. -1.
         24    1    1    2    0    0  0.23041149919E+02  0.35977596442E+02  0.21006509994E+03  0.22895380364E+03  0.80419002446E+02 0. -1.
          1    1    1    2  501    0 -0.15466571777E+02 -0.59294755064E+02 -0.95879856207E+02  0.11378940920E+03  0.00000000000E+00 0. -1.
         -2    1    1    2    0  502 -0.75745781419E+01  0.23317158622E+02  0.17850450081E+03  0.18018024567E+03  0.00000000000E+00 0.  1.
<mgrwt>
<rscale>  2 0.88429247E+02</rscale>
<asrwt>0</asrwt>
<pdfrwt beam="1">  1       21 0.62739477E-01 0.88429247E+02</pdfrwt>
<pdfrwt beam="2">  1       21 0.17710286E-01 0.88429247E+02</pdfrwt>
<totfact> 0.71694206E+04</totfact>
</mgrwt>
</event>
<event>
 5    1  0.1855960E+000  0.7291149E+02  0.7546771E-02  0.1350463E+00
         21   -1    0    0  503  502  0.00000000000E+00  0.00000000000E+00  0.23408900225E+02  0.23408900225E+02  0.00000000000E+00 0. -1.
         21   -1    0    0  501  503 -0.00000000000E+00 -0.00000000000E+00 -0.28491336114E+03  0.28491336114E+03  0.00000000000E+00 0.  1.
         24    1    1    2    0    0 -0.77033108456E+00  0.30072143224E+02 -0.12101635134E+03  0.14838160416E+03  0.80419002446E+02 0.  0.
          1    1    1    2  501    0 -0.25514972141E+02 -0.13197623398E+02 -0.11801468068E+03  0.12146051179E+03  0.00000000000E+00 0. -1.
         -2    1    1    2    0  502  0.26285303225E+02 -0.16874519827E+02 -0.22473428891E+02  0.38480145415E+02  0.00000000000E+00 0.  1.
<mgrwt>
<rscale>  2 0.72911493E+02</rscale>
<asrwt>0</asrwt>
<pdfrwt beam="1">  1       21 0.36013694E-02 0.72911493E+02</pdfrwt>
<pdfrwt beam="2">  1       21 0.43832823E-01 0.72911493E+02</pdfrwt>
<totfact> 0.22733884E+06</totfact>
</mgrwt>
</event>
<event>
 5    1  0.1855960E+000  0.7800170E+02  0.7546771E-02  0.1334820E+00
         21   -1    0    0  503  502  0.00000000000E+00  0.00000000000E+00  0.64077925907E+03  0.64077925907E+03  0.00000000000E+00 0. -1.
         21   -1    0    0  501  503 -0.00000000000E+00 -0.00000000000E+00 -0.22249567089E+02  0.22249567089E+02  0.00000000000E+00 0. -1.
         24    1    1    2    0    0 -0.27066313558E+02 -0.18878551113E+02  0.18046060810E+03  0.20030534704E+03  0.80419002446E+02 0. -1.
          1    1    1    2  501    0  0.46754559333E+02  0.13646751020E+02  0.37071606540E+02  0.61208877161E+02  0.00000000000E+00 0. -1.
         -2    1    1    2    0  502 -0.19688245775E+02  0.52318000928E+01  0.40099747734E+03  0.40151460196E+03  0.00000000000E+00 0.  1.
<mgrwt>
<rscale>  2 0.78001699E+02</rscale>
<asrwt>0</asrwt>
<pdfrwt beam="1">  1       21 0.98581410E-01 0.78001699E+02</pdfrwt>
<pdfrwt beam="2">  1       21 0.34230108E-02 0.78001699E+02</pdfrwt>
<totfact> 0.44083075E+05</totfact>
</mgrwt>
</event>
<event>
 5    1  0.1855960E+000  0.1201880E+03  0.7546771E-02  0.1242787E+00
         21   -1    0    0  501  502  0.00000000000E+00  0.00000000000E+00  0.75269829077E+03  0.75269829077E+03  0.00000000000E+00 0. -1.
         21   -1    0    0  502  503 -0.00000000000E+00 -0.00000000000E+00 -0.38112313537E+02  0.38112313537E+02  0.00000000000E+00 0.  1.
         24    1    1    2    0    0 -0.67840002964E+02 -0.48320275956E+02  0.23715594914E+03  0.26390770212E+03  0.80419002446E+02 0. -1.
          1    1    1    2  501    0  0.77274997126E+02  0.67897784806E+02  0.49074880739E+03  0.50141392712E+03  0.00000000000E+00 0. -1.
         -2    1    1    2    0  503 -0.94349941618E+01 -0.19577508850E+02 -0.13318779299E+02  0.25488975060E+02  0.00000000000E+00 0.  1.
<mgrwt>
<rscale>  2 0.12018804E+03</rscale>
<asrwt>0</asrwt>
<pdfrwt beam="1">  1       21 0.11579973E+00 0.12018804E+03</pdfrwt>
<pdfrwt beam="2">  1       21 0.58634334E-02 0.12018804E+03</pdfrwt>
<totfact> 0.12187950E+05</totfact>
</mgrwt>
</event>
<event>
 5    1  0.1855960E+000  0.6818848E+02  0.7546771E-02  0.1366364E+00
         21   -1    0    0  501  502  0.00000000000E+00  0.00000000000E+00  0.16521526786E+02  0.16521526786E+02  0.00000000000E+00 0.  1.
         21   -1    0    0  502  503 -0.00000000000E+00 -0.00000000000E+00 -0.44724396294E+03  0.44724396294E+03  0.00000000000E+00 0.  1.
         24    1    1    2    0    0  0.21333307229E+02  0.25735523042E+02 -0.18452650207E+03  0.20404576218E+03  0.80419002446E+02 0.  1.
          1    1    1    2  501    0 -0.23569064476E+02 -0.11512688863E+00 -0.16939176368E+02  0.29024984935E+02  0.00000000000E+00 0. -1.
         -2    1    1    2    0  503  0.22357572463E+01 -0.25620396154E+02 -0.22925675771E+03  0.23069474261E+03  0.00000000000E+00 0.  1.
<mgrwt>
<rscale>  2 0.68188482E+02</rscale>
<asrwt>0</asrwt>
<pdfrwt beam="1">  1       21 0.25417740E-02 0.68188482E+02</pdfrwt>
<pdfrwt beam="2">  1       21 0.68806747E-01 0.68188482E+02</pdfrwt>
<totfact> 0.15739772E+06</totfact>
</mgrwt>
</event>
<event>
 5    1  0.1855960E+000  0.1061396E+03  0.7546771E-02  0.1267890E+00
         21   -1    0    0  501  502  0.00000000000E+00  0.00000000000E+00  0.71444312550E+01  0.71444312550E+01  0.00000000000E+00 0. -1.
         21   -1    0    0  502  503 -0.00000000000E+00 -0.00000000000E+00 -0.15903608709E+04  0.15903608709E+04  0.00000000000E+00 0. -1.
         24    1    1    2    0    0 -0.59342942635E+02 -0.48318721970E+02 -0.75432533018E+03  0.76245013178E+03  0.80419002446E+02 0. -1.
          1    1    1    2  501    0  0.73449398120E+02  0.33244284747E+02 -0.65583478804E+03  0.66077171985E+03  0.00000000000E+00 0. -1.
         -2    1    1    2    0  503 -0.14106455485E+02  0.15074437223E+02 -0.17305632143E+03  0.17428345054E+03  0.00000000000E+00 0.  1.
<mgrwt>
<rscale>  2 0.10613959E+03</rscale>
<asrwt>0</asrwt>
<pdfrwt beam="1">  1       21 0.10991438E-02 0.10613959E+03</pdfrwt>
<pdfrwt beam="2">  1       21 0.24467079E+00 0.10613959E+03</pdfrwt>
<totfact> 0.24449502E+05</totfact>
</mgrwt>
</event>
<event>
 5    1  0.1855960E+000  0.7740192E+02  0.7546771E-02  0.1336590E+00
         21   -1    0    0  503  502  0.00000000000E+00  0.00000000000E+00  0.79284184060E+02  0.79284184060E+02  0.00000000000E+00 0.  1.
         21   -1    0    0  501  503 -0.00000000000E+00 -0.00000000000E+00 -0.99461045772E+02  0.99461045772E+02  0.00000000000E+00 0.  1.
         24    1    1    2    0    0  0.10833698359E+02  0.55138962207E+02 -0.24895671698E+02  0.10121602935E+03  0.80419002446E+02 0.  1.
          1    1    1    2  501    0 -0.88556463231E+01 -0.25528659788E+02 -0.24067319622E+02  0.36185229254E+02  0.00000000000E+00 0. -1.
         -2    1    1    2    0  502 -0.19780520362E+01 -0.29610302419E+02  0.28786129608E+02  0.41343971229E+02  0.00000000000E+00 0.  1.
<mgrwt>
<rscale>  2 0.77401916E+02</rscale>
<asrwt>0</asrwt>
<pdfrwt beam="1">  1       21 0.12197567E-01 0.77401916E+02</pdfrwt>
<pdfrwt beam="2">  1       21 0.15301699E-01 0.77401916E+02</pdfrwt>
<totfact> 0.21011530E+06</totfact>
</mgrwt>
</event>
<event>
 5    1  0.1855960E+000  0.1024856E+03  0.7546771E-02  0.1275154E+00
         21   -1    0    0  503  502  0.00000000000E+00  0.00000000000E+00  0.42462358216E+02  0.42462358216E+02  0.00000000000E+00 0.  1.
         21   -1    0    0  501  503 -0.00000000000E+00 -0.00000000000E+00 -0.58450967261E+03  0.58450967261E+03  0.00000000000E+00 0.  1.
         24    1    1    2    0    0  0.48073364060E+02  0.43045521223E+02 -0.30132820510E+03  0.31848056200E+03  0.80419002446E+02 0.  1.
          1    1    1    2  501    0  0.21444076136E+02 -0.30444981407E+01 -0.22589201077E+03  0.22692800158E+03  0.00000000000E+00 0. -1.
         -2    1    1    2    0  502 -0.69517440196E+02 -0.40001023083E+02 -0.14827098525E+02  0.81563467249E+02  0.00000000000E+00 0.  1.
<mgrwt>
<rscale>  2 0.10248560E+03</rscale>
<asrwt>0</asrwt>
<pdfrwt beam="1">  1       21 0.65326709E-02 0.10248560E+03</pdfrwt>
<pdfrwt beam="2">  1       21 0.89924559E-01 0.10248560E+03</pdfrwt>
<totfact> 0.18476842E+05</totfact>
</mgrwt>
</event>
<event>
 5    1  0.1855960E+000  0.1111029E+03  0.7546771E-02  0.1258541E+00
         21   -1    0    0  503  502  0.00000000000E+00  0.00000000000E+00  0.38140473519E+03  0.38140473519E+03  0.00000000000E+00 0.  1.
         21   -1    0    0  501  503 -0.00000000000E+00 -0.00000000000E+00 -0.93070251538E+02  0.93070251538E+02  0.00000000000E+00 0. -1.
         24    1    1    2    0    0  0.16672046733E+02  0.70249505749E+02  0.11124560805E+03  0.15509916655E+03  0.80419002446E+02 0. -1.
          1    1    1    2  501    0 -0.40387208100E+01 -0.90322824234E+02 -0.41515182310E+02  0.99488864732E+02  0.00000000000E+00 0. -1.
         -2    1    1    2    0  502 -0.12633325923E+02  0.20073318485E+02  0.21860405792E+03  0.21988695545E+03  0.00000000000E+00 0.  1.
<mgrwt>
<rscale>  2 0.11110290E+03</rscale>
<asrwt>0</asrwt>
<pdfrwt beam="1">  1       21 0.58677651E-01 0.11110290E+03</pdfrwt>
<pdfrwt beam="2">  1       21 0.14318500E-01 0.11110290E+03</pdfrwt>
<totfact> 0.11961197E+05</totfact>
</mgrwt>
</event>
<event>
 5    1  0.1855960E+000  0.7014925E+02  0.7546771E-02  0.1359586E+00
         21   -1    0    0  501  502  0.00000000000E+00  0.00000000000E+00  0.34985034983E+03  0.34985034983E+03  0.00000000000E+00 0. -1.
         21   -1    0    0  502  503 -0.00000000000E+00 -0.00000000000E+00 -0.17222849239E+02  0.17222849239E+02  0.00000000000E+00 0.  1.
         24    1    1    2    0    0 -0.26162479748E+02 -0.28129088972E+02  0.14635880892E+03  0.17135879871E+03  0.80419002446E+02 0.  1.
          1    1    1    2  501    0  0.18384566867E+01  0.26749102008E+02  0.14756488950E+03  0.14998096877E+03  0.00000000000E+00 0. -1.
         -2    1    1    2    0  503  0.24324023061E+02  0.13799869640E+01  0.38703802173E+02  0.45733431586E+02  0.00000000000E+00 0.  1.
<mgrwt>
<rscale>  2 0.70149250E+02</rscale>
<asrwt>0</asrwt>
<pdfrwt beam="1">  1       21 0.53823125E-01 0.70149250E+02</pdfrwt>
<pdfrwt beam="2">  1       21 0.26496694E-02 0.70149250E+02</pdfrwt>
<totfact> 0.24625451E+06</totfact>
</mgrwt>
</event>
<event>
 5    1  0.1855960E+000  0.6361577E+02  0.7546771E-02  0.1383255E+00
         21   -1    0    0  503  502  0.00000000000E+00  0.00000000000E+00  0.20752270414E+03  0.20752270414E+03  0.00000000000E+00 0.  1.
         21   -1    0    0  501  503 -0.00000000000E+00 -0.00000000000E+00 -0.54391233502E+02  0.54391233502E+02  0.00000000000E+00 0.  1.
         24    1    1    2    0    0 -0.16385365210E+02  0.15213948100E+02 -0.13805865913E+02  0.84603559605E+02  0.80419002446E+02 0.  1.
          1    1    1    2  501    0  0.22002556846E+02  0.51838056622E+01  0.24598062732E+02  0.33407320142E+02  0.00000000000E+00 0. -1.
         -2    1    1    2    0  502 -0.56171916362E+01 -0.20397753762E+02  0.14233927381E+03  0.14390305789E+03  0.00000000000E+00 0.  1.
<mgrwt>
<rscale>  2 0.63615770E+02</rscale>
<asrwt>0</asrwt>
<pdfrwt beam="1">  1       21 0.31926569E-01 0.63615770E+02</pdfrwt>
<pdfrwt beam="2">  1       21 0.83678822E-02 0.63615770E+02</pdfrwt>
<totfact> 0.10331114E+06</totfact>
</mgrwt>
</event>
<event>
 5    1  0.4738075E+000  0.8257771E+02  0.7546771E-02  0.1321891E+00
         21   -1    0    0  503  502  0.00000000000E+00  0.00000000000E+00  0.46916824772E+03  0.46916824772E+03  0.00000000000E+00 0. -1.
         21   -1    0    0  501  503 -0.00000000000E+00 -0.00000000000E+00 -0.44286617742E+03  0.44286617742E+03  0.00000000000E+00 0. -1.
         24    1    1    2    0    0  0.16653823291E+02  0.55776052193E+02  0.37717517768E+03  0.39002134357E+03  0.80419002446E+02 0. -1.
          1    1    1    2  501    0 -0.25642897754E+02 -0.36453234900E+02 -0.43395689707E+03  0.43623959593E+03  0.00000000000E+00 0. -1.
         -2    1    1    2    0  502  0.89890744627E+01 -0.19322817293E+02  0.83083789694E+02  0.85773485634E+02  0.00000000000E+00 0.  1.
<mgrwt>
<rscale>  2 0.82577713E+02</rscale>
<asrwt>0</asrwt>
<pdfrwt beam="1">  1       21 0.72179730E-01 0.82577713E+02</pdfrwt>
<pdfrwt beam="2">  1       21 0.68133258E-01 0.82577713E+02</pdfrwt>
<totfact> 0.38577152E+03</totfact>
</mgrwt>
</event>
<event>
 5    1  0.1855960E+000  0.9260383E+02  0.7546771E-02  0.1296666E+00
         21   -1    0    0  503  502  0.00000000000E+00  0.00000000000E+00  0.81914811067E+03  0.81914811067E+03  0.00000000000E+00 0.  1.
         21   -1    0    0  501  503 -0.00000000000E+00 -0.00000000000E+00 -0.25509089725E+02  0.25509089725E+02  0.00000000000E+00 0.  1.
         24    1    1    2    0    0  0.46361688364E+02 -0.26108872763E+02  0.12555620098E+03  0.15831189136E+03  0.80419002446E+02 0.  1.
          1    1    1    2  501    0 -0.20378673059E+02 -0.24514050489E+02  0.24380111834E+02  0.40132515994E+02  0.00000000000E+00 0. -1.
         -2    1    1    2    0  502 -0.25983015305E+02  0.50622923251E+02  0.64370270813E+03  0.64621279305E+03  0.00000000000E+00 0.  1.
<mgrwt>
<rscale>  2 0.92603831E+02</rscale>
<asrwt>0</asrwt>
<pdfrwt beam="1">  1       21 0.12602277E+00 0.92603831E+02</pdfrwt>
<pdfrwt beam="2">  1       21 0.39244760E-02 0.92603831E+02</pdfrwt>
<totfact> 0.19639117E+05</totfact>
</mgrwt>
</event>
<event>
 5    1  0.1855960E+000  0.6270686E+02  0.7546771E-02  0.1386811E+00
         21   -1    0    0  503  502  0.00000000000E+00  0.00000000000E+00  0.16742411181E+02  0.16742411181E+02  0.00000000000E+00 0.  1.
         21   -1    0    0  501  503 -0.00000000000E+00 -0.00000000000E+00 -0.42850194033E+03  0.42850194033E+03  0.00000000000E+00 0. -1.
         24    1    1    2    0    0 -0.28676255486E+01 -0.43073359237E+01 -0.12052913317E+03  0.14498711776E+03  0.80419002446E+02 0.  0.
          1    1    1    2  501    0  0.22175316196E+02  0.10522265001E+02 -0.26917988025E+03  0.27029663454E+03  0.00000000000E+00 0. -1.
         -2    1    1    2    0  502 -0.19307690647E+02 -0.62149290775E+01 -0.22050515728E+02  0.29960599217E+02  0.00000000000E+00 0.  1.
<mgrwt>
<rscale>  2 0.62706864E+02</rscale>
<asrwt>0</asrwt>
<pdfrwt beam="1">  1       21 0.25757559E-02 0.62706864E+02</pdfrwt>
<pdfrwt beam="2">  1       21 0.65923367E-01 0.62706864E+02</pdfrwt>
<totfact> 0.16819185E+06</totfact>
</mgrwt>
</event>
<event>
 5    1  0.1855960E+000  0.7356855E+02  0.7546771E-02  0.1348362E+00
         21   -1    0    0  501  502  0.00000000000E+00  0.00000000000E+00  0.22312588981E+02  0.22312588981E+02  0.00000000000E+00 0. -1.
         21   -1    0    0  502  503 -0.00000000000E+00 -0.00000000000E+00 -0.25108859808E+03  0.25108859808E+03  0.00000000000E+00 0.  1.
         24    1    1    2    0    0 -0.26651604988E+01  0.21914092603E+02 -0.15039186778E+03  0.17196586982E+03  0.80419002446E+02 0.  0.
          1    1    1    2  501    0  0.30227852959E+02 -0.19723683963E+02 -0.37215563428E+02  0.51843465980E+02  0.00000000000E+00 0. -1.
         -2    1    1    2    0  503 -0.27562692460E+02 -0.21904086406E+01 -0.41168577897E+02  0.49591851263E+02  0.00000000000E+00 0.  1.
<mgrwt>
<rscale>  2 0.73568549E+02</rscale>
<asrwt>0</asrwt>
<pdfrwt beam="1">  1       21 0.34327059E-02 0.73568549E+02</pdfrwt>
<pdfrwt beam="2">  1       21 0.38629016E-01 0.73568549E+02</pdfrwt>
<totfact> 0.31560048E+06</totfact>
</mgrwt>
</event>
<event>
 5    1  0.1855960E+000  0.1400445E+03  0.7546771E-02  0.1213269E+00
         21   -1    0    0  501  502  0.00000000000E+00  0.00000000000E+00  0.25860572551E+03  0.25860572551E+03  0.00000000000E+00 0.  1.
         21   -1    0    0  502  503 -0.00000000000E+00 -0.00000000000E+00 -0.30774714491E+03  0.30774714491E+03  0.00000000000E+00 0.  1.
         24    1    1    2    0    0 -0.85160499259E+02 -0.62558267141E+02  0.36964736185E+01  0.13284098499E+03  0.80419002446E+02 0.  1.
          1    1    1    2  501    0  0.22203239175E+02 -0.28790150123E+02  0.17572495030E+03  0.17944669050E+03  0.00000000000E+00 0. -1.
         -2    1    1    2    0  503  0.62957260084E+02  0.91348417264E+02 -0.22856284332E+03  0.25406519494E+03  0.00000000000E+00 0.  1.
<mgrwt>
<rscale>  2 0.14004450E+03</rscale>
<asrwt>0</asrwt>
<pdfrwt beam="1">  1       21 0.39785496E-01 0.14004450E+03</pdfrwt>
<pdfrwt beam="2">  1       21 0.47345714E-01 0.14004450E+03</pdfrwt>
<totfact> 0.26804464E+04</totfact>
</mgrwt>
</event>
<event>
 5    1  0.1855960E+000  0.1497781E+03  0.7546771E-02  0.1200746E+00
         21   -1    0    0  501  502  0.00000000000E+00  0.00000000000E+00  0.21404094605E+02  0.21404094605E+02  0.00000000000E+00 0. -1.
         21   -1    0    0  502  503 -0.00000000000E+00 -0.00000000000E+00 -0.18902163037E+04  0.18902163037E+04  0.00000000000E+00 0.  1.
         24    1    1    2    0    0  0.91200771465E+02 -0.37271852985E+02 -0.69917212315E+03  0.71064452822E+03  0.80419002446E+02 0. -1.
          1    1    1    2  501    0 -0.12855973524E+03  0.40737743737E+02 -0.28246133605E+03  0.31300411443E+03  0.00000000000E+00 0. -1.
         -2    1    1    2    0  503  0.37358963772E+02 -0.34658907525E+01 -0.88717874986E+03  0.88797175562E+03  0.00000000000E+00 0.  1.
<mgrwt>
<rscale>  2 0.14977810E+03</rscale>
<asrwt>0</asrwt>
<pdfrwt beam="1">  1       21 0.32929365E-02 0.14977810E+03</pdfrwt>
<pdfrwt beam="2">  1       21 0.29080261E+00 0.14977810E+03</pdfrwt>
<totfact> 0.21876980E+04</totfact>
</mgrwt>
</event>
<event>
 5    1  0.1855960E+000  0.7883971E+02  0.7546771E-02  0.1332377E+00
         21   -1    0    0  501  502  0.00000000000E+00  0.00000000000E+00  0.25883020917E+03  0.25883020917E+03  0.00000000000E+00 0. -1.
         21   -1    0    0  502  503 -0.00000000000E+00 -0.00000000000E+00 -0.69142288317E+02  0.69142288317E+02  0.00000000000E+00 0.  1.
         24    1    1    2    0    0 -0.77649637512E+01 -0.60732260923E+01  0.45778441471E+02  0.93059445491E+02  0.80419002446E+02 0. -1.
          1    1    1    2  501    0 -0.27235374757E+02  0.24911900581E+02  0.17846640879E+03  0.18224331948E+03  0.00000000000E+00 0. -1.
         -2    1    1    2    0  503  0.35000338508E+02 -0.18838674488E+02 -0.34556929414E+02  0.52669732510E+02  0.00000000000E+00 0.  1.
<mgrwt>
<rscale>  2 0.78839713E+02</rscale>
<asrwt>0</asrwt>
<pdfrwt beam="1">  1       21 0.39820032E-01 0.78839713E+02</pdfrwt>
<pdfrwt beam="2">  1       21 0.10637275E-01 0.78839713E+02</pdfrwt>
<totfact> 0.44798572E+05</totfact>
</mgrwt>
</event>
<event>
 5    1  0.1855960E+000  0.8807816E+02  0.7546771E-02  0.1307574E+00
         21   -1    0    0  503  502  0.00000000000E+00  0.00000000000E+00  0.14591887300E+03  0.14591887300E+03  0.00000000000E+00 0.  1.
         21   -1    0    0  501  503 -0.00000000000E+00 -0.00000000000E+00 -0.80339451221E+02  0.80339451221E+02  0.00000000000E+00 0.  1.
         24    1    1    2    0    0 -0.36403890565E+02 -0.36236066923E+02 -0.28887317293E+02  0.99699492722E+02  0.80419002446E+02 0.  1.
          1    1    1    2  501    0  0.43435287842E+02 -0.39160295654E+00  0.32561549588E+02  0.54286573795E+02  0.00000000000E+00 0. -1.
         -2    1    1    2    0  502 -0.70313972772E+01  0.36627669880E+02  0.61905189480E+02  0.72272257700E+02  0.00000000000E+00 0.  1.
<mgrwt>
<rscale>  2 0.88078165E+02</rscale>
<asrwt>0</asrwt>
<pdfrwt beam="1">  1       21 0.22449057E-01 0.88078165E+02</pdfrwt>
<pdfrwt beam="2">  1       21 0.12359916E-01 0.88078165E+02</pdfrwt>
<totfact> 0.10289253E+06</totfact>
</mgrwt>
</event>
<event>
 5    1  0.1855960E+000  0.1032709E+03  0.7546771E-02  0.1273564E+00
         21   -1    0    0  503  502  0.00000000000E+00  0.00000000000E+00  0.27971318667E+03  0.27971318667E+03  0.00000000000E+00 0. -1.
         21   -1    0    0  501  503 -0.00000000000E+00 -0.00000000000E+00 -0.49694478624E+02  0.49694478624E+02  0.00000000000E+00 0. -1.
         24    1    1    2    0    0  0.34432765509E+01  0.69092139434E+02  0.84033774943E+02  0.13533096900E+03  0.80419002446E+02 0. -1.
          1    1    1    2  501    0 -0.25221082432E+02 -0.73964476010E+02  0.44006596400E+02  0.89685156170E+02  0.00000000000E+00 0. -1.
         -2    1    1    2    0  502  0.21777805881E+02  0.48723365759E+01  0.10197833670E+03  0.10439154013E+03  0.00000000000E+00 0.  1.
<mgrwt>
<rscale>  2 0.10327085E+03</rscale>
<asrwt>0</asrwt>
<pdfrwt beam="1">  1       21 0.43032797E-01 0.10327085E+03</pdfrwt>
<pdfrwt beam="2">  1       21 0.76453046E-02 0.10327085E+03</pdfrwt>
<totfact> 0.67802665E+05</totfact>
</mgrwt>
</event>
<event>
 5    1  0.1855960E+000  0.7248016E+02  0.7546771E-02  0.1351857E+00
         21   -1    0    0  503  502  0.00000000000E+00  0.00000000000E+00  0.21193822765E+02  0.21193822765E+02  0.00000000000E+00 0. -1.
         21   -1    0    0  501  503 -0.00000000000E+00 -0.00000000000E+00 -0.49120718967E+03  0.49120718967E+03  0.00000000000E+00 0. -1.
         24    1    1    2    0    0 -0.35863390253E+01  0.33651329489E+02 -0.42928553536E+03  0.43806227939E+03  0.80419002446E+02 0. -1.
          1    1    1    2  501    0  0.24749161616E+02 -0.12257660534E+02 -0.33450895118E+02  0.43378953729E+02  0.00000000000E+00 0. -1.
         -2    1    1    2    0  502 -0.21162822590E+02 -0.21393668955E+02 -0.72769364276E+01  0.30959779313E+02  0.00000000000E+00 0.  1.
<mgrwt>
<rscale>  2 0.72480162E+02</rscale>
<asrwt>0</asrwt>
<pdfrwt beam="1">  1       21 0.32605877E-02 0.72480162E+02</pdfrwt>
<pdfrwt beam="2">  1       21 0.75570347E-01 0.72480162E+02</pdfrwt>
<totfact> 0.86251774E+05</totfact>
</mgrwt>
</event>
<event>
 5    1  0.1855960E+000  0.9363444E+02  0.7546771E-02  0.1294282E+00
         21   -1    0    0  501  502  0.00000000000E+00  0.00000000000E+00  0.36884949021E+03  0.36884949021E+03  0.00000000000E+00 0.  1.
         21   -1    0    0  502  503 -0.00000000000E+00 -0.00000000000E+00 -0.52987633398E+02  0.52987633398E+02  0.00000000000E+00 0.  1.
         24    1    1    2    0    0  0.21868086267E+02 -0.45230425237E+02  0.72047320553E+02  0.11908835761E+03  0.80419002446E+02 0.  1.
          1    1    1    2  501    0  0.29305402686E+02  0.19183098080E+02  0.24280545317E+03  0.24531874361E+03  0.00000000000E+00 0. -1.
         -2    1    1    2    0  503 -0.51173488953E+02  0.26047327158E+02  0.10090830952E+01  0.57430022396E+02  0.00000000000E+00 0.  1.
<mgrwt>
<rscale>  2 0.93634439E+02</rscale>
<asrwt>0</asrwt>
<pdfrwt beam="1">  1       21 0.56746074E-01 0.93634439E+02</pdfrwt>
<pdfrwt beam="2">  1       21 0.81519438E-02 0.93634439E+02</pdfrwt>
<totfact> 0.34535423E+05</totfact>
</mgrwt>
</event>
<event>
 5    1  0.1855960E+000  0.1132105E+03  0.7546771E-02  0.1254738E+00
         21   -1    0    0  503  502  0.00000000000E+00  0.00000000000E+00  0.11515830488E+03  0.11515830488E+03  0.00000000000E+00 0.  1.
         21   -1    0    0  501  503 -0.00000000000E+00 -0.00000000000E+00 -0.12952896850E+03  0.12952896850E+03  0.00000000000E+00 0.  1.
         24    1    1    2    0    0 -0.86015425989E+02  0.13002612176E+01 -0.45639734829E+02  0.12629546919E+03  0.80419002446E+02 0.  1.
          1    1    1    2  501    0  0.41987138004E+01  0.22945647386E+02 -0.77227113883E+01  0.24571776548E+02  0.00000000000E+00 0. -1.
         -2    1    1    2    0  502  0.81816712188E+02 -0.24245908603E+02  0.38991782596E+02  0.93820027645E+02  0.00000000000E+00 0.  1.
<mgrwt>
<rscale>  2 0.11321046E+03</rscale>
<asrwt>0</asrwt>
<pdfrwt beam="1">  1       21 0.17716662E-01 0.11321046E+03</pdfrwt>
<pdfrwt beam="2">  1       21 0.19927534E-01 0.11321046E+03</pdfrwt>
<totfact> 0.67518031E+05</totfact>
</mgrwt>
</event>
<event>
 5    1  0.1855960E+000  0.6635936E+02  0.7546771E-02  0.1372930E+00
         21   -1    0    0  501  502  0.00000000000E+00  0.00000000000E+00  0.20243933890E+03  0.20243933890E+03  0.00000000000E+00 0.  1.
         21   -1    0    0  502  503 -0.00000000000E+00 -0.00000000000E+00 -0.30676997962E+02  0.30676997962E+02  0.00000000000E+00 0.  1.
         24    1    1    2    0    0  0.21506057834E+01  0.90833713237E+01  0.84709502457E+02  0.11717528963E+03  0.80419002446E+02 0.  1.
          1    1    1    2  501    0 -0.20041993805E+02  0.12580350840E+02  0.84474715446E+02  0.87726417302E+02  0.00000000000E+00 0. -1.
         -2    1    1    2    0  503  0.17891388022E+02 -0.21663722164E+02  0.25781230313E+01  0.28214629923E+02  0.00000000000E+00 0.  1.
<mgrwt>
<rscale>  2 0.66359360E+02</rscale>
<asrwt>0</asrwt>
<pdfrwt beam="1">  1       21 0.31144513E-01 0.66359360E+02</pdfrwt>
<pdfrwt beam="2">  1       21 0.47195383E-02 0.66359360E+02</pdfrwt>
<totfact> 0.28225981E+06</totfact>
</mgrwt>
</event>
<event>
 5    1  0.1855960E+000  0.1063431E+03  0.7546771E-02  0.1267496E+00
         21   -1    0    0  501  502  0.00000000000E+00  0.00000000000E+00  0.36269540023E+02  0.36269540023E+02  0.00000000000E+00 0. -1.
         21   -1    0    0  502  503 -0.00000000000E+00 -0.00000000000E+00 -0.41388304935E+03  0.41388304935E+03  0.00000000000E+00 0.  1.
         24    1    1    2    0    0 -0.42801824504E+02  0.31261683418E+02 -0.16196788375E+03  0.18844123846E+03  0.80419002446E+02 0.  0.
          1    1    1    2  501    0  0.25654190092E+02  0.37538124003E+02 -0.13405686116E+02  0.47402116442E+02  0.00000000000E+00 0. -1.
         -2    1    1    2    0  503  0.17147634412E+02 -0.68799807421E+02 -0.20223993947E+03  0.21430923448E+03  0.00000000000E+00 0.  1.
<mgrwt>
<rscale>  2 0.10634308E+03</rscale>
<asrwt>0</asrwt>
<pdfrwt beam="1">  1       21 0.55799292E-02 0.10634308E+03</pdfrwt>
<pdfrwt beam="2">  1       21 0.63674316E-01 0.10634308E+03</pdfrwt>
<totfact> 0.51446328E+05</totfact>
</mgrwt>
</event>
<event>
 5    1  0.1855960E+000  0.7501479E+02  0.7546771E-02  0.1343825E+00
         21   -1    0    0  501  502  0.00000000000E+00  0.00000000000E+00  0.75368242332E+01  0.75368242332E+01  0.00000000000E+00 0. -1.
         21   -1    0    0  502  503 -0.00000000000E+00 -0.00000000000E+00 -0.80498243322E+03  0.80498243322E+03  0.00000000000E+00 0.  1.
         24    1    1    2    0    0 -0.21085385223E+01 -0.46329789431E+01 -0.51309391006E+03  0.51938279422E+03  0.80419002446E+02 0.  1.
          1    1    1    2  501    0 -0.30969343059E+02  0.15501029817E+02 -0.10928837427E+03  0.11464436700E+03  0.00000000000E+00 0. -1.
         -2    1    1    2    0  503  0.33077881581E+02 -0.10868050874E+02 -0.17506332465E+03  0.17849209624E+03  0.00000000000E+00 0.  1.
<mgrwt>
<rscale>  2 0.75014785E+02</rscale>
<asrwt>0</asrwt>
<pdfrwt beam="1">  1       21 0.11595110E-02 0.75014785E+02</pdfrwt>
<pdfrwt beam="2">  1       21 0.12384350E+00 0.75014785E+02</pdfrwt>
<totfact> 0.14477694E+06</totfact>
</mgrwt>
</event>
<event>
 5    1  0.1855960E+000  0.1533875E+03  0.7546771E-02  0.1196371E+00
         21   -1    0    0  503  502  0.00000000000E+00  0.00000000000E+00  0.53435384249E+03  0.53435384249E+03  0.00000000000E+00 0. -1.
         21   -1    0    0  501  503 -0.00000000000E+00 -0.00000000000E+00 -0.90465835128E+02  0.90465835128E+02  0.00000000000E+00 0.  1.
         24    1    1    2    0    0 -0.11358113919E+03 -0.13921488672E+02  0.97042559754E+02  0.17023206920E+03  0.80419002446E+02 0.  1.
          1    1    1    2  501    0  0.13605863675E+03  0.29935938270E+02  0.37851554747E+02  0.14436361464E+03  0.00000000000E+00 0. -1.
         -2    1    1    2    0  502 -0.22477497558E+02 -0.16014449598E+02  0.30899389286E+03  0.31022399378E+03  0.00000000000E+00 0.  1.
<mgrwt>
<rscale>  2 0.15338753E+03</rscale>
<asrwt>0</asrwt>
<pdfrwt beam="1">  1       21 0.82208282E-01 0.15338753E+03</pdfrwt>
<pdfrwt beam="2">  1       21 0.13917821E-01 0.15338753E+03</pdfrwt>
<totfact> 0.59219172E+04</totfact>
</mgrwt>
</event>
<event>
 5    1  0.1855960E+000  0.7272526E+02  0.7546771E-02  0.1351063E+00
         21   -1    0    0  501  502  0.00000000000E+00  0.00000000000E+00  0.26196758649E+03  0.26196758649E+03  0.00000000000E+00 0.  1.
         21   -1    0    0  502  503 -0.00000000000E+00 -0.00000000000E+00 -0.24637466505E+02  0.24637466505E+02  0.00000000000E+00 0. -1.
         24    1    1    2    0    0 -0.79536834471E+01 -0.13527026630E+02  0.72410045645E+02  0.10934656919E+03  0.80419002446E+02 0.  1.
          1    1    1    2  501    0  0.27938658611E+02  0.27442868977E+02  0.11903255097E+03  0.12530932884E+03  0.00000000000E+00 0. -1.
         -2    1    1    2    0  503 -0.19984975164E+02 -0.13915842347E+02  0.45887523372E+02  0.51949154967E+02  0.00000000000E+00 0.  1.
<mgrwt>
<rscale>  2 0.72725265E+02</rscale>
<asrwt>0</asrwt>
<pdfrwt beam="1">  1       21 0.40302704E-01 0.72725265E+02</pdfrwt>
<pdfrwt beam="2">  1       21 0.37903796E-02 0.72725265E+02</pdfrwt>
<totfact> 0.24692702E+06</totfact>
</mgrwt>
</event>
<event>
 5    1  0.1855960E+000  0.7034123E+02  0.7546771E-02  0.1358937E+00
         21   -1    0    0  501  502  0.00000000000E+00  0.00000000000E+00  0.13378997242E+03  0.13378997242E+03  0.00000000000E+00 0. -1.
         21   -1    0    0  502  503 -0.00000000000E+00 -0.00000000000E+00 -0.22135005726E+03  0.22135005726E+03  0.00000000000E+00 0.  1.
         24    1    1    2    0    0  0.12387504856E+02  0.16469826624E+02 -0.67887898724E+02  0.10724126171E+03  0.80419002446E+02 0. -1.
          1    1    1    2  501    0 -0.23753736554E+02  0.12286873495E+02  0.11071296233E+03  0.11389717858E+03  0.00000000000E+00 0. -1.
         -2    1    1    2    0  503  0.11366231698E+02 -0.28756700119E+02 -0.13038514844E+03  0.13400158939E+03  0.00000000000E+00 0.  1.
<mgrwt>
<rscale>  2 0.70341227E+02</rscale>
<asrwt>0</asrwt>
<pdfrwt beam="1">  1       21 0.20583073E-01 0.70341227E+02</pdfrwt>
<pdfrwt beam="2">  1       21 0.34053854E-01 0.70341227E+02</pdfrwt>
<totfact> 0.18847261E+05</totfact>
</mgrwt>
</event>
<event>
 5    1  0.1855960E+000  0.6624529E+02  0.7546771E-02  0.1373348E+00
         21   -1    0    0  501  502  0.00000000000E+00  0.00000000000E+00  0.39509039439E+02  0.39509039439E+02  0.00000000000E+00 0.  1.
         21   -1    0    0  502  503 -0.00000000000E+00 -0.00000000000E+00 -0.12384620921E+03  0.12384620921E+03  0.00000000000E+00 0. -1.
         24    1    1    2    0    0  0.27612393853E+02  0.30895546695E+02 -0.71479120878E+02  0.11529726699E+03  0.80419002446E+02 0.  0.
          1    1    1    2  501    0 -0.15899361703E+02 -0.12538961417E+02  0.38496798763E+01  0.20611532963E+02  0.00000000000E+00 0. -1.
         -2    1    1    2    0  503 -0.11713032150E+02 -0.18356585278E+02 -0.16707728766E+02  0.27446448691E+02  0.00000000000E+00 0.  1.
<mgrwt>
<rscale>  2 0.66245287E+02</rscale>
<asrwt>0</asrwt>
<pdfrwt beam="1">  1       21 0.60783139E-02 0.66245287E+02</pdfrwt>
<pdfrwt beam="2">  1       21 0.19053263E-01 0.66245287E+02</pdfrwt>
<totfact> 0.46081649E+06</totfact>
</mgrwt>
</event>
<event>
 5    1  0.1855960E+000  0.8977327E+02  0.7546771E-02  0.1303402E+00
         21   -1    0    0  501  502  0.00000000000E+00  0.00000000000E+00  0.80544027700E+03  0.80544027700E+03  0.00000000000E+00 0. -1.
         21   -1    0    0  502  503 -0.00000000000E+00 -0.00000000000E+00 -0.67378003728E+02  0.67378003728E+02  0.00000000000E+00 0. -1.
         24    1    1    2    0    0  0.16966719464E+02  0.64953760003E+02  0.23060830969E+02  0.10726545757E+03  0.80419002446E+02 0. -1.
          1    1    1    2  501    0 -0.26438773723E+02 -0.38611995971E+02  0.73154266202E+03  0.73303789898E+03  0.00000000000E+00 0. -1.
         -2    1    1    2    0  503  0.94720542591E+01 -0.26341764032E+02 -0.16541219721E+02  0.32514924174E+02  0.00000000000E+00 0.  1.
<mgrwt>
<rscale>  2 0.89773273E+02</rscale>
<asrwt>0</asrwt>
<pdfrwt beam="1">  1       21 0.12391388E+00 0.89773273E+02</pdfrwt>
<pdfrwt beam="2">  1       21 0.10365847E-01 0.89773273E+02</pdfrwt>
<totfact> 0.39790815E+04</totfact>
</mgrwt>
</event>
<event>
 5    1  0.1855960E+000  0.6873465E+02  0.7546771E-02  0.1364450E+00
         21   -1    0    0  501  502  0.00000000000E+00  0.00000000000E+00  0.94154743312E+01  0.94154743312E+01  0.00000000000E+00 0.  1.
         21   -1    0    0  502  503 -0.00000000000E+00 -0.00000000000E+00 -0.61269744453E+03  0.61269744453E+03  0.00000000000E+00 0. -1.
         24    1    1    2    0    0 -0.12619277107E+02  0.67181834645E+01 -0.22375578517E+03  0.23819791665E+03  0.80419002446E+02 0.  1.
          1    1    1    2  501    0  0.20443206090E+02 -0.27106642800E+02 -0.17799487855E+03  0.18120395015E+03  0.00000000000E+00 0. -1.
         -2    1    1    2    0  503 -0.78239289828E+01  0.20388459335E+02 -0.20153130648E+03  0.20271105207E+03  0.00000000000E+00 0.  1.
<mgrwt>
<rscale>  2 0.68734655E+02</rscale>
<asrwt>0</asrwt>
<pdfrwt beam="1">  1       21 0.14485348E-02 0.68734655E+02</pdfrwt>
<pdfrwt beam="2">  1       21 0.94261127E-01 0.68734655E+02</pdfrwt>
<totfact> 0.19261111E+06</totfact>
</mgrwt>
</event>
<event>
 5    1  0.1855960E+000  0.7153248E+02  0.7546771E-02  0.1354958E+00
         21   -1    0    0  501  502  0.00000000000E+00  0.00000000000E+00  0.11750626948E+02  0.11750626948E+02  0.00000000000E+00 0. -1.
         21   -1    0    0  502  503 -0.00000000000E+00 -0.00000000000E+00 -0.10972422528E+04  0.10972422528E+04  0.00000000000E+00 0. -1.
         24    1    1    2    0    0 -0.16708600849E+02  0.14250546914E+02 -0.48430425832E+03  0.49142658253E+03  0.80419002446E+02 0.  0.
          1    1    1    2  501    0  0.43328906589E+01  0.21467391060E+02 -0.82151512250E+01  0.23390415345E+02  0.00000000000E+00 0. -1.
         -2    1    1    2    0  503  0.12375710190E+02 -0.35717937974E+02 -0.59297221631E+03  0.59417588188E+03  0.00000000000E+00 0.  1.
<mgrwt>
<rscale>  2 0.71532482E+02</rscale>
<asrwt>0</asrwt>
<pdfrwt beam="1">  1       21 0.18077877E-02 0.71532482E+02</pdfrwt>
<pdfrwt beam="2">  1       21 0.16880660E+00 0.71532482E+02</pdfrwt>
<totfact> 0.33149874E+05</totfact>
</mgrwt>
</event>
<event>
 5    1  0.1855960E+000  0.7821278E+02  0.7546771E-02  0.1334201E+00
         21   -1    0    0  501  502  0.00000000000E+00  0.00000000000E+00  0.22257454568E+02  0.22257454568E+02  0.00000000000E+00 0. -1.
         21   -1    0    0  502  503 -0.00000000000E+00 -0.00000000000E+00 -0.67954677814E+03  0.67954677814E+03  0.00000000000E+00 0. -1.
         24    1    1    2    0    0 -0.10212650333E+02 -0.54255145075E+02 -0.16333627058E+03  0.19024687181E+03  0.80419002446E+02 0. -1.
          1    1    1    2  501    0 -0.47937383038E+01  0.29834359325E+02 -0.18901259525E+02  0.35641640463E+02  0.00000000000E+00 0. -1.
         -2    1    1    2    0  503  0.15006388636E+02  0.24420785750E+02 -0.47505179346E+03  0.47591572043E+03  0.00000000000E+00 0.  1.
<mgrwt>
<rscale>  2 0.78212782E+02</rscale>
<asrwt>0</asrwt>
<pdfrwt beam="1">  1       21 0.34242239E-02 0.78212782E+02</pdfrwt>
<pdfrwt beam="2">  1       21 0.10454566E+00 0.78212782E+02</pdfrwt>
<totfact> 0.38461673E+05</totfact>
</mgrwt>
</event>
<event>
 5    1  0.1855960E+000  0.9035431E+02  0.7546771E-02  0.1301996E+00
         21   -1    0    0  503  502  0.00000000000E+00  0.00000000000E+00  0.25366255817E+02  0.25366255817E+02  0.00000000000E+00 0. -1.
         21   -1    0    0  501  503 -0.00000000000E+00 -0.00000000000E+00 -0.43349639263E+03  0.43349639263E+03  0.00000000000E+00 0. -1.
         24    1    1    2    0    0  0.41006761949E+02 -0.46522510849E+02 -0.10841698057E+03  0.14855085383E+03  0.80419002446E+02 0. -1.
          1    1    1    2  501    0 -0.38391213592E+02  0.63682950840E+01 -0.17470670239E+03  0.17898846981E+03  0.00000000000E+00 0. -1.
         -2    1    1    2    0  502 -0.26155483570E+01  0.40154215765E+02 -0.12500645385E+03  0.13132332482E+03  0.00000000000E+00 0.  1.
<mgrwt>
<rscale>  2 0.90354314E+02</rscale>
<asrwt>0</asrwt>
<pdfrwt beam="1">  1       21 0.39025013E-02 0.90354314E+02</pdfrwt>
<pdfrwt beam="2">  1       21 0.66691745E-01 0.90354314E+02</pdfrwt>
<totfact> 0.84432522E+05</totfact>
</mgrwt>
</event>
<event>
 5    1  0.1855960E+000  0.8163615E+02  0.7546771E-02  0.1324471E+00
         21   -1    0    0  501  502  0.00000000000E+00  0.00000000000E+00  0.33821062283E+03  0.33821062283E+03  0.00000000000E+00 0.  1.
         21   -1    0    0  502  503 -0.00000000000E+00 -0.00000000000E+00 -0.20578591155E+02  0.20578591155E+02  0.00000000000E+00 0. -1.
         24    1    1    2    0    0 -0.24778430228E+02  0.22477616273E+02  0.15509531407E+03  0.17787913380E+03  0.80419002446E+02 0.  1.
          1    1    1    2  501    0  0.20618865359E+02 -0.46987209861E+02  0.13141980962E+03  0.14108189771E+03  0.00000000000E+00 0. -1.
         -2    1    1    2    0  503  0.41595648693E+01  0.24509593588E+02  0.31116907977E+02  0.39828182482E+02  0.00000000000E+00 0.  1.
<mgrwt>
<rscale>  2 0.81636151E+02</rscale>
<asrwt>0</asrwt>
<pdfrwt beam="1">  1       21 0.52032399E-01 0.81636151E+02</pdfrwt>
<pdfrwt beam="2">  1       21 0.31659374E-02 0.81636151E+02</pdfrwt>
<totfact> 0.19928204E+06</totfact>
</mgrwt>
</event>
<event>
 5    1  0.1855960E+000  0.8786304E+02  0.7546771E-02  0.1308111E+00
         21   -1    0    0  501  502  0.00000000000E+00  0.00000000000E+00  0.83380295812E+01  0.83380295812E+01  0.00000000000E+00 0. -1.
         21   -1    0    0  502  503 -0.00000000000E+00 -0.00000000000E+00 -0.19156609435E+04  0.19156609435E+04  0.00000000000E+00 0. -1.
         24    1    1    2    0    0 -0.56106238348E+02 -0.40213600068E+02 -0.71664819272E+03  0.72444246955E+03  0.80419002446E+02 0.  0.
          1    1    1    2  501    0  0.42045327357E+02  0.24521320948E+02 -0.13225782124E+03  0.14092989751E+03  0.00000000000E+00 0. -1.
         -2    1    1    2    0  503  0.14060910990E+02  0.15692279120E+02 -0.10584169000E+04  0.10586266060E+04  0.00000000000E+00 0.  1.
<mgrwt>
<rscale>  2 0.87863044E+02</rscale>
<asrwt>0</asrwt>
<pdfrwt beam="1">  1       21 0.12827728E-02 0.87863044E+02</pdfrwt>
<pdfrwt beam="2">  1       21 0.29471730E+00 0.87863044E+02</pdfrwt>
<totfact> 0.10326506E+05</totfact>
</mgrwt>
</event>
<event>
 5    1  0.1855960E+000  0.7227081E+02  0.7546771E-02  0.1352537E+00
         21   -1    0    0  501  502  0.00000000000E+00  0.00000000000E+00  0.51159934291E+01  0.51159934291E+01  0.00000000000E+00 0. -1.
         21   -1    0    0  502  503 -0.00000000000E+00 -0.00000000000E+00 -0.15822005589E+04  0.15822005589E+04  0.00000000000E+00 0. -1.
         24    1    1    2    0    0  0.59823455324E+01 -0.26381816990E+02 -0.11062956432E+04  0.11095445258E+04  0.80419002446E+02 0.  0.
          1    1    1    2  501    0  0.13914726344E+02  0.35260307343E+02 -0.11042651973E+03  0.11675155307E+03  0.00000000000E+00 0. -1.
         -2    1    1    2    0  503 -0.19897071876E+02 -0.88784903524E+01 -0.36036240258E+03  0.36102047345E+03  0.00000000000E+00 0.  1.
<mgrwt>
<rscale>  2 0.72270812E+02</rscale>
<asrwt>0</asrwt>
<pdfrwt beam="1">  1       21 0.78707618E-03 0.72270812E+02</pdfrwt>
<pdfrwt beam="2">  1       21 0.24341539E+00 0.72270812E+02</pdfrwt>
<totfact> 0.43113895E+05</totfact>
</mgrwt>
</event>
<event>
 5    1  0.1855960E+000  0.2049072E+03  0.7546771E-02  0.1145664E+00
         21   -1    0    0  501  502  0.00000000000E+00  0.00000000000E+00  0.10925410615E+03  0.10925410615E+03  0.00000000000E+00 0. -1.
         21   -1    0    0  502  503 -0.00000000000E+00 -0.00000000000E+00 -0.45266744578E+03  0.45266744578E+03  0.00000000000E+00 0. -1.
         24    1    1    2    0    0  0.12629055062E+03  0.50235408606E+02 -0.41202968018E+02  0.16321090644E+03  0.80419002446E+02 0. -1.
          1    1    1    2  501    0 -0.17716072678E+03 -0.78411792481E+02 -0.18505813441E+03  0.26791947563E+03  0.00000000000E+00 0. -1.
         -2    1    1    2    0  503  0.50870176163E+02  0.28176383874E+02 -0.11715223721E+03  0.13079116986E+03  0.00000000000E+00 0.  1.
<mgrwt>
<rscale>  2 0.20490722E+03</rscale>
<asrwt>0</asrwt>
<pdfrwt beam="1">  1       21 0.16808324E-01 0.20490722E+03</pdfrwt>
<pdfrwt beam="2">  1       21 0.69641146E-01 0.20490722E+03</pdfrwt>
<totfact> 0.59350082E+04</totfact>
</mgrwt>
</event>
<event>
 5    1  0.1855960E+000  0.9280222E+02  0.7546771E-02  0.1296204E+00
         21   -1    0    0  501  502  0.00000000000E+00  0.00000000000E+00  0.11130459776E+04  0.11130459776E+04  0.00000000000E+00 0. -1.
         21   -1    0    0  502  503 -0.00000000000E+00 -0.00000000000E+00 -0.18322712587E+02  0.18322712587E+02  0.00000000000E+00 0. -1.
         24    1    1    2    0    0 -0.61446002495E+02 -0.28635827823E+02  0.24795765426E+03  0.26934334244E+03  0.80419002446E+02 0. -1.
          1    1    1    2  501    0  0.21389404069E+02  0.33837971006E+02  0.79666251001E+03  0.79766764366E+03  0.00000000000E+00 0. -1.
         -2    1    1    2    0  503  0.40056598426E+02 -0.52021431836E+01  0.50103100758E+02  0.64357704098E+02  0.00000000000E+00 0.  1.
<mgrwt>
<rscale>  2 0.92802218E+02</rscale>
<asrwt>0</asrwt>
<pdfrwt beam="1">  1       21 0.17123779E+00 0.92802218E+02</pdfrwt>
<pdfrwt beam="2">  1       21 0.28188797E-02 0.92802218E+02</pdfrwt>
<totfact> 0.15460926E+05</totfact>
</mgrwt>
</event>
<event>
 5    1  0.1855960E+000  0.7743102E+02  0.7546771E-02  0.1336504E+00
         21   -1    0    0  501  502  0.00000000000E+00  0.00000000000E+00  0.33202261643E+02  0.33202261643E+02  0.00000000000E+00 0.  1.
         21   -1    0    0  502  503 -0.00000000000E+00 -0.00000000000E+00 -0.21463269842E+03  0.21463269842E+03  0.00000000000E+00 0.  1.
         24    1    1    2    0    0 -0.51947728436E+02 -0.22324592924E+02 -0.15021682514E+03  0.17952510813E+03  0.80419002446E+02 0.  1.
          1    1    1    2  501    0  0.30151970655E+02  0.12283171920E+02 -0.52915942710E+01  0.32985127204E+02  0.00000000000E+00 0. -1.
         -2    1    1    2    0  503  0.21795757781E+02  0.10041421005E+02 -0.25922017369E+02  0.35324724734E+02  0.00000000000E+00 0.  1.
<mgrwt>
<rscale>  2 0.77431015E+02</rscale>
<asrwt>0</asrwt>
<pdfrwt beam="1">  1       21 0.51080402E-02 0.77431015E+02</pdfrwt>
<pdfrwt beam="2">  1       21 0.33020416E-01 0.77431015E+02</pdfrwt>
<totfact> 0.22332962E+06</totfact>
</mgrwt>
</event>
<event>
 5    1  0.1855960E+000  0.9999279E+02  0.7546771E-02  0.1280311E+00
         21   -1    0    0  501  502  0.00000000000E+00  0.00000000000E+00  0.10961484420E+03  0.10961484420E+03  0.00000000000E+00 0. -1.
         21   -1    0    0  502  503 -0.00000000000E+00 -0.00000000000E+00 -0.18449533253E+03  0.18449533253E+03  0.00000000000E+00 0. -1.
         24    1    1    2    0    0 -0.50874731965E+01  0.46600018813E+02 -0.51145154254E+02  0.10620963654E+03  0.80419002446E+02 0. -1.
          1    1    1    2  501    0  0.38153635219E+02 -0.60098151679E+02  0.62393938619E+02  0.94659871604E+02  0.00000000000E+00 0. -1.
         -2    1    1    2    0  503 -0.33066162022E+02  0.13498132867E+02 -0.86129272699E+02  0.93240668581E+02  0.00000000000E+00 0.  1.
<mgrwt>
<rscale>  2 0.99992788E+02</rscale>
<asrwt>0</asrwt>
<pdfrwt beam="1">  1       21 0.16863822E-01 0.99992788E+02</pdfrwt>
<pdfrwt beam="2">  1       21 0.28383897E-01 0.99992788E+02</pdfrwt>
<totfact> 0.38114743E+05</totfact>
</mgrwt>
</event>
<event>
 5    1  0.1855960E+000  0.8521379E+02  0.7546771E-02  0.1314874E+00
         21   -1    0    0  501  502  0.00000000000E+00  0.00000000000E+00  0.17512617066E+03  0.17512617066E+03  0.00000000000E+00 0.  1.
         21   -1    0    0  502  503 -0.00000000000E+00 -0.00000000000E+00 -0.43669305049E+02  0.43669305049E+02  0.00000000000E+00 0.  1.
         24    1    1    2    0    0  0.36264849680E+02  0.32354426288E+01  0.91567833643E+02  0.12719076823E+03  0.80419002446E+02 0.  1.
          1    1    1    2  501    0  0.38449948513E+01 -0.32356487003E+02  0.19755742550E+02  0.38105322467E+02  0.00000000000E+00 0. -1.
         -2    1    1    2    0  503 -0.40109844531E+02  0.29121044374E+02  0.20133289419E+02  0.53499385011E+02  0.00000000000E+00 0.  1.
<mgrwt>
<rscale>  2 0.85213790E+02</rscale>
<asrwt>0</asrwt>
<pdfrwt beam="1">  1       21 0.26942487E-01 0.85213790E+02</pdfrwt>
<pdfrwt beam="2">  1       21 0.67183547E-02 0.85213790E+02</pdfrwt>
<totfact> 0.20878273E+06</totfact>
</mgrwt>
</event>
<event>
 5    1  0.1855960E+000  0.8921555E+02  0.7546771E-02  0.1304763E+00
         21   -1    0    0  501  502  0.00000000000E+00  0.00000000000E+00  0.53497747412E+03  0.53497747412E+03  0.00000000000E+00 0. -1.
         21   -1    0    0  502  503 -0.00000000000E+00 -0.00000000000E+00 -0.38516143544E+02  0.38516143544E+02  0.00000000000E+00 0. -1.
         24    1    1    2    0    0  0.19470087178E+02 -0.17642371480E+02  0.27196567535E+02  0.88866229841E+02  0.80419002446E+02 0. -1.
          1    1    1    2  501    0 -0.55445282316E+02  0.16448978496E+02  0.41803423359E+03  0.42201583937E+03  0.00000000000E+00 0. -1.
         -2    1    1    2    0  503  0.35975195138E+02  0.11933929844E+01  0.51230529455E+02  0.62611548458E+02  0.00000000000E+00 0.  1.
<mgrwt>
<rscale>  2 0.89215554E+02</rscale>
<asrwt>0</asrwt>
<pdfrwt beam="1">  1       21 0.82304221E-01 0.89215554E+02</pdfrwt>
<pdfrwt beam="2">  1       21 0.59255609E-02 0.89215554E+02</pdfrwt>
<totfact> 0.26682080E+05</totfact>
</mgrwt>
</event>
<event>
 5    1  0.1855960E+000  0.1450361E+03  0.7546771E-02  0.1206709E+00
         21   -1    0    0  503  502  0.00000000000E+00  0.00000000000E+00  0.13022519924E+03  0.13022519924E+03  0.00000000000E+00 0. -1.
         21   -1    0    0  501  503 -0.00000000000E+00 -0.00000000000E+00 -0.19375287030E+03  0.19375287030E+03  0.00000000000E+00 0. -1.
         24    1    1    2    0    0 -0.12902440088E+03  0.13700020141E+02 -0.54697232143E+02  0.16215421589E+03  0.80419002446E+02 0. -1.
          1    1    1    2  501    0  0.10459356747E+03 -0.29069791373E+02 -0.43291750194E+02  0.11687190749E+03  0.00000000000E+00 0. -1.
         -2    1    1    2    0  502  0.24430833411E+02  0.15369771232E+02  0.34461311270E+02  0.44951946158E+02  0.00000000000E+00 0.  1.
<mgrwt>
<rscale>  2 0.14503606E+03</rscale>
<asrwt>0</asrwt>
<pdfrwt beam="1">  1       21 0.20034646E-01 0.14503606E+03</pdfrwt>
<pdfrwt beam="2">  1       21 0.29808134E-01 0.14503606E+03</pdfrwt>
<totfact> 0.25115848E+05</totfact>
</mgrwt>
</event>
<event>
 5    1  0.1855960E+000  0.1048415E+03  0.7546771E-02  0.1270432E+00
         21   -1    0    0  503  502  0.00000000000E+00  0.00000000000E+00  0.30922218933E+03  0.30922218933E+03  0.00000000000E+00 0.  1.
         21   -1    0    0  501  503 -0.00000000000E+00 -0.00000000000E+00 -0.16884892128E+03  0.16884892128E+03  0.00000000000E+00 0. -1.
         24    1    1    2    0    0 -0.54650520723E+02  0.61391126399E+02 -0.67167034117E+02  0.13316972720E+03  0.80419002446E+02 0. -1.
          1    1    1    2  501    0  0.25795864514E+02 -0.60561035037E+02 -0.51921594391E+02  0.83838639987E+02  0.00000000000E+00 0. -1.
         -2    1    1    2    0  502  0.28854656209E+02 -0.83009136238E+00  0.25946189656E+03  0.26106274342E+03  0.00000000000E+00 0.  1.
<mgrwt>
<rscale>  2 0.10484145E+03</rscale>
<asrwt>0</asrwt>
<pdfrwt beam="1">  1       21 0.47572645E-01 0.10484145E+03</pdfrwt>
<pdfrwt beam="2">  1       21 0.25976757E-01 0.10484145E+03</pdfrwt>
<totfact> 0.62099845E+04</totfact>
</mgrwt>
</event>
<event>
 5    1  0.1855960E+000  0.7122037E+02  0.7546771E-02  0.1355992E+00
         21   -1    0    0  501  502  0.00000000000E+00  0.00000000000E+00  0.31983385585E+02  0.31983385585E+02  0.00000000000E+00 0.  1.
         21   -1    0    0  502  503 -0.00000000000E+00 -0.00000000000E+00 -0.35212886225E+03  0.35212886225E+03  0.00000000000E+00 0.  1.
         24    1    1    2    0    0  0.14810512035E+02  0.16019656921E+01 -0.24469157711E+03  0.25799825857E+03  0.80419002446E+02 0.  1.
          1    1    1    2  501    0  0.94991668211E+01  0.23720044685E+02  0.14622529087E+02  0.29439650933E+02  0.00000000000E+00 0. -1.
         -2    1    1    2    0  503 -0.24309678856E+02 -0.25322010377E+02 -0.90076428645E+02  0.96674338338E+02  0.00000000000E+00 0.  1.
<mgrwt>
<rscale>  2 0.71220370E+02</rscale>
<asrwt>0</asrwt>
<pdfrwt beam="1">  1       21 0.49205209E-02 0.71220370E+02</pdfrwt>
<pdfrwt beam="2">  1       21 0.54173670E-01 0.71220370E+02</pdfrwt>
<totfact> 0.88737568E+05</totfact>
</mgrwt>
</event>
<event>
 5    1  0.1855960E+000  0.8375607E+02  0.7546771E-02  0.1318718E+00
         21   -1    0    0  503  502  0.00000000000E+00  0.00000000000E+00  0.20813958960E+03  0.20813958960E+03  0.00000000000E+00 0.  1.
         21   -1    0    0  501  503 -0.00000000000E+00 -0.00000000000E+00 -0.41793465089E+02  0.41793465089E+02  0.00000000000E+00 0. -1.
         24    1    1    2    0    0  0.13321152967E+02 -0.35080074315E+02  0.11569221710E+03  0.14580798943E+03  0.80419002446E+02 0.  1.
          1    1    1    2  501    0 -0.36177851956E+02  0.41473490223E+02  0.84152245187E+01  0.55674979723E+02  0.00000000000E+00 0. -1.
         -2    1    1    2    0  502  0.22856698990E+02 -0.63934159082E+01  0.42238682892E+02  0.48450085532E+02  0.00000000000E+00 0.  1.
<mgrwt>
<rscale>  2 0.83756071E+02</rscale>
<asrwt>0</asrwt>
<pdfrwt beam="1">  1       21 0.32021475E-01 0.83756071E+02</pdfrwt>
<pdfrwt beam="2">  1       21 0.64297640E-02 0.83756071E+02</pdfrwt>
<totfact> 0.16178348E+06</totfact>
</mgrwt>
</event>
<event>
 5    1  0.1855960E+000  0.7830871E+02  0.7546771E-02  0.1333921E+00
         21   -1    0    0  501  502  0.00000000000E+00  0.00000000000E+00  0.10522053932E+02  0.10522053932E+02  0.00000000000E+00 0. -1.
         21   -1    0    0  502  503 -0.00000000000E+00 -0.00000000000E+00 -0.10416700624E+04  0.10416700624E+04  0.00000000000E+00 0.  1.
         24    1    1    2    0    0 -0.30823690011E+02 -0.41954260228E+02 -0.50278398896E+03  0.51182928338E+03  0.80419002446E+02 0. -1.
          1    1    1    2  501    0  0.27885780766E+02  0.11404727445E+02 -0.35571775625E+02  0.46615832054E+02  0.00000000000E+00 0. -1.
         -2    1    1    2    0  503  0.29379092452E+01  0.30549532783E+02 -0.49279224392E+03  0.49374700094E+03  0.00000000000E+00 0.  1.
<mgrwt>
<rscale>  2 0.78308711E+02</rscale>
<asrwt>0</asrwt>
<pdfrwt beam="1">  1       21 0.16187778E-02 0.78308711E+02</pdfrwt>
<pdfrwt beam="2">  1       21 0.16025691E+00 0.78308711E+02</pdfrwt>
<totfact> 0.45076413E+05</totfact>
</mgrwt>
</event>
<event>
 5    1  0.1855960E+000  0.7939230E+02  0.7546771E-02  0.1330785E+00
         21   -1    0    0  503  502  0.00000000000E+00  0.00000000000E+00  0.81352036986E+02  0.81352036986E+02  0.00000000000E+00 0. -1.
         21   -1    0    0  501  503 -0.00000000000E+00 -0.00000000000E+00 -0.18278009806E+03  0.18278009806E+03  0.00000000000E+00 0. -1.
         24    1    1    2    0    0  0.11893566330E+02 -0.16464457124E+02 -0.13368041297E+02  0.84014616293E+02  0.80419002446E+02 0.  0.
          1    1    1    2  501    0  0.20691731494E+02 -0.18706820788E+02 -0.11954608388E+03  0.12275731777E+03  0.00000000000E+00 0. -1.
         -2    1    1    2    0  502 -0.32585297824E+02  0.35171277912E+02  0.31486064099E+02  0.57360200982E+02  0.00000000000E+00 0.  1.
<mgrwt>
<rscale>  2 0.79392299E+02</rscale>
<asrwt>0</asrwt>
<pdfrwt beam="1">  1       21 0.12515698E-01 0.79392299E+02</pdfrwt>
<pdfrwt beam="2">  1       21 0.28120015E-01 0.79392299E+02</pdfrwt>
<totfact> 0.65969949E+05</totfact>
</mgrwt>
</event>
<event>
 5    1  0.1855960E+000  0.8273023E+02  0.7546771E-02  0.1321477E+00
         21   -1    0    0  503  502  0.00000000000E+00  0.00000000000E+00  0.31909523097E+02  0.31909523097E+02  0.00000000000E+00 0. -1.
         21   -1    0    0  501  503 -0.00000000000E+00 -0.00000000000E+00 -0.36746275893E+03  0.36746275893E+03  0.00000000000E+00 0.  1.
         24    1    1    2    0    0  0.84782726330E+01  0.60169076589E+01 -0.48306058179E+02  0.94386309896E+02  0.80419002446E+02 0. -1.
          1    1    1    2  501    0  0.93866698784E+01 -0.42620373968E+02 -0.23353086705E+03  0.23757371849E+03  0.00000000000E+00 0. -1.
         -2    1    1    2    0  502 -0.17864942511E+02  0.36603466309E+02 -0.53716310600E+02  0.67412253643E+02  0.00000000000E+00 0.  1.
<mgrwt>
<rscale>  2 0.82730235E+02</rscale>
<asrwt>0</asrwt>
<pdfrwt beam="1">  1       21 0.49091573E-02 0.82730235E+02</pdfrwt>
<pdfrwt beam="2">  1       21 0.56532734E-01 0.82730235E+02</pdfrwt>
<totfact> 0.81783624E+05</totfact>
</mgrwt>
</event>
<event>
 5    1  0.1855960E+000  0.7083865E+02  0.7546771E-02  0.1357264E+00
         21   -1    0    0  501  502  0.00000000000E+00  0.00000000000E+00  0.34222381749E+03  0.34222381749E+03  0.00000000000E+00 0. -1.
         21   -1    0    0  502  503 -0.00000000000E+00 -0.00000000000E+00 -0.18264671649E+02  0.18264671649E+02  0.00000000000E+00 0.  1.
         24    1    1    2    0    0  0.11831803223E+02  0.22964495443E+02  0.23470277051E+03  0.24943930336E+03  0.80419002446E+02 0. -1.
          1    1    1    2  501    0 -0.31995443071E+02 -0.11396110316E+02  0.78302063597E+02  0.85350998068E+02  0.00000000000E+00 0. -1.
         -2    1    1    2    0  503  0.20163639847E+02 -0.11568385128E+02  0.10954311734E+02  0.25698187717E+02  0.00000000000E+00 0.  1.
<mgrwt>
<rscale>  2 0.70838654E+02</rscale>
<asrwt>0</asrwt>
<pdfrwt beam="1">  1       21 0.52649813E-01 0.70838654E+02</pdfrwt>
<pdfrwt beam="2">  1       21 0.28099497E-02 0.70838654E+02</pdfrwt>
<totfact> 0.23450291E+06</totfact>
</mgrwt>
</event>
<event>
 5    1  0.1855960E+000  0.6838584E+02  0.7546771E-02  0.1365670E+00
         21   -1    0    0  501  502  0.00000000000E+00  0.00000000000E+00  0.77400902631E+03  0.77400902631E+03  0.00000000000E+00 0.  1.
         21   -1    0    0  502  503 -0.00000000000E+00 -0.00000000000E+00 -0.63199009241E+01  0.63199009241E+01  0.00000000000E+00 0. -1.
         24    1    1    2    0    0  0.44328003434E+02 -0.51985241866E+01  0.57319258049E+03  0.58052471681E+03  0.80419002446E+02 0. -1.
          1    1    1    2  501    0 -0.21993732849E+02  0.64042527311E+00  0.11584691576E+03  0.11791794740E+03  0.00000000000E+00 0. -1.
         -2    1    1    2    0  503 -0.22334270585E+02  0.45580989135E+01  0.78649629138E+02  0.81886263023E+02  0.00000000000E+00 0.  1.
<mgrwt>
<rscale>  2 0.68385839E+02</rscale>
<asrwt>0</asrwt>
<pdfrwt beam="1">  1       21 0.11907824E+00 0.68385839E+02</pdfrwt>
<pdfrwt beam="2">  1       21 0.97229306E-03 0.68385839E+02</pdfrwt>
<totfact> 0.20874449E+06</totfact>
</mgrwt>
</event>
<event>
 5    1  0.1855960E+000  0.8928592E+02  0.7546771E-02  0.1304590E+00
         21   -1    0    0  501  502  0.00000000000E+00  0.00000000000E+00  0.21983408000E+02  0.21983408000E+02  0.00000000000E+00 0. -1.
         21   -1    0    0  502  503 -0.00000000000E+00 -0.00000000000E+00 -0.43871763602E+03  0.43871763602E+03  0.00000000000E+00 0. -1.
         24    1    1    2    0    0 -0.23518168186E+02 -0.45997687651E+02 -0.25644762750E+03  0.27368137151E+03  0.80419002446E+02 0. -1.
          1    1    1    2  501    0  0.43641412510E+02  0.15225611099E+02 -0.39627574990E+02  0.60882976429E+02  0.00000000000E+00 0. -1.
         -2    1    1    2    0  503 -0.20123244325E+02  0.30772076553E+02 -0.12065902552E+03  0.12613669608E+03  0.00000000000E+00 0.  1.
<mgrwt>
<rscale>  2 0.89285918E+02</rscale>
<asrwt>0</asrwt>
<pdfrwt beam="1">  1       21 0.33820624E-02 0.89285918E+02</pdfrwt>
<pdfrwt beam="2">  1       21 0.67495028E-01 0.89285918E+02</pdfrwt>
<totfact> 0.10403556E+06</totfact>
</mgrwt>
</event>
<event>
 5    1  0.1855960E+000  0.1305943E+03  0.7546771E-02  0.1226577E+00
         21   -1    0    0  501  502  0.00000000000E+00  0.00000000000E+00  0.66368717987E+01  0.66368717987E+01  0.00000000000E+00 0.  1.
         21   -1    0    0  502  503 -0.00000000000E+00 -0.00000000000E+00 -0.36273273843E+04  0.36273273843E+04  0.00000000000E+00 0. -1.
         24    1    1    2    0    0  0.12179491097E+02 -0.13542411315E+02 -0.16319703121E+04  0.16340520348E+04  0.80419002446E+02 0. -1.
          1    1    1    2  501    0  0.78600456483E+02 -0.21397709704E+02 -0.39964968032E+03  0.40786733226E+03  0.00000000000E+00 0. -1.
         -2    1    1    2    0  503 -0.90779947580E+02  0.34940121019E+02 -0.15890705200E+04  0.15920448890E+04  0.00000000000E+00 0.  1.
<mgrwt>
<rscale>  2 0.13059430E+03</rscale>
<asrwt>0</asrwt>
<pdfrwt beam="1">  1       21 0.10210533E-02 0.13059430E+03</pdfrwt>
<pdfrwt beam="2">  1       21 0.55805251E+00 0.13059430E+03</pdfrwt>
<totfact> 0.28902697E+03</totfact>
</mgrwt>
</event>
<event>
 5    1  0.1855960E+000  0.9710380E+02  0.7546771E-02  0.1286507E+00
         21   -1    0    0  501  502  0.00000000000E+00  0.00000000000E+00  0.44879189377E+03  0.44879189377E+03  0.00000000000E+00 0. -1.
         21   -1    0    0  502  503 -0.00000000000E+00 -0.00000000000E+00 -0.11757900223E+03  0.11757900223E+03  0.00000000000E+00 0. -1.
         24    1    1    2    0    0  0.52960563771E+02  0.20990916091E+02 -0.12994045959E+02  0.99405739563E+02  0.80419002446E+02 0. -1.
          1    1    1    2  501    0 -0.23777427181E+02 -0.49464263645E+02  0.39671088602E+03  0.40048920897E+03  0.00000000000E+00 0. -1.
         -2    1    1    2    0  503 -0.29183136590E+02  0.28473347554E+02 -0.52503948513E+02  0.66475947467E+02  0.00000000000E+00 0.  1.
<mgrwt>
<rscale>  2 0.97103801E+02</rscale>
<asrwt>0</asrwt>
<pdfrwt beam="1">  1       21 0.69044906E-01 0.97103801E+02</pdfrwt>
<pdfrwt beam="2">  1       21 0.18089078E-01 0.97103801E+02</pdfrwt>
<totfact> 0.55904380E+04</totfact>
</mgrwt>
</event>
<event>
 5    1  0.1855960E+000  0.7984636E+02  0.7546771E-02  0.1329488E+00
         21   -1    0    0  501  502  0.00000000000E+00  0.00000000000E+00  0.89223028034E+02  0.89223028034E+02  0.00000000000E+00 0. -1.
         21   -1    0    0  502  503 -0.00000000000E+00 -0.00000000000E+00 -0.18839911675E+03  0.18839911675E+03  0.00000000000E+00 0.  1.
         24    1    1    2    0    0  0.29371969541E+02 -0.46676592945E+02 -0.10465905295E+03  0.14304597248E+03  0.80419002446E+02 0.  1.
          1    1    1    2  501    0 -0.20181790825E+02  0.68580848049E+01  0.61584544515E+02  0.65168966013E+02  0.00000000000E+00 0. -1.
         -2    1    1    2    0  503 -0.91901787156E+01  0.39818508140E+02 -0.56101580289E+02  0.69407206299E+02  0.00000000000E+00 0.  1.
<mgrwt>
<rscale>  2 0.79846364E+02</rscale>
<asrwt>0</asrwt>
<pdfrwt beam="1">  1       21 0.13726620E-01 0.79846364E+02</pdfrwt>
<pdfrwt beam="2">  1       21 0.28984479E-01 0.79846364E+02</pdfrwt>
<totfact> 0.52952525E+05</totfact>
</mgrwt>
</event>
<event>
 5    1  0.1855960E+000  0.9294682E+02  0.7546771E-02  0.1295868E+00
         21   -1    0    0  503  502  0.00000000000E+00  0.00000000000E+00  0.10832328396E+02  0.10832328396E+02  0.00000000000E+00 0. -1.
         21   -1    0    0  501  503 -0.00000000000E+00 -0.00000000000E+00 -0.86807296320E+03  0.86807296320E+03  0.00000000000E+00 0.  1.
         24    1    1    2    0    0  0.43789350711E+02 -0.34279511197E+02 -0.56628996540E+03  0.57466871587E+03  0.80419002446E+02 0.  1.
          1    1    1    2  501    0 -0.42843044566E+02 -0.98654731953E+01 -0.16559207278E+03  0.17132889014E+03  0.00000000000E+00 0. -1.
         -2    1    1    2    0  502 -0.94630614430E+00  0.44144984393E+02 -0.12535859662E+03  0.13290768559E+03  0.00000000000E+00 0.  1.
<mgrwt>
<rscale>  2 0.92946816E+02</rscale>
<asrwt>0</asrwt>
<pdfrwt beam="1">  1       21 0.16665114E-02 0.92946816E+02</pdfrwt>
<pdfrwt beam="2">  1       21 0.13354974E+00 0.92946816E+02</pdfrwt>
<totfact> 0.68022242E+05</totfact>
</mgrwt>
</event>
<event>
 5    1  0.1855960E+000  0.9431332E+02  0.7546771E-02  0.1292730E+00
         21   -1    0    0  503  502  0.00000000000E+00  0.00000000000E+00  0.92284829418E+02  0.92284829418E+02  0.00000000000E+00 0.  1.
         21   -1    0    0  501  503 -0.00000000000E+00 -0.00000000000E+00 -0.14264021547E+03  0.14264021547E+03  0.00000000000E+00 0.  1.
         24    1    1    2    0    0 -0.44301071505E+02  0.20796334176E+02 -0.25676600551E+02  0.97578564356E+02  0.80419002446E+02 0.  1.
          1    1    1    2  501    0 -0.23917517955E+02 -0.42805531456E+01 -0.55577759124E+02  0.60656888394E+02  0.00000000000E+00 0. -1.
         -2    1    1    2    0  502  0.68218589460E+02 -0.16515781030E+02  0.30898973624E+02  0.76689592136E+02  0.00000000000E+00 0.  1.
<mgrwt>
<rscale>  2 0.94313320E+02</rscale>
<asrwt>0</asrwt>
<pdfrwt beam="1">  1       21 0.14197666E-01 0.94313320E+02</pdfrwt>
<pdfrwt beam="2">  1       21 0.21944649E-01 0.94313320E+02</pdfrwt>
<totfact> 0.84077071E+05</totfact>
</mgrwt>
</event>
<event>
 5    1  0.1855960E+000  0.1001482E+03  0.7546771E-02  0.1279985E+00
         21   -1    0    0  501  502  0.00000000000E+00  0.00000000000E+00  0.43913278301E+03  0.43913278301E+03  0.00000000000E+00 0. -1.
         21   -1    0    0  502  503 -0.00000000000E+00 -0.00000000000E+00 -0.66029241762E+02  0.66029241762E+02  0.00000000000E+00 0. -1.
         24    1    1    2    0    0  0.30746944675E+02 -0.69922953322E+02  0.24095061830E+02  0.11350058135E+03  0.80419002446E+02 0. -1.
          1    1    1    2  501    0 -0.43032479399E+02  0.49911651228E+02  0.35982376514E+03  0.36580884239E+03  0.00000000000E+00 0. -1.
         -2    1    1    2    0  503  0.12285534724E+02  0.20011302093E+02 -0.10815285719E+02  0.25852601032E+02  0.00000000000E+00 0.  1.
<mgrwt>
<rscale>  2 0.10014817E+03</rscale>
<asrwt>0</asrwt>
<pdfrwt beam="1">  1       21 0.67558888E-01 0.10014817E+03</pdfrwt>
<pdfrwt beam="2">  1       21 0.10158345E-01 0.10014817E+03</pdfrwt>
<totfact> 0.16301754E+05</totfact>
</mgrwt>
</event>
<event>
 5    1  0.1855960E+000  0.1339177E+03  0.7546771E-02  0.1221756E+00
         21   -1    0    0  503  502  0.00000000000E+00  0.00000000000E+00  0.42995982173E+03  0.42995982173E+03  0.00000000000E+00 0. -1.
         21   -1    0    0  501  503 -0.00000000000E+00 -0.00000000000E+00 -0.18181939506E+03  0.18181939506E+03  0.00000000000E+00 0. -1.
         24    1    1    2    0    0  0.10010341219E+03 -0.25951104294E+02  0.12148856812E+03  0.17866404531E+03  0.80419002446E+02 0. -1.
          1    1    1    2  501    0 -0.11183861995E+03  0.39613156229E+01 -0.13212026338E+03  0.17314540979E+03  0.00000000000E+00 0. -1.
         -2    1    1    2    0  502  0.11735207754E+02  0.21989788671E+02  0.25877212193E+03  0.25996976170E+03  0.00000000000E+00 0.  1.
<mgrwt>
<rscale>  2 0.13391768E+03</rscale>
<asrwt>0</asrwt>
<pdfrwt beam="1">  1       21 0.66147664E-01 0.13391768E+03</pdfrwt>
<pdfrwt beam="2">  1       21 0.27972215E-01 0.13391768E+03</pdfrwt>
<totfact> 0.26531604E+04</totfact>
</mgrwt>
</event>
<event>
 5    1  0.1855960E+000  0.8579876E+02  0.7546771E-02  0.1313357E+00
         21   -1    0    0  501  502  0.00000000000E+00  0.00000000000E+00  0.37056004084E+03  0.37056004084E+03  0.00000000000E+00 0. -1.
         21   -1    0    0  502  503 -0.00000000000E+00 -0.00000000000E+00 -0.29926024819E+02  0.29926024819E+02  0.00000000000E+00 0.  1.
         24    1    1    2    0    0 -0.31869954387E+02  0.20592603239E+02  0.22238934326E+03  0.23950779789E+03  0.80419002446E+02 0. -1.
          1    1    1    2  501    0  0.54455851997E+02 -0.24571403409E+02  0.12372944021E+03  0.13739784589E+03  0.00000000000E+00 0. -1.
         -2    1    1    2    0  503 -0.22585897610E+02  0.39788001701E+01 -0.54847674496E+01  0.23580421871E+02  0.00000000000E+00 0.  1.
<mgrwt>
<rscale>  2 0.85798763E+02</rscale>
<asrwt>0</asrwt>
<pdfrwt beam="1">  1       21 0.57009234E-01 0.85798763E+02</pdfrwt>
<pdfrwt beam="2">  1       21 0.46040041E-02 0.85798763E+02</pdfrwt>
<totfact> 0.89433173E+05</totfact>
</mgrwt>
</event>
<event>
 5    1  0.2051941E+000  0.1101028E+03  0.7546771E-02  0.1260380E+00
         21   -1    0    0  503  502  0.00000000000E+00  0.00000000000E+00  0.45190972891E+02  0.45190972891E+02  0.00000000000E+00 0.  1.
         21   -1    0    0  501  503 -0.00000000000E+00 -0.00000000000E+00 -0.20821924596E+04  0.20821924596E+04  0.00000000000E+00 0. -1.
         24    1    1    2    0    0  0.18578434308E+02 -0.18021128905E+02 -0.15081132040E+03  0.17286176449E+03  0.80419002446E+02 0.  0.
          1    1    1    2  501    0 -0.41815288313E+02  0.68442864565E+02 -0.18963803820E+04  0.18980757354E+04  0.00000000000E+00 0. -1.
         -2    1    1    2    0  502  0.23236854005E+02 -0.50421735660E+02  0.10190215699E+02  0.56445932599E+02  0.00000000000E+00 0.  1.
<mgrwt>
<rscale>  2 0.11010285E+03</rscale>
<asrwt>0</asrwt>
<pdfrwt beam="1">  1       21 0.69524577E-02 0.11010285E+03</pdfrwt>
<pdfrwt beam="2">  1       21 0.32033728E+00 0.11010285E+03</pdfrwt>
<totfact> 0.45330563E+03</totfact>
</mgrwt>
</event>
<event>
 5    1  0.1855960E+000  0.8146088E+02  0.7546771E-02  0.1324956E+00
         21   -1    0    0  501  502  0.00000000000E+00  0.00000000000E+00  0.41168246614E+03  0.41168246614E+03  0.00000000000E+00 0. -1.
         21   -1    0    0  502  503 -0.00000000000E+00 -0.00000000000E+00 -0.26895804158E+02  0.26895804158E+02  0.00000000000E+00 0.  1.
         24    1    1    2    0    0  0.28145222267E+02 -0.25294958810E+02  0.21421373234E+03  0.23191965755E+03  0.80419002446E+02 0. -1.
          1    1    1    2  501    0 -0.42091235198E+02 -0.33095950707E+01  0.16964701790E+03  0.17482201287E+03  0.00000000000E+00 0. -1.
         -2    1    1    2    0  503  0.13946012931E+02  0.28604553881E+02  0.92591173287E+00  0.31836599880E+02  0.00000000000E+00 0.  1.
<mgrwt>
<rscale>  2 0.81460876E+02</rscale>
<asrwt>0</asrwt>
<pdfrwt beam="1">  1       21 0.63335759E-01 0.81460876E+02</pdfrwt>
<pdfrwt beam="2">  1       21 0.41378163E-02 0.81460876E+02</pdfrwt>
<totfact> 0.85472940E+05</totfact>
</mgrwt>
</event>
<event>
 5    1  0.1855960E+000  0.7385953E+02  0.7546771E-02  0.1347440E+00
         21   -1    0    0  501  502  0.00000000000E+00  0.00000000000E+00  0.10900217692E+04  0.10900217692E+04  0.00000000000E+00 0.  1.
         21   -1    0    0  502  503 -0.00000000000E+00 -0.00000000000E+00 -0.67840694465E+01  0.67840694465E+01  0.00000000000E+00 0.  1.
         24    1    1    2    0    0  0.87473505908E+01 -0.40615360355E+02  0.89991288814E+03  0.90445372786E+03  0.80419002446E+02 0.  1.
          1    1    1    2  501    0 -0.24508494709E+02  0.25343000932E+02  0.12979809568E+03  0.13450085372E+03  0.00000000000E+00 0. -1.
         -2    1    1    2    0  503  0.15761144118E+02  0.15272359422E+02  0.53526715965E+02  0.57851257102E+02  0.00000000000E+00 0.  1.
<mgrwt>
<rscale>  2 0.73859530E+02</rscale>
<asrwt>0</asrwt>
<pdfrwt beam="1">  1       21 0.16769552E+00 0.73859530E+02</pdfrwt>
<pdfrwt beam="2">  1       21 0.10437039E-02 0.73859530E+02</pdfrwt>
<totfact> 0.79851847E+05</totfact>
</mgrwt>
</event>
<event>
 5    1  0.1855960E+000  0.9510333E+02  0.7546771E-02  0.1290944E+00
         21   -1    0    0  501  502  0.00000000000E+00  0.00000000000E+00  0.11361934199E+03  0.11361934199E+03  0.00000000000E+00 0. -1.
         21   -1    0    0  502  503 -0.00000000000E+00 -0.00000000000E+00 -0.19627484868E+03  0.19627484868E+03  0.00000000000E+00 0.  1.
         24    1    1    2    0    0  0.65355237253E+02  0.31064134186E+02  0.15354586773E+02  0.10926695181E+03  0.80419002446E+02 0.  0.
          1    1    1    2  501    0 -0.10269308391E+02 -0.24478969734E+02  0.42191750135E+02  0.49847993275E+02  0.00000000000E+00 0. -1.
         -2    1    1    2    0  503 -0.55085928862E+02 -0.65851644520E+01 -0.14020184360E+03  0.15077924558E+03  0.00000000000E+00 0.  1.
<mgrwt>
<rscale>  2 0.95103328E+02</rscale>
<asrwt>0</asrwt>
<pdfrwt beam="1">  1       21 0.17479899E-01 0.95103328E+02</pdfrwt>
<pdfrwt beam="2">  1       21 0.30196131E-01 0.95103328E+02</pdfrwt>
<totfact> 0.31760984E+05</totfact>
</mgrwt>
</event>
<event>
 5    1  0.1855960E+000  0.7847286E+02  0.7546771E-02  0.1333442E+00
         21   -1    0    0  501  502  0.00000000000E+00  0.00000000000E+00  0.67051877342E+02  0.67051877342E+02  0.00000000000E+00 0. -1.
         21   -1    0    0  502  503 -0.00000000000E+00 -0.00000000000E+00 -0.55977829701E+03  0.55977829701E+03  0.00000000000E+00 0.  1.
         24    1    1    2    0    0  0.22271640472E+02  0.10864877445E+02 -0.19448003729E+03  0.21190510232E+03  0.80419002446E+02 0. -1.
          1    1    1    2  501    0 -0.46021868199E+02 -0.15568429369E+02  0.47727482517E+02  0.68105072740E+02  0.00000000000E+00 0. -1.
         -2    1    1    2    0  503  0.23750227727E+02  0.47035519236E+01 -0.34597386490E+03  0.34681999929E+03  0.00000000000E+00 0.  1.
<mgrwt>
<rscale>  2 0.78472857E+02</rscale>
<asrwt>0</asrwt>
<pdfrwt beam="1">  1       21 0.10315673E-01 0.78472857E+02</pdfrwt>
<pdfrwt beam="2">  1       21 0.86119739E-01 0.78472857E+02</pdfrwt>
<totfact> 0.94291904E+04</totfact>
</mgrwt>
</event>
<event>
 5    1  0.1855960E+000  0.9607302E+02  0.7546771E-02  0.1288778E+00
         21   -1    0    0  503  502  0.00000000000E+00  0.00000000000E+00  0.10309710593E+03  0.10309710593E+03  0.00000000000E+00 0.  1.
         21   -1    0    0  501  503 -0.00000000000E+00 -0.00000000000E+00 -0.93509796919E+02  0.93509796919E+02  0.00000000000E+00 0. -1.
         24    1    1    2    0    0  0.61949724207E+01 -0.32704261678E+02 -0.14506568616E+02  0.88236063504E+02  0.80419002446E+02 0. -1.
          1    1    1    2  501    0 -0.52458310582E+02  0.25364710024E+02  0.78643801063E+01  0.58797035113E+02  0.00000000000E+00 0. -1.
         -2    1    1    2    0  502  0.46263338161E+02  0.73395516546E+01  0.16229497522E+02  0.49573804233E+02  0.00000000000E+00 0.  1.
<mgrwt>
<rscale>  2 0.96073021E+02</rscale>
<asrwt>0</asrwt>
<pdfrwt beam="1">  1       21 0.15861093E-01 0.96073021E+02</pdfrwt>
<pdfrwt beam="2">  1       21 0.14386123E-01 0.96073021E+02</pdfrwt>
<totfact> 0.14843126E+06</totfact>
</mgrwt>
</event>
<event>
 5    1  0.1855960E+000  0.7134171E+02  0.7546771E-02  0.1355589E+00
         21   -1    0    0  501  502  0.00000000000E+00  0.00000000000E+00  0.26643822029E+04  0.26643822029E+04  0.00000000000E+00 0. -1.
         21   -1    0    0  502  503 -0.00000000000E+00 -0.00000000000E+00 -0.44531480725E+01  0.44531480725E+01  0.00000000000E+00 0.  1.
         24    1    1    2    0    0  0.26845827890E+02 -0.10451608501E+02  0.23332336507E+04  0.23347968689E+04  0.80419002446E+02 0. -1.
          1    1    1    2  501    0 -0.18622416988E+02 -0.19046210675E+02  0.25061201877E+03  0.25202368243E+03  0.00000000000E+00 0. -1.
         -2    1    1    2    0  503 -0.82234109020E+01  0.29497819176E+02  0.76083385409E+02  0.82014799630E+02  0.00000000000E+00 0.  1.
<mgrwt>
<rscale>  2 0.71341712E+02</rscale>
<asrwt>0</asrwt>
<pdfrwt beam="1">  1       21 0.40990368E+00 0.71341712E+02</pdfrwt>
<pdfrwt beam="2">  1       21 0.68510183E-03 0.71341712E+02</pdfrwt>
<totfact> 0.63550182E+04</totfact>
</mgrwt>
</event>
<event>
 5    1  0.1855960E+000  0.8070425E+02  0.7546771E-02  0.1327065E+00
         21   -1    0    0  501  502  0.00000000000E+00  0.00000000000E+00  0.57724912716E+02  0.57724912716E+02  0.00000000000E+00 0.  1.
         21   -1    0    0  502  503 -0.00000000000E+00 -0.00000000000E+00 -0.18748305032E+03  0.18748305032E+03  0.00000000000E+00 0.  1.
         24    1    1    2    0    0 -0.41578984794E+01 -0.19174083108E+02 -0.14214835912E+03  0.16449408967E+03  0.80419002446E+02 0.  1.
          1    1    1    2  501    0 -0.34963783165E+02  0.18381198239E+02  0.12982115561E+02  0.41579681412E+02  0.00000000000E+00 0. -1.
         -2    1    1    2    0  503  0.39121681645E+02  0.79288486920E+00 -0.59189404687E+00  0.39134191951E+02  0.00000000000E+00 0.  1.
<mgrwt>
<rscale>  2 0.80704249E+02</rscale>
<asrwt>0</asrwt>
<pdfrwt beam="1">  1       21 0.88807558E-02 0.80704249E+02</pdfrwt>
<pdfrwt beam="2">  1       21 0.28843546E-01 0.80704249E+02</pdfrwt>
<totfact> 0.11398949E+06</totfact>
</mgrwt>
</event>
<event>
 5    1  0.1855960E+000  0.8886983E+02  0.7546771E-02  0.1305612E+00
         21   -1    0    0  503  502  0.00000000000E+00  0.00000000000E+00  0.15631461030E+02  0.15631461030E+02  0.00000000000E+00 0. -1.
         21   -1    0    0  501  503 -0.00000000000E+00 -0.00000000000E+00 -0.70243287927E+03  0.70243287927E+03  0.00000000000E+00 0. -1.
         24    1    1    2    0    0 -0.36576473071E+02  0.60468641119E+02 -0.40745230059E+03  0.42128243276E+03  0.80419002446E+02 0. -1.
          1    1    1    2  501    0  0.25968346452E+02 -0.41829387279E+02 -0.26806315714E+03  0.27254707644E+03  0.00000000000E+00 0. -1.
         -2    1    1    2    0  502  0.10608126619E+02 -0.18639253840E+02 -0.11285960511E+02  0.24234831107E+02  0.00000000000E+00 0.  1.
<mgrwt>
<rscale>  2 0.88869828E+02</rscale>
<asrwt>0</asrwt>
<pdfrwt beam="1">  1       21 0.24048408E-02 0.88869828E+02</pdfrwt>
<pdfrwt beam="2">  1       21 0.10806657E+00 0.88869828E+02</pdfrwt>
<totfact> 0.63002850E+05</totfact>
</mgrwt>
</event>
<event>
 5    1  0.1855960E+000  0.6969066E+02  0.7546771E-02  0.1361148E+00
         21   -1    0    0  503  502  0.00000000000E+00  0.00000000000E+00  0.84799436901E+02  0.84799436901E+02  0.00000000000E+00 0. -1.
         21   -1    0    0  501  503 -0.00000000000E+00 -0.00000000000E+00 -0.15971200946E+03  0.15971200946E+03  0.00000000000E+00 0. -1.
         24    1    1    2    0    0 -0.36299898851E+02 -0.14334340651E+02  0.21067090569E+02  0.91837869302E+02  0.80419002446E+02 0. -1.
          1    1    1    2  501    0  0.24723479876E+02 -0.70211171245E+01 -0.11746501249E+03  0.12024381773E+03  0.00000000000E+00 0. -1.
         -2    1    1    2    0  502  0.11576418975E+02  0.21355457776E+02  0.21485349361E+02  0.32429759331E+02  0.00000000000E+00 0.  1.
<mgrwt>
<rscale>  2 0.69690659E+02</rscale>
<asrwt>0</asrwt>
<pdfrwt beam="1">  1       21 0.13046067E-01 0.69690659E+02</pdfrwt>
<pdfrwt beam="2">  1       21 0.24571078E-01 0.69690659E+02</pdfrwt>
<totfact> 0.78777045E+05</totfact>
</mgrwt>
</event>
<event>
 5    1  0.1855960E+000  0.8584334E+02  0.7546771E-02  0.1313242E+00
         21   -1    0    0  503  502  0.00000000000E+00  0.00000000000E+00  0.31714671244E+02  0.31714671244E+02  0.00000000000E+00 0. -1.
         21   -1    0    0  501  503 -0.00000000000E+00 -0.00000000000E+00 -0.34840946193E+03  0.34840946193E+03  0.00000000000E+00 0. -1.
         24    1    1    2    0    0  0.52978019927E+02 -0.38658997256E+02 -0.91394341021E+02  0.13827989799E+03  0.80419002446E+02 0. -1.
          1    1    1    2  501    0 -0.22519027278E+02  0.27343606648E+02 -0.19228787046E+03  0.19552341175E+03  0.00000000000E+00 0. -1.
         -2    1    1    2    0  502 -0.30458992649E+02  0.11315390607E+02 -0.33012579198E+02  0.46320823428E+02  0.00000000000E+00 0.  1.
<mgrwt>
<rscale>  2 0.85843343E+02</rscale>
<asrwt>0</asrwt>
<pdfrwt beam="1">  1       21 0.48791801E-02 0.85843343E+02</pdfrwt>
<pdfrwt beam="2">  1       21 0.53601457E-01 0.85843343E+02</pdfrwt>
<totfact> 0.92282124E+05</totfact>
</mgrwt>
</event>
<event>
 5    1  0.1855960E+000  0.7925786E+02  0.7546771E-02  0.1331171E+00
         21   -1    0    0  501  502  0.00000000000E+00  0.00000000000E+00  0.23777611118E+03  0.23777611118E+03  0.00000000000E+00 0.  1.
         21   -1    0    0  502  503 -0.00000000000E+00 -0.00000000000E+00 -0.32962501951E+02  0.32962501951E+02  0.00000000000E+00 0. -1.
         24    1    1    2    0    0 -0.38454590598E+02 -0.13344848537E+02  0.55395903628E+02  0.10579585348E+03  0.80419002446E+02 0. -1.
          1    1    1    2  501    0  0.44390020277E+02 -0.89735978080E+01  0.11394185138E+03  0.12261217254E+03  0.00000000000E+00 0. -1.
         -2    1    1    2    0  503 -0.59354296790E+01  0.22318446345E+02  0.35475854214E+02  0.42330587109E+02  0.00000000000E+00 0.  1.
<mgrwt>
<rscale>  2 0.79257857E+02</rscale>
<asrwt>0</asrwt>
<pdfrwt beam="1">  1       21 0.36580939E-01 0.79257857E+02</pdfrwt>
<pdfrwt beam="2">  1       21 0.50711543E-02 0.79257857E+02</pdfrwt>
<totfact> 0.18558328E+06</totfact>
</mgrwt>
</event>
<event>
 5    1  0.1855960E+000  0.1022808E+03  0.7546771E-02  0.1275572E+00
         21   -1    0    0  501  502  0.00000000000E+00  0.00000000000E+00  0.11337968181E+03  0.11337968181E+03  0.00000000000E+00 0. -1.
         21   -1    0    0  502  503 -0.00000000000E+00 -0.00000000000E+00 -0.17998996780E+03  0.17998996780E+03  0.00000000000E+00 0. -1.
         24    1    1    2    0    0 -0.65009507030E+01 -0.58203092388E+02 -0.13075502417E+02  0.10033965837E+03  0.80419002446E+02 0. -1.
          1    1    1    2  501    0 -0.39612071368E+01  0.80421594040E+02  0.44478179396E+02  0.91987131667E+02  0.00000000000E+00 0. -1.
         -2    1    1    2    0  503  0.10462157840E+02 -0.22218501652E+02 -0.98012962963E+02  0.10104285958E+03  0.00000000000E+00 0.  1.
<mgrwt>
<rscale>  2 0.10228081E+03</rscale>
<asrwt>0</asrwt>
<pdfrwt beam="1">  1       21 0.17443028E-01 0.10228081E+03</pdfrwt>
<pdfrwt beam="2">  1       21 0.27690764E-01 0.10228081E+03</pdfrwt>
<totfact> 0.37570019E+05</totfact>
</mgrwt>
</event>
<event>
 5    1  0.1855960E+000  0.8259105E+02  0.7546771E-02  0.1321855E+00
         21   -1    0    0  501  502  0.00000000000E+00  0.00000000000E+00  0.19591225619E+03  0.19591225619E+03  0.00000000000E+00 0. -1.
         21   -1    0    0  502  503 -0.00000000000E+00 -0.00000000000E+00 -0.12047973746E+03  0.12047973746E+03  0.00000000000E+00 0.  1.
         24    1    1    2    0    0 -0.20853680413E+02 -0.20699595080E+02 -0.95012809919E+02  0.12789839415E+03  0.80419002446E+02 0.  1.
          1    1    1    2  501    0  0.12898802016E+02  0.48739233374E+02  0.12122034395E+03  0.13128695195E+03  0.00000000000E+00 0. -1.
         -2    1    1    2    0  503  0.79548783965E+01 -0.28039638293E+02  0.49224984692E+02  0.57206647550E+02  0.00000000000E+00 0.  1.
<mgrwt>
<rscale>  2 0.82591053E+02</rscale>
<asrwt>0</asrwt>
<pdfrwt beam="1">  1       21 0.30140347E-01 0.82591053E+02</pdfrwt>
<pdfrwt beam="2">  1       21 0.18535344E-01 0.82591053E+02</pdfrwt>
<totfact> 0.28719823E+05</totfact>
</mgrwt>
</event>
<event>
 5    1  0.1855960E+000  0.7014537E+02  0.7546771E-02  0.1359599E+00
         21   -1    0    0  503  502  0.00000000000E+00  0.00000000000E+00  0.37671981043E+02  0.37671981043E+02  0.00000000000E+00 0.  1.
         21   -1    0    0  501  503 -0.00000000000E+00 -0.00000000000E+00 -0.30788665047E+03  0.30788665047E+03  0.00000000000E+00 0.  1.
         24    1    1    2    0    0 -0.93446764077E+01  0.11111039530E+02 -0.21885674738E+03  0.23361564589E+03  0.80419002446E+02 0.  1.
          1    1    1    2  501    0  0.22690625671E+02  0.16398371492E+02 -0.70509703736E+02  0.75864282781E+02  0.00000000000E+00 0. -1.
         -2    1    1    2    0  502 -0.13345949264E+02 -0.27509411022E+02  0.19151781692E+02  0.36078702838E+02  0.00000000000E+00 0.  1.
<mgrwt>
<rscale>  2 0.70145374E+02</rscale>
<asrwt>0</asrwt>
<pdfrwt beam="1">  1       21 0.57956892E-02 0.70145374E+02</pdfrwt>
<pdfrwt beam="2">  1       21 0.47367178E-01 0.70145374E+02</pdfrwt>
<totfact> 0.88806712E+05</totfact>
</mgrwt>
</event>
<event>
 5    1  0.1855960E+000  0.6376980E+02  0.7546771E-02  0.1382660E+00
         21   -1    0    0  503  502  0.00000000000E+00  0.00000000000E+00  0.26497131736E+03  0.26497131736E+03  0.00000000000E+00 0.  1.
         21   -1    0    0  501  503 -0.00000000000E+00 -0.00000000000E+00 -0.44557098126E+02  0.44557098126E+02  0.00000000000E+00 0.  1.
         24    1    1    2    0    0  0.10026234227E+02 -0.32278544915E+01  0.67849735264E+01  0.81389165357E+02  0.80419002446E+02 0.  1.
          1    1    1    2  501    0  0.25150110468E+01  0.22936094067E+02  0.13667704699E+02  0.26817826969E+02  0.00000000000E+00 0. -1.
         -2    1    1    2    0  502 -0.12541245273E+02 -0.19708239575E+02  0.19996154101E+03  0.20132142316E+03  0.00000000000E+00 0.  1.
<mgrwt>
<rscale>  2 0.63769800E+02</rscale>
<asrwt>0</asrwt>
<pdfrwt beam="1">  1       21 0.40764817E-01 0.63769800E+02</pdfrwt>
<pdfrwt beam="2">  1       21 0.68549384E-02 0.63769800E+02</pdfrwt>
<totfact> 0.90189115E+05</totfact>
</mgrwt>
</event>
<event>
 5    1  0.1855960E+000  0.1361312E+03  0.7546771E-02  0.1218632E+00
         21   -1    0    0  501  502  0.00000000000E+00  0.00000000000E+00  0.57723071581E+02  0.57723071581E+02  0.00000000000E+00 0.  1.
         21   -1    0    0  502  503 -0.00000000000E+00 -0.00000000000E+00 -0.39744046975E+03  0.39744046975E+03  0.00000000000E+00 0. -1.
         24    1    1    2    0    0  0.10660140230E+03  0.18263807395E+02 -0.10225526523E+03  0.16917677398E+03  0.80419002446E+02 0.  1.
          1    1    1    2  501    0 -0.10676413867E+03 -0.41281919082E+02 -0.11826949704E+03  0.16459177404E+03  0.00000000000E+00 0. -1.
         -2    1    1    2    0  503  0.16273637095E+00  0.23018111687E+02 -0.11919263590E+03  0.12139499331E+03  0.00000000000E+00 0.  1.
<mgrwt>
<rscale>  2 0.13613116E+03</rscale>
<asrwt>0</asrwt>
<pdfrwt beam="1">  1       21 0.88804725E-02 0.13613116E+03</pdfrwt>
<pdfrwt beam="2">  1       21 0.61144688E-01 0.13613116E+03</pdfrwt>
<totfact> 0.25236913E+05</totfact>
</mgrwt>
</event>
<event>
 5    1  0.1855960E+000  0.1195488E+03  0.7546771E-02  0.1243843E+00
         21   -1    0    0  503  502  0.00000000000E+00  0.00000000000E+00  0.13133048574E+03  0.13133048574E+03  0.00000000000E+00 0. -1.
         21   -1    0    0  501  503 -0.00000000000E+00 -0.00000000000E+00 -0.22810942568E+03  0.22810942568E+03  0.00000000000E+00 0. -1.
         24    1    1    2    0    0 -0.80393312167E+02  0.10542944006E+02 -0.15923148463E+03  0.19594927905E+03  0.80419002446E+02 0.  0.
          1    1    1    2  501    0  0.14488459313E+02 -0.47277195180E+02 -0.18530812912E+02  0.52805678336E+02  0.00000000000E+00 0. -1.
         -2    1    1    2    0  502  0.65904852854E+02  0.36734251174E+02  0.80983357600E+02  0.11068495402E+03  0.00000000000E+00 0.  1.
<mgrwt>
<rscale>  2 0.11954881E+03</rscale>
<asrwt>0</asrwt>
<pdfrwt beam="1">  1       21 0.20204690E-01 0.11954881E+03</pdfrwt>
<pdfrwt beam="2">  1       21 0.35093758E-01 0.11954881E+03</pdfrwt>
<totfact> 0.18107654E+05</totfact>
</mgrwt>
</event>
<event>
 5    1  0.1855960E+000  0.9871506E+02  0.7546771E-02  0.1283021E+00
         21   -1    0    0  501  502  0.00000000000E+00  0.00000000000E+00  0.78363424478E+02  0.78363424478E+02  0.00000000000E+00 0.  1.
         21   -1    0    0  502  503 -0.00000000000E+00 -0.00000000000E+00 -0.20414238388E+03  0.20414238388E+03  0.00000000000E+00 0.  1.
         24    1    1    2    0    0 -0.75128930761E+02 -0.15784632574E+02 -0.14462643867E+02  0.11211554257E+03  0.80419002446E+02 0.  1.
          1    1    1    2  501    0  0.17352175563E+02  0.22135993695E+02  0.14611414739E+02  0.31695325433E+02  0.00000000000E+00 0. -1.
         -2    1    1    2    0  503  0.57776755198E+02 -0.63513611213E+01 -0.12592773028E+03  0.13869494036E+03  0.00000000000E+00 0.  1.
<mgrwt>
<rscale>  2 0.98715058E+02</rscale>
<asrwt>0</asrwt>
<pdfrwt beam="1">  1       21 0.12055912E-01 0.98715058E+02</pdfrwt>
<pdfrwt beam="2">  1       21 0.31406520E-01 0.98715058E+02</pdfrwt>
<totfact> 0.57136048E+05</totfact>
</mgrwt>
</event>
<event>
 5    1  0.1855960E+000  0.8503373E+02  0.7546771E-02  0.1315344E+00
         21   -1    0    0  501  502  0.00000000000E+00  0.00000000000E+00  0.29582166778E+02  0.29582166778E+02  0.00000000000E+00 0. -1.
         21   -1    0    0  502  503 -0.00000000000E+00 -0.00000000000E+00 -0.29785398311E+03  0.29785398311E+03  0.00000000000E+00 0.  1.
         24    1    1    2    0    0  0.19823407482E+02 -0.38481676092E+02 -0.21142940066E+03  0.23031155919E+03  0.80419002446E+02 0.  0.
          1    1    1    2  501    0 -0.41196207684E+02  0.87391618212E+01 -0.29445980571E+02  0.51386440319E+02  0.00000000000E+00 0. -1.
         -2    1    1    2    0  503  0.21372800202E+02  0.29742514271E+02 -0.27396435095E+02  0.45738150374E+02  0.00000000000E+00 0.  1.
<mgrwt>
<rscale>  2 0.85033732E+02</rscale>
<asrwt>0</asrwt>
<pdfrwt beam="1">  1       21 0.45511026E-02 0.85033732E+02</pdfrwt>
<pdfrwt beam="2">  1       21 0.45823690E-01 0.85033732E+02</pdfrwt>
<totfact> 0.14247605E+06</totfact>
</mgrwt>
</event>
<event>
 5    1  0.1855960E+000  0.6980167E+02  0.7546771E-02  0.1360769E+00
         21   -1    0    0  503  502  0.00000000000E+00  0.00000000000E+00  0.41548875734E+02  0.41548875734E+02  0.00000000000E+00 0. -1.
         21   -1    0    0  501  503 -0.00000000000E+00 -0.00000000000E+00 -0.14033313975E+03  0.14033313975E+03  0.00000000000E+00 0.  1.
         24    1    1    2    0    0 -0.38813849828E+01 -0.34645707625E+01 -0.26055533328E+02  0.84694599422E+02  0.80419002446E+02 0. -1.
          1    1    1    2  501    0 -0.14797482527E+01  0.30963861993E+02 -0.57438409343E+02  0.65269604505E+02  0.00000000000E+00 0. -1.
         -2    1    1    2    0  502  0.53611332355E+01 -0.27499291231E+02 -0.15290321347E+02  0.31917811558E+02  0.00000000000E+00 0.  1.
<mgrwt>
<rscale>  2 0.69801666E+02</rscale>
<asrwt>0</asrwt>
<pdfrwt beam="1">  1       21 0.63921348E-02 0.69801666E+02</pdfrwt>
<pdfrwt beam="2">  1       21 0.21589714E-01 0.69801666E+02</pdfrwt>
<totfact> 0.33879930E+06</totfact>
</mgrwt>
</event>
<event>
 5    1  0.1855960E+000  0.7638628E+02  0.7546771E-02  0.1339631E+00
         21   -1    0    0  501  502  0.00000000000E+00  0.00000000000E+00  0.21879921696E+03  0.21879921696E+03  0.00000000000E+00 0.  1.
         21   -1    0    0  502  503 -0.00000000000E+00 -0.00000000000E+00 -0.45846545651E+02  0.45846545651E+02  0.00000000000E+00 0. -1.
         24    1    1    2    0    0 -0.25003291195E+02 -0.96625148103E+01  0.16793243830E+02  0.86416189199E+02  0.80419002446E+02 0. -1.
          1    1    1    2  501    0  0.45861244572E+02  0.10796778571E+02  0.14880215899E+03  0.15608301221E+03  0.00000000000E+00 0. -1.
         -2    1    1    2    0  503 -0.20857953377E+02 -0.11342637604E+01  0.73572684902E+01  0.22146561200E+02  0.00000000000E+00 0.  1.
<mgrwt>
<rscale>  2 0.76386277E+02</rscale>
<asrwt>0</asrwt>
<pdfrwt beam="1">  1       21 0.33661418E-01 0.76386277E+02</pdfrwt>
<pdfrwt beam="2">  1       21 0.70533148E-02 0.76386277E+02</pdfrwt>
<totfact> 0.12537723E+06</totfact>
</mgrwt>
</event>
<event>
 5    1  0.1855960E+000  0.6811364E+02  0.7546771E-02  0.1366628E+00
         21   -1    0    0  501  502  0.00000000000E+00  0.00000000000E+00  0.79705249033E+02  0.79705249033E+02  0.00000000000E+00 0. -1.
         21   -1    0    0  502  503 -0.00000000000E+00 -0.00000000000E+00 -0.70159410782E+02  0.70159410782E+02  0.00000000000E+00 0. -1.
         24    1    1    2    0    0  0.26491589385E+02  0.29966747133E+02  0.19736115450E+02  0.91959450027E+02  0.80419002446E+02 0. -1.
          1    1    1    2  501    0 -0.23829534997E+02 -0.93108780199E+01  0.11309398630E+02  0.27972159106E+02  0.00000000000E+00 0. -1.
         -2    1    1    2    0  503 -0.26620543883E+01 -0.20655869114E+02 -0.21499675829E+02  0.29933050682E+02  0.00000000000E+00 0.  1.
<mgrwt>
<rscale>  2 0.68113645E+02</rscale>
<asrwt>0</asrwt>
<pdfrwt beam="1">  1       21 0.12262346E-01 0.68113645E+02</pdfrwt>
<pdfrwt beam="2">  1       21 0.10793756E-01 0.68113645E+02</pdfrwt>
<totfact> 0.38092533E+06</totfact>
</mgrwt>
</event>
<event>
 5    1  0.1855960E+000  0.1374696E+03  0.7546771E-02  0.1216775E+00
         21   -1    0    0  501  502  0.00000000000E+00  0.00000000000E+00  0.40320366419E+03  0.40320366419E+03  0.00000000000E+00 0. -1.
         21   -1    0    0  502  503 -0.00000000000E+00 -0.00000000000E+00 -0.58281335303E+02  0.58281335303E+02  0.00000000000E+00 0.  1.
         24    1    1    2    0    0 -0.18717490891E+02 -0.61627597923E+01  0.30662300889E+02  0.88293356056E+02  0.80419002446E+02 0.  1.
          1    1    1    2  501    0 -0.35925693440E+02 -0.81372615380E+02  0.20195913045E+03  0.22067996818E+03  0.00000000000E+00 0. -1.
         -2    1    1    2    0  503  0.54643184331E+02  0.87535375172E+02  0.11230089755E+03  0.15251167526E+03  0.00000000000E+00 0.  1.
<mgrwt>
<rscale>  2 0.13746960E+03</rscale>
<asrwt>0</asrwt>
<pdfrwt beam="1">  1       21 0.62031331E-01 0.13746960E+03</pdfrwt>
<pdfrwt beam="2">  1       21 0.89663595E-02 0.13746960E+03</pdfrwt>
<totfact> 0.24058608E+05</totfact>
</mgrwt>
</event>
<event>
 5    1  0.1855960E+000  0.1338021E+03  0.7546771E-02  0.1221921E+00
         21   -1    0    0  503  502  0.00000000000E+00  0.00000000000E+00  0.50641845636E+03  0.50641845636E+03  0.00000000000E+00 0.  1.
         21   -1    0    0  501  503 -0.00000000000E+00 -0.00000000000E+00 -0.84075515460E+02  0.84075515460E+02  0.00000000000E+00 0. -1.
         24    1    1    2    0    0  0.48517649268E+02 -0.20267360998E+02  0.62810073223E+02  0.11479133010E+03  0.80419002446E+02 0.  1.
          1    1    1    2  501    0  0.54630150978E+01 -0.67911799306E+02 -0.28706937951E+02  0.73932031660E+02  0.00000000000E+00 0. -1.
         -2    1    1    2    0  502 -0.53980664366E+02  0.88179160304E+02  0.38823980562E+03  0.40177061006E+03  0.00000000000E+00 0.  1.
<mgrwt>
<rscale>  2 0.13380205E+03</rscale>
<asrwt>0</asrwt>
<pdfrwt beam="1">  1       21 0.77910530E-01 0.13380205E+03</pdfrwt>
<pdfrwt beam="2">  1       21 0.12934695E-01 0.13380205E+03</pdfrwt>
<totfact> 0.76862440E+04</totfact>
</mgrwt>
</event>
<event>
 5    1  0.1855960E+000  0.8546421E+02  0.7546771E-02  0.1314223E+00
         21   -1    0    0  501  502  0.00000000000E+00  0.00000000000E+00  0.56817984411E+03  0.56817984411E+03  0.00000000000E+00 0. -1.
         21   -1    0    0  502  503 -0.00000000000E+00 -0.00000000000E+00 -0.28223688902E+02  0.28223688902E+02  0.00000000000E+00 0.  1.
         24    1    1    2    0    0 -0.54202643003E+02 -0.31791815954E+02  0.18415783156E+03  0.21054683315E+03  0.80419002446E+02 0.  0.
          1    1    1    2  501    0  0.95788584844E+01  0.20819442122E+02  0.33436778210E+03  0.33515223020E+03  0.00000000000E+00 0. -1.
         -2    1    1    2    0  503  0.44623784519E+02  0.10972373832E+02  0.21430541538E+02  0.50704469654E+02  0.00000000000E+00 0.  1.
<mgrwt>
<rscale>  2 0.85464210E+02</rscale>
<asrwt>0</asrwt>
<pdfrwt beam="1">  1       21 0.87412275E-01 0.85464210E+02</pdfrwt>
<pdfrwt beam="2">  1       21 0.43421064E-02 0.85464210E+02</pdfrwt>
<totfact> 0.39164241E+05</totfact>
</mgrwt>
</event>
<event>
 5    1  0.1855960E+000  0.2048999E+03  0.7546771E-02  0.1145670E+00
         21   -1    0    0  501  502  0.00000000000E+00  0.00000000000E+00  0.16574897088E+03  0.16574897088E+03  0.00000000000E+00 0. -1.
         21   -1    0    0  502  503 -0.00000000000E+00 -0.00000000000E+00 -0.30188860857E+03  0.30188860857E+03  0.00000000000E+00 0. -1.
         24    1    1    2    0    0 -0.95027705301E+00 -0.13236443369E+03 -0.10134107291E+03  0.18509045180E+03  0.80419002446E+02 0. -1.
          1    1    1    2  501    0  0.10598832163E+03  0.98132959028E+02  0.39092042131E+02  0.14963886436E+03  0.00000000000E+00 0. -1.
         -2    1    1    2    0  503 -0.10503804457E+03  0.34231474662E+02 -0.73890606906E+02  0.13290826330E+03  0.00000000000E+00 0.  1.
<mgrwt>
<rscale>  2 0.20489987E+03</rscale>
<asrwt>0</asrwt>
<pdfrwt beam="1">  1       21 0.25499842E-01 0.20489987E+03</pdfrwt>
<pdfrwt beam="2">  1       21 0.46444401E-01 0.20489987E+03</pdfrwt>
<totfact> 0.64398247E+04</totfact>
</mgrwt>
</event>
<event>
 5    1  0.1855960E+000  0.1432622E+03  0.7546771E-02  0.1209006E+00
         21   -1    0    0  503  502  0.00000000000E+00  0.00000000000E+00  0.18946570406E+03  0.18946570406E+03  0.00000000000E+00 0.  1.
         21   -1    0    0  501  503 -0.00000000000E+00 -0.00000000000E+00 -0.18888299847E+03  0.18888299847E+03  0.00000000000E+00 0. -1.
         24    1    1    2    0    0  0.73105167958E+01  0.10847487464E+03 -0.89355944728E+02  0.16208622056E+03  0.80419002446E+02 0.  0.
          1    1    1    2  501    0 -0.55547719113E+02 -0.44520562413E+02 -0.25617113655E+02  0.75656236281E+02  0.00000000000E+00 0. -1.
         -2    1    1    2    0  502  0.48237202317E+02 -0.63954312227E+02  0.11555576397E+03  0.14060624569E+03  0.00000000000E+00 0.  1.
<mgrwt>
<rscale>  2 0.14326224E+03</rscale>
<asrwt>0</asrwt>
<pdfrwt beam="1">  1       21 0.29148570E-01 0.14326224E+03</pdfrwt>
<pdfrwt beam="2">  1       21 0.29058923E-01 0.14326224E+03</pdfrwt>
<totfact> 0.12995670E+05</totfact>
</mgrwt>
</event>
<event>
 5    1  0.1855960E+000  0.1025648E+03  0.7546771E-02  0.1274993E+00
         21   -1    0    0  503  502  0.00000000000E+00  0.00000000000E+00  0.11948552045E+03  0.11948552045E+03  0.00000000000E+00 0. -1.
         21   -1    0    0  501  503 -0.00000000000E+00 -0.00000000000E+00 -0.12545351089E+03  0.12545351089E+03  0.00000000000E+00 0.  1.
         24    1    1    2    0    0 -0.61005675193E+02  0.10094934363E+02  0.19030822212E+02  0.10321331432E+03  0.80419002446E+02 0.  1.
          1    1    1    2  501    0  0.80172627450E+02 -0.19240147183E+02 -0.59176510100E+02  0.10148740219E+03  0.00000000000E+00 0. -1.
         -2    1    1    2    0  502 -0.19166952257E+02  0.91452128200E+01  0.34177697455E+02  0.40238314821E+02  0.00000000000E+00 0.  1.
<mgrwt>
<rscale>  2 0.10256478E+03</rscale>
<asrwt>0</asrwt>
<pdfrwt beam="1">  1       21 0.18382388E-01 0.10256478E+03</pdfrwt>
<pdfrwt beam="2">  1       21 0.19300540E-01 0.10256478E+03</pdfrwt>
<totfact> 0.66924093E+05</totfact>
</mgrwt>
</event>
<event>
 5    1  0.1855960E+000  0.6421798E+02  0.7546771E-02  0.1380938E+00
         21   -1    0    0  503  502  0.00000000000E+00  0.00000000000E+00  0.53039950184E+02  0.53039950184E+02  0.00000000000E+00 0. -1.
         21   -1    0    0  501  503 -0.00000000000E+00 -0.00000000000E+00 -0.12444899634E+03  0.12444899634E+03  0.00000000000E+00 0. -1.
         24    1    1    2    0    0 -0.14795023793E+01  0.40114277786E+01  0.78982718722E+01  0.80918966461E+02  0.80419002446E+02 0. -1.
          1    1    1    2  501    0  0.21666003861E+02  0.94530559211E+01 -0.63120279606E+02  0.67401377487E+02  0.00000000000E+00 0. -1.
         -2    1    1    2    0  502 -0.20186501482E+02 -0.13464483700E+02 -0.16187038419E+02  0.29168602574E+02  0.00000000000E+00 0.  1.
<mgrwt>
<rscale>  2 0.64217980E+02</rscale>
<asrwt>0</asrwt>
<pdfrwt beam="1">  1       21 0.81599924E-02 0.64217980E+02</pdfrwt>
<pdfrwt beam="2">  1       21 0.19145999E-01 0.64217980E+02</pdfrwt>
<totfact> 0.27792858E+06</totfact>
</mgrwt>
</event>
<event>
 5    1  0.1855960E+000  0.7536240E+02  0.7546771E-02  0.1342752E+00
         21   -1    0    0  501  502  0.00000000000E+00  0.00000000000E+00  0.97049668196E+01  0.97049668196E+01  0.00000000000E+00 0.  1.
         21   -1    0    0  502  503 -0.00000000000E+00 -0.00000000000E+00 -0.16739976332E+04  0.16739976332E+04  0.00000000000E+00 0.  1.
         24    1    1    2    0    0 -0.39056994146E+02 -0.37089527950E+02 -0.29644770788E+03  0.31184858719E+03  0.80419002446E+02 0.  1.
          1    1    1    2  501    0  0.20182454914E+02  0.21095259999E+02 -0.11129411325E+03  0.11505964159E+03  0.00000000000E+00 0. -1.
         -2    1    1    2    0  503  0.18874539232E+02  0.15994267952E+02 -0.12565508453E+04  0.12567943713E+04  0.00000000000E+00 0.  1.
<mgrwt>
<rscale>  2 0.75362400E+02</rscale>
<asrwt>0</asrwt>
<pdfrwt beam="1">  1       21 0.14930736E-02 0.75362400E+02</pdfrwt>
<pdfrwt beam="2">  1       21 0.25753779E+00 0.75362400E+02</pdfrwt>
<totfact> 0.13225220E+05</totfact>
</mgrwt>
</event>
<event>
 5    1  0.1855960E+000  0.1872981E+03  0.7546771E-02  0.1160921E+00
         21   -1    0    0  503  502  0.00000000000E+00  0.00000000000E+00  0.54009567867E+02  0.54009567867E+02  0.00000000000E+00 0.  1.
         21   -1    0    0  501  503 -0.00000000000E+00 -0.00000000000E+00 -0.78096372030E+03  0.78096372030E+03  0.00000000000E+00 0.  1.
         24    1    1    2    0    0  0.66469251724E+02  0.16572807654E+03 -0.34941995613E+03  0.40055646103E+03  0.80419002446E+02 0.  1.
          1    1    1    2  501    0 -0.35545802331E+02 -0.99807558031E+02 -0.33210119353E+03  0.34859181782E+03  0.00000000000E+00 0. -1.
         -2    1    1    2    0  502 -0.30923449393E+02 -0.65920518514E+02 -0.45433002771E+02  0.85825009317E+02  0.00000000000E+00 0.  1.
<mgrwt>
<rscale>  2 0.18729809E+03</rscale>
<asrwt>0</asrwt>
<pdfrwt beam="1">  1       21 0.83091650E-02 0.18729809E+03</pdfrwt>
<pdfrwt beam="2">  1       21 0.12014825E+00 0.18729809E+03</pdfrwt>
<totfact> 0.59296331E+04</totfact>
</mgrwt>
</event>
<event>
 5    1  0.1855960E+000  0.8949042E+02  0.7546771E-02  0.1304090E+00
         21   -1    0    0  503  502  0.00000000000E+00  0.00000000000E+00  0.52222320651E+02  0.52222320651E+02  0.00000000000E+00 0.  1.
         21   -1    0    0  501  503 -0.00000000000E+00 -0.00000000000E+00 -0.16189838767E+03  0.16189838767E+03  0.00000000000E+00 0. -1.
         24    1    1    2    0    0  0.24019499960E+02  0.66864752022E+02 -0.68063091171E+02  0.12707333227E+03  0.80419002446E+02 0.  0.
          1    1    1    2  501    0 -0.18877269070E+02 -0.38892490348E+02 -0.39447269850E+02  0.58524047977E+02  0.00000000000E+00 0. -1.
         -2    1    1    2    0  502 -0.51422308900E+01 -0.27972261674E+02 -0.21657059984E+01  0.28523328070E+02  0.00000000000E+00 0.  1.
<mgrwt>
<rscale>  2 0.89490424E+02</rscale>
<asrwt>0</asrwt>
<pdfrwt beam="1">  1       21 0.80342031E-02 0.89490424E+02</pdfrwt>
<pdfrwt beam="2">  1       21 0.24907444E-01 0.89490424E+02</pdfrwt>
<totfact> 0.17891574E+06</totfact>
</mgrwt>
</event>
<event>
 5    1  0.1855960E+000  0.1069066E+03  0.7546771E-02  0.1266408E+00
         21   -1    0    0  501  502  0.00000000000E+00  0.00000000000E+00  0.17283652155E+03  0.17283652155E+03  0.00000000000E+00 0.  1.
         21   -1    0    0  502  503 -0.00000000000E+00 -0.00000000000E+00 -0.32028090219E+03  0.32028090219E+03  0.00000000000E+00 0.  1.
         24    1    1    2    0    0  0.80001543212E+02  0.10857459544E+02  0.52359196704E+02  0.12540666959E+03  0.80419002446E+02 0.  1.
          1    1    1    2  501    0 -0.47760532721E+02 -0.35309341997E+02  0.71758235103E+02  0.93150751060E+02  0.00000000000E+00 0. -1.
         -2    1    1    2    0  503 -0.32241010491E+02  0.24451882453E+02 -0.27156181245E+03  0.27456000309E+03  0.00000000000E+00 0.  1.
<mgrwt>
<rscale>  2 0.10690661E+03</rscale>
<asrwt>0</asrwt>
<pdfrwt beam="1">  1       21 0.26590235E-01 0.10690661E+03</pdfrwt>
<pdfrwt beam="2">  1       21 0.49273984E-01 0.10690661E+03</pdfrwt>
<totfact> 0.55237088E+04</totfact>
</mgrwt>
</event>
<event>
 5    1  0.1855960E+000  0.6224663E+02  0.7546771E-02  0.1388638E+00
         21   -1    0    0  501  502  0.00000000000E+00  0.00000000000E+00  0.20795195500E+02  0.20795195500E+02  0.00000000000E+00 0.  1.
         21   -1    0    0  502  503 -0.00000000000E+00 -0.00000000000E+00 -0.80750085067E+03  0.80750085067E+03  0.00000000000E+00 0. -1.
         24    1    1    2    0    0 -0.94979442922E+01  0.16026752132E+02 -0.78058455955E+03  0.78493728303E+03  0.80419002446E+02 0. -1.
          1    1    1    2  501    0 -0.12158207573E+02 -0.16240566733E+02  0.16384340972E+01  0.20353439156E+02  0.00000000000E+00 0. -1.
         -2    1    1    2    0  503  0.21656151865E+02  0.21381460070E+00 -0.77595297212E+01  0.23005323987E+02  0.00000000000E+00 0.  1.
<mgrwt>
<rscale>  2 0.62246634E+02</rscale>
<asrwt>0</asrwt>
<pdfrwt beam="1">  1       21 0.31992612E-02 0.62246634E+02</pdfrwt>
<pdfrwt beam="2">  1       21 0.12423089E+00 0.62246634E+02</pdfrwt>
<totfact> 0.28714598E+05</totfact>
</mgrwt>
</event>
<event>
 5    1  0.1855960E+000  0.6313048E+02  0.7546771E-02  0.1385145E+00
         21   -1    0    0  501  502  0.00000000000E+00  0.00000000000E+00  0.26475241349E+03  0.26475241349E+03  0.00000000000E+00 0.  1.
         21   -1    0    0  502  503 -0.00000000000E+00 -0.00000000000E+00 -0.22547916144E+02  0.22547916144E+02  0.00000000000E+00 0. -1.
         24    1    1    2    0    0 -0.22111167148E+00 -0.52111315671E+01  0.79827782027E+02  0.11343233895E+03  0.80419002446E+02 0. -1.
          1    1    1    2  501    0 -0.76329979150E+01 -0.18863651835E+02  0.13519501607E+03  0.13671793002E+03  0.00000000000E+00 0. -1.
         -2    1    1    2    0  503  0.78541095865E+01  0.24074783402E+02  0.27181699246E+02  0.37150060662E+02  0.00000000000E+00 0.  1.
<mgrwt>
<rscale>  2 0.63130484E+02</rscale>
<asrwt>0</asrwt>
<pdfrwt beam="1">  1       21 0.40731138E-01 0.63130484E+02</pdfrwt>
<pdfrwt beam="2">  1       21 0.34689104E-02 0.63130484E+02</pdfrwt>
<totfact> 0.27717127E+06</totfact>
</mgrwt>
</event>
<event>
 5    1  0.1855960E+000  0.1069155E+03  0.7546771E-02  0.1266391E+00
         21   -1    0    0  501  502  0.00000000000E+00  0.00000000000E+00  0.71486384646E+02  0.71486384646E+02  0.00000000000E+00 0. -1.
         21   -1    0    0  502  503 -0.00000000000E+00 -0.00000000000E+00 -0.39552453579E+03  0.39552453579E+03  0.00000000000E+00 0.  1.
         24    1    1    2    0    0 -0.60144463279E+02 -0.30362851744E+02 -0.25447572458E+03  0.27525328260E+03  0.80419002446E+02 0. -1.
          1    1    1    2  501    0  0.55855434597E+02  0.58250983018E+02  0.31648664260E+02  0.86687049471E+02  0.00000000000E+00 0. -1.
         -2    1    1    2    0  503  0.42890286816E+01 -0.27888131273E+02 -0.10121109083E+03  0.10507058836E+03  0.00000000000E+00 0.  1.
<mgrwt>
<rscale>  2 0.10691548E+03</rscale>
<asrwt>0</asrwt>
<pdfrwt beam="1">  1       21 0.10997905E-01 0.10691548E+03</pdfrwt>
<pdfrwt beam="2">  1       21 0.60849929E-01 0.10691548E+03</pdfrwt>
<totfact> 0.17698051E+05</totfact>
</mgrwt>
</event>
<event>
 5    1  0.2845330E+000  0.1379153E+03  0.7546771E-02  0.1216162E+00
         21   -1    0    0  501  502  0.00000000000E+00  0.00000000000E+00  0.14084600833E+03  0.14084600833E+03  0.00000000000E+00 0. -1.
         21   -1    0    0  502  503 -0.00000000000E+00 -0.00000000000E+00 -0.37328321833E+03  0.37328321833E+03  0.00000000000E+00 0.  1.
         24    1    1    2    0    0 -0.23565189949E+02 -0.18281951940E+02 -0.62211690830E+02  0.10595781413E+03  0.80419002446E+02 0.  1.
          1    1    1    2  501    0 -0.76660886796E+02 -0.25355533347E+02  0.92993090131E+02  0.12315644298E+03  0.00000000000E+00 0. -1.
         -2    1    1    2    0  503  0.10022607674E+03  0.43637485287E+02 -0.26321860930E+03  0.28501496955E+03  0.00000000000E+00 0.  1.
<mgrwt>
<rscale>  2 0.13791529E+03</rscale>
<asrwt>0</asrwt>
<pdfrwt beam="1">  1       21 0.21668617E-01 0.13791529E+03</pdfrwt>
<pdfrwt beam="2">  1       21 0.57428186E-01 0.13791529E+03</pdfrwt>
<totfact> 0.58009073E+04</totfact>
</mgrwt>
</event>
<event>
 5    1  0.1855960E+000  0.7049868E+02  0.7546771E-02  0.1358405E+00
         21   -1    0    0  501  502  0.00000000000E+00  0.00000000000E+00  0.53165283744E+03  0.53165283744E+03  0.00000000000E+00 0. -1.
         21   -1    0    0  502  503 -0.00000000000E+00 -0.00000000000E+00 -0.31724176200E+02  0.31724176200E+02  0.00000000000E+00 0. -1.
         24    1    1    2    0    0  0.20328916341E+02  0.91731365321E+01  0.33789395974E+02  0.90035273688E+02  0.80419002446E+02 0. -1.
          1    1    1    2  501    0 -0.11328005188E+02  0.22189785658E+02  0.38615827546E+03  0.38696114016E+03  0.00000000000E+00 0. -1.
         -2    1    1    2    0  503 -0.90009111532E+01 -0.31362922190E+02  0.79980989804E+02  0.86380599789E+02  0.00000000000E+00 0.  1.
<mgrwt>
<rscale>  2 0.70498682E+02</rscale>
<asrwt>0</asrwt>
<pdfrwt beam="1">  1       21 0.81792738E-01 0.70498682E+02</pdfrwt>
<pdfrwt beam="2">  1       21 0.48806429E-02 0.70498682E+02</pdfrwt>
<totfact> 0.37497982E+05</totfact>
</mgrwt>
</event>
<event>
 5    1  0.1855960E+000  0.9320816E+02  0.7546771E-02  0.1295264E+00
         21   -1    0    0  501  502  0.00000000000E+00  0.00000000000E+00  0.59149000944E+03  0.59149000944E+03  0.00000000000E+00 0. -1.
         21   -1    0    0  502  503 -0.00000000000E+00 -0.00000000000E+00 -0.33716975095E+02  0.33716975095E+02  0.00000000000E+00 0. -1.
         24    1    1    2    0    0  0.56503119709E+02  0.37538185663E+02  0.67638547400E+02  0.12507560501E+03  0.80419002446E+02 0. -1.
          1    1    1    2  501    0 -0.46081208994E+01 -0.28082292305E+02  0.33634806690E+03  0.33754980674E+03  0.00000000000E+00 0. -1.
         -2    1    1    2    0  503 -0.51894998809E+02 -0.94558933587E+01  0.15378642004E+03  0.16258157279E+03  0.00000000000E+00 0.  1.
<mgrwt>
<rscale>  2 0.93208158E+02</rscale>
<asrwt>0</asrwt>
<pdfrwt beam="1">  1       21 0.90998455E-01 0.93208158E+02</pdfrwt>
<pdfrwt beam="2">  1       21 0.51872274E-02 0.93208158E+02</pdfrwt>
<totfact> 0.26583677E+05</totfact>
</mgrwt>
</event>
<event>
 5    1  0.1855960E+000  0.1416061E+03  0.7546771E-02  0.1211184E+00
         21   -1    0    0  501  502  0.00000000000E+00  0.00000000000E+00  0.47523846811E+03  0.47523846811E+03  0.00000000000E+00 0. -1.
         21   -1    0    0  502  503 -0.00000000000E+00 -0.00000000000E+00 -0.57145909527E+03  0.57145909527E+03  0.00000000000E+00 0. -1.
         24    1    1    2    0    0 -0.10491734785E+03 -0.65746420690E+02 -0.48517071416E+03  0.50713714077E+03  0.80419002446E+02 0. -1.
          1    1    1    2  501    0  0.15674373911E+02  0.39582876999E+02  0.43409868531E+03  0.43618133699E+03  0.00000000000E+00 0. -1.
         -2    1    1    2    0  503  0.89242973935E+02  0.26163543691E+02 -0.45148598309E+02  0.10337908562E+03  0.00000000000E+00 0.  1.
<mgrwt>
<rscale>  2 0.14160605E+03</rscale>
<asrwt>0</asrwt>
<pdfrwt beam="1">  1       21 0.73113611E-01 0.14160605E+03</pdfrwt>
<pdfrwt beam="2">  1       21 0.87916783E-01 0.14160605E+03</pdfrwt>
<totfact> 0.19656032E+03</totfact>
</mgrwt>
</event>
<event>
 5    1  0.1855960E+000  0.1020376E+03  0.7546771E-02  0.1276069E+00
         21   -1    0    0  501  502  0.00000000000E+00  0.00000000000E+00  0.18924008574E+04  0.18924008574E+04  0.00000000000E+00 0.  1.
         21   -1    0    0  502  503 -0.00000000000E+00 -0.00000000000E+00 -0.60455946294E+01  0.60455946294E+01  0.00000000000E+00 0. -1.
         24    1    1    2    0    0 -0.19343588137E+02  0.41064521123E+01  0.57247181205E+03  0.57843083329E+03  0.80419002446E+02 0. -1.
          1    1    1    2  501    0  0.21506557846E+02 -0.60817565183E+02  0.89240279431E+03  0.89473127561E+03  0.00000000000E+00 0. -1.
         -2    1    1    2    0  503 -0.21629697093E+01  0.56711113070E+02  0.42148065637E+03  0.42528434309E+03  0.00000000000E+00 0.  1.
<mgrwt>
<rscale>  2 0.10203756E+03</rscale>
<asrwt>0</asrwt>
<pdfrwt beam="1">  1       21 0.29113812E+00 0.10203756E+03</pdfrwt>
<pdfrwt beam="2">  1       21 0.93009299E-03 0.10203756E+03</pdfrwt>
<totfact> 0.17547663E+05</totfact>
</mgrwt>
</event>
<event>
 5    1  0.1855960E+000  0.9335205E+02  0.7546771E-02  0.1294931E+00
         21   -1    0    0  501  502  0.00000000000E+00  0.00000000000E+00  0.69313964450E+02  0.69313964450E+02  0.00000000000E+00 0. -1.
         21   -1    0    0  502  503 -0.00000000000E+00 -0.00000000000E+00 -0.22324667356E+03  0.22324667356E+03  0.00000000000E+00 0.  1.
         24    1    1    2    0    0 -0.28432768678E+02  0.44651483455E+02 -0.13380420746E+03  0.16484222517E+03  0.80419002446E+02 0.  1.
          1    1    1    2  501    0  0.14401518818E+02  0.19789779579E+02  0.34348982954E+02  0.42176910152E+02  0.00000000000E+00 0. -1.
         -2    1    1    2    0  503  0.14031249860E+02 -0.64441263033E+02 -0.54477484604E+02  0.85541502692E+02  0.00000000000E+00 0.  1.
<mgrwt>
<rscale>  2 0.93352050E+02</rscale>
<asrwt>0</asrwt>
<pdfrwt beam="1">  1       21 0.10663687E-01 0.93352050E+02</pdfrwt>
<pdfrwt beam="2">  1       21 0.34345642E-01 0.93352050E+02</pdfrwt>
<totfact> 0.59577008E+05</totfact>
</mgrwt>
</event>
<event>
 5    1  0.1855960E+000  0.1098736E+03  0.7546771E-02  0.1260804E+00
         21   -1    0    0  501  502  0.00000000000E+00  0.00000000000E+00  0.16464218990E+02  0.16464218990E+02  0.00000000000E+00 0. -1.
         21   -1    0    0  502  503 -0.00000000000E+00 -0.00000000000E+00 -0.25086119996E+04  0.25086119996E+04  0.00000000000E+00 0. -1.
         24    1    1    2    0    0  0.56148860402E+02  0.48730701838E+02 -0.19159819044E+04  0.19191094940E+04  0.80419002446E+02 0. -1.
          1    1    1    2  501    0 -0.74807216504E+02 -0.22652715916E+02 -0.91913473193E+02  0.12065385089E+03  0.00000000000E+00 0. -1.
         -2    1    1    2    0  503  0.18658356102E+02 -0.26077985921E+02 -0.48425240300E+03  0.48531287374E+03  0.00000000000E+00 0.  1.
<mgrwt>
<rscale>  2 0.10987355E+03</rscale>
<asrwt>0</asrwt>
<pdfrwt beam="1">  1       21 0.25329555E-02 0.10987355E+03</pdfrwt>
<pdfrwt beam="2">  1       21 0.38594050E+00 0.10987355E+03</pdfrwt>
<totfact> 0.10173212E+04</totfact>
</mgrwt>
</event>
<event>
 5    1  0.1855960E+000  0.6751982E+02  0.7546771E-02  0.1368736E+00
         21   -1    0    0  501  502  0.00000000000E+00  0.00000000000E+00  0.25152526105E+02  0.25152526105E+02  0.00000000000E+00 0.  1.
         21   -1    0    0  502  503 -0.00000000000E+00 -0.00000000000E+00 -0.19024670044E+03  0.19024670044E+03  0.00000000000E+00 0. -1.
         24    1    1    2    0    0 -0.19136584860E+02 -0.50805183538E+00 -0.12147397516E+03  0.14693403143E+03  0.80419002446E+02 0. -1.
          1    1    1    2  501    0  0.24773945305E+02  0.20152996648E+02 -0.30618379641E+02  0.44242251431E+02  0.00000000000E+00 0. -1.
         -2    1    1    2    0  503 -0.56373604445E+01 -0.19644944812E+02 -0.13001819533E+02  0.24222943682E+02  0.00000000000E+00 0.  1.
<mgrwt>
<rscale>  2 0.67519818E+02</rscale>
<asrwt>0</asrwt>
<pdfrwt beam="1">  1       21 0.38696194E-02 0.67519818E+02</pdfrwt>
<pdfrwt beam="2">  1       21 0.29268723E-01 0.67519818E+02</pdfrwt>
<totfact> 0.44002840E+06</totfact>
</mgrwt>
</event>
<event>
 5    1  0.3426206E+000  0.9974279E+02  0.7546771E-02  0.1280838E+00
         21   -1    0    0  501  502  0.00000000000E+00  0.00000000000E+00  0.16372992591E+03  0.16372992591E+03  0.00000000000E+00 0.  1.
         21   -1    0    0  502  503 -0.00000000000E+00 -0.00000000000E+00 -0.44401345258E+03  0.44401345258E+03  0.00000000000E+00 0.  1.
         24    1    1    2    0    0  0.57769954315E+01 -0.65644031718E+02  0.12720424066E+03  0.16428830565E+03  0.80419002446E+02 0.  1.
          1    1    1    2  501    0 -0.19235487636E+02 -0.78675906835E+01  0.72707302130E+01  0.22017413235E+02  0.00000000000E+00 0. -1.
         -2    1    1    2    0  503  0.13458492204E+02  0.73511622402E+02 -0.41475849755E+03  0.42143765960E+03  0.00000000000E+00 0.  1.
<mgrwt>
<rscale>  2 0.99742788E+02</rscale>
<asrwt>0</asrwt>
<pdfrwt beam="1">  1       21 0.25189220E-01 0.99742788E+02</pdfrwt>
<pdfrwt beam="2">  1       21 0.68309761E-01 0.99742788E+02</pdfrwt>
<totfact> 0.30974484E+04</totfact>
</mgrwt>
</event>
<event>
 5    1  0.1855960E+000  0.8120578E+02  0.7546771E-02  0.1325664E+00
         21   -1    0    0  501  502  0.00000000000E+00  0.00000000000E+00  0.10853685377E+02  0.10853685377E+02  0.00000000000E+00 0. -1.
         21   -1    0    0  502  503 -0.00000000000E+00 -0.00000000000E+00 -0.86966305467E+03  0.86966305467E+03  0.00000000000E+00 0.  1.
         24    1    1    2    0    0  0.51297650071E+02  0.79831858315E+00 -0.26495427711E+03  0.28160268310E+03  0.80419002446E+02 0. -1.
          1    1    1    2  501    0 -0.37333122765E+02  0.19704870847E+02 -0.20679049687E+03  0.21105533300E+03  0.00000000000E+00 0. -1.
         -2    1    1    2    0  503 -0.13964527306E+02 -0.20503189430E+02 -0.38706459532E+03  0.38785872395E+03  0.00000000000E+00 0.  1.
<mgrwt>
<rscale>  2 0.81205778E+02</rscale>
<asrwt>0</asrwt>
<pdfrwt beam="1">  1       21 0.16697972E-02 0.81205778E+02</pdfrwt>
<pdfrwt beam="2">  1       21 0.13379436E+00 0.81205778E+02</pdfrwt>
<totfact> 0.67596107E+05</totfact>
</mgrwt>
</event>
<event>
 5    1  0.1855960E+000  0.7139255E+02  0.7546771E-02  0.1355421E+00
         21   -1    0    0  503  502  0.00000000000E+00  0.00000000000E+00  0.14474107408E+03  0.14474107408E+03  0.00000000000E+00 0.  1.
         21   -1    0    0  501  503 -0.00000000000E+00 -0.00000000000E+00 -0.44195437723E+02  0.44195437723E+02  0.00000000000E+00 0.  1.
         24    1    1    2    0    0 -0.25336732360E+02  0.35612671294E+02  0.43387732290E+02  0.10129128112E+03  0.80419002446E+02 0.  1.
          1    1    1    2  501    0  0.25472514290E+02 -0.12916459652E+02  0.27490261019E+01  0.28692177657E+02  0.00000000000E+00 0. -1.
         -2    1    1    2    0  502 -0.13578192951E+00 -0.22696211642E+02  0.54408877970E+02  0.58953053030E+02  0.00000000000E+00 0.  1.
<mgrwt>
<rscale>  2 0.71392545E+02</rscale>
<asrwt>0</asrwt>
<pdfrwt beam="1">  1       21 0.22267857E-01 0.71392545E+02</pdfrwt>
<pdfrwt beam="2">  1       21 0.67992982E-02 0.71392545E+02</pdfrwt>
<totfact> 0.28903424E+06</totfact>
</mgrwt>
</event>
<event>
 5    1  0.1855960E+000  0.1127069E+03  0.7546771E-02  0.1255638E+00
         21   -1    0    0  501  502  0.00000000000E+00  0.00000000000E+00  0.53506091183E+03  0.53506091183E+03  0.00000000000E+00 0. -1.
         21   -1    0    0  502  503 -0.00000000000E+00 -0.00000000000E+00 -0.45589899591E+02  0.45589899591E+02  0.00000000000E+00 0. -1.
         24    1    1    2    0    0 -0.51254895636E+02 -0.63279310498E+02  0.23614485376E+03  0.26241749822E+03  0.80419002446E+02 0. -1.
          1    1    1    2  501    0  0.30365670056E+02  0.79121206098E+02  0.27274477997E+03  0.28560804290E+03  0.00000000000E+00 0. -1.
         -2    1    1    2    0  503  0.20889225580E+02 -0.15841895600E+02 -0.19418621483E+02  0.32625270295E+02  0.00000000000E+00 0.  1.
<mgrwt>
<rscale>  2 0.11270694E+03</rscale>
<asrwt>0</asrwt>
<pdfrwt beam="1">  1       21 0.82317059E-01 0.11270694E+03</pdfrwt>
<pdfrwt beam="2">  1       21 0.70138311E-02 0.11270694E+03</pdfrwt>
<totfact> 0.19913874E+05</totfact>
</mgrwt>
</event>
<event>
 5    1  0.1855960E+000  0.1592271E+03  0.7546771E-02  0.1189572E+00
         21   -1    0    0  501  502  0.00000000000E+00  0.00000000000E+00  0.68320128184E+02  0.68320128184E+02  0.00000000000E+00 0. -1.
         21   -1    0    0  502  503 -0.00000000000E+00 -0.00000000000E+00 -0.45006571028E+03  0.45006571028E+03  0.00000000000E+00 0. -1.
         24    1    1    2    0    0  0.66475653674E+02 -0.10142666627E+03 -0.28158053780E+03  0.31695614268E+03  0.80419002446E+02 0. -1.
          1    1    1    2  501    0 -0.10324096159E+03  0.72332701065E+02 -0.59623607857E+02  0.13944780531E+03  0.00000000000E+00 0. -1.
         -2    1    1    2    0  503  0.36765307915E+02  0.29093965207E+02 -0.40541436447E+02  0.61981890474E+02  0.00000000000E+00 0.  1.
<mgrwt>
<rscale>  2 0.15922714E+03</rscale>
<asrwt>0</asrwt>
<pdfrwt beam="1">  1       21 0.10510789E-01 0.15922714E+03</pdfrwt>
<pdfrwt beam="2">  1       21 0.69240878E-01 0.15922714E+03</pdfrwt>
<totfact> 0.14270448E+05</totfact>
</mgrwt>
</event>
<event>
 5    1  0.1855960E+000  0.1067812E+03  0.7546771E-02  0.1266649E+00
         21   -1    0    0  503  502  0.00000000000E+00  0.00000000000E+00  0.42158118646E+02  0.42158118646E+02  0.00000000000E+00 0.  1.
         21   -1    0    0  501  503 -0.00000000000E+00 -0.00000000000E+00 -0.35329070370E+03  0.35329070370E+03  0.00000000000E+00 0. -1.
         24    1    1    2    0    0  0.33082022386E+02  0.10316122403E+01 -0.42090289243E+02  0.96614144057E+02  0.80419002446E+02 0.  1.
          1    1    1    2  501    0 -0.69602397955E+02 -0.33941887621E+02 -0.19645744481E+03  0.21116835264E+03  0.00000000000E+00 0. -1.
         -2    1    1    2    0  502  0.36520375569E+02  0.32910275381E+02 -0.72584850999E+02  0.87666325644E+02  0.00000000000E+00 0.  1.
<mgrwt>
<rscale>  2 0.10678118E+03</rscale>
<asrwt>0</asrwt>
<pdfrwt beam="1">  1       21 0.64858643E-02 0.10678118E+03</pdfrwt>
<pdfrwt beam="2">  1       21 0.54352417E-01 0.10678118E+03</pdfrwt>
<totfact> 0.55691777E+05</totfact>
</mgrwt>
</event>
<event>
 5    1  0.1855960E+000  0.8779053E+02  0.7546771E-02  0.1308292E+00
         21   -1    0    0  503  502  0.00000000000E+00  0.00000000000E+00  0.66491383345E+03  0.66491383345E+03  0.00000000000E+00 0.  1.
         21   -1    0    0  501  503 -0.00000000000E+00 -0.00000000000E+00 -0.24119704105E+02  0.24119704105E+02  0.00000000000E+00 0.  1.
         24    1    1    2    0    0  0.42208221543E+02  0.91941397660E+01  0.85393079685E+02  0.12500104073E+03  0.80419002446E+02 0.  1.
          1    1    1    2  501    0  0.18445599702E+02 -0.14423628512E+02  0.52817127849E+02  0.57774823254E+02  0.00000000000E+00 0. -1.
         -2    1    1    2    0  502 -0.60653821245E+02  0.52294887457E+01  0.50258392181E+03  0.50625767357E+03  0.00000000000E+00 0.  1.
<mgrwt>
<rscale>  2 0.87790531E+02</rscale>
<asrwt>0</asrwt>
<pdfrwt beam="1">  1       21 0.10229442E+00 0.87790531E+02</pdfrwt>
<pdfrwt beam="2">  1       21 0.37107242E-02 0.87790531E+02</pdfrwt>
<totfact> 0.35414164E+05</totfact>
</mgrwt>
</event>
<event>
 5    1  0.1855960E+000  0.9950815E+02  0.7546771E-02  0.1281334E+00
         21   -1    0    0  501  502  0.00000000000E+00  0.00000000000E+00  0.10255767084E+03  0.10255767084E+03  0.00000000000E+00 0.  1.
         21   -1    0    0  502  503 -0.00000000000E+00 -0.00000000000E+00 -0.20990390888E+03  0.20990390888E+03  0.00000000000E+00 0.  1.
         24    1    1    2    0    0  0.40881912569E+02 -0.64637341932E+02  0.18831382917E+01  0.11099585088E+03  0.80419002446E+02 0.  1.
          1    1    1    2  501    0  0.66136859570E+01  0.25946739400E+02  0.35406538194E+02  0.44391407663E+02  0.00000000000E+00 0. -1.
         -2    1    1    2    0  503 -0.47495598526E+02  0.38690602531E+02 -0.14463591453E+03  0.15707432118E+03  0.00000000000E+00 0.  1.
<mgrwt>
<rscale>  2 0.99508152E+02</rscale>
<asrwt>0</asrwt>
<pdfrwt beam="1">  1       21 0.15778103E-01 0.99508152E+02</pdfrwt>
<pdfrwt beam="2">  1       21 0.32292909E-01 0.99508152E+02</pdfrwt>
<totfact> 0.33556921E+05</totfact>
</mgrwt>
</event>
<event>
 5    1  0.1855960E+000  0.9977376E+02  0.7546771E-02  0.1280772E+00
         21   -1    0    0  503  502  0.00000000000E+00  0.00000000000E+00  0.14429771966E+02  0.14429771966E+02  0.00000000000E+00 0.  1.
         21   -1    0    0  501  503 -0.00000000000E+00 -0.00000000000E+00 -0.27242357996E+04  0.27242357996E+04  0.00000000000E+00 0. -1.
         24    1    1    2    0    0  0.46808393505E+02 -0.25754407172E+02 -0.47649640101E+03  0.48617934070E+03  0.80419002446E+02 0.  0.
          1    1    1    2  501    0  0.25554123218E+02  0.15569721278E+02 -0.21019939065E+04  0.21022068909E+04  0.00000000000E+00 0. -1.
         -2    1    1    2    0  502 -0.72362516722E+02  0.10184685894E+02 -0.13131572015E+03  0.15027933994E+03  0.00000000000E+00 0.  1.
<mgrwt>
<rscale>  2 0.99773765E+02</rscale>
<asrwt>0</asrwt>
<pdfrwt beam="1">  1       21 0.22199655E-02 0.99773765E+02</pdfrwt>
<pdfrwt beam="2">  1       21 0.41911309E+00 0.99773765E+02</pdfrwt>
<totfact> 0.81199314E+03</totfact>
</mgrwt>
</event>
<event>
 5    1  0.1855960E+000  0.9085717E+02  0.7546771E-02  0.1300789E+00
         21   -1    0    0  501  502  0.00000000000E+00  0.00000000000E+00  0.68672441869E+02  0.68672441869E+02  0.00000000000E+00 0. -1.
         21   -1    0    0  502  503 -0.00000000000E+00 -0.00000000000E+00 -0.54017743717E+03  0.54017743717E+03  0.00000000000E+00 0.  1.
         24    1    1    2    0    0 -0.38919329201E+02  0.53910362868E+02 -0.97322969785E+02  0.14268853427E+03  0.80419002446E+02 0.  1.
          1    1    1    2  501    0  0.23042792043E+02 -0.20528081402E+01  0.41201709761E+02  0.47252144646E+02  0.00000000000E+00 0. -1.
         -2    1    1    2    0  503  0.15876537158E+02 -0.51857554727E+02 -0.41538373528E+03  0.41890920012E+03  0.00000000000E+00 0.  1.
<mgrwt>
<rscale>  2 0.90857172E+02</rscale>
<asrwt>0</asrwt>
<pdfrwt beam="1">  1       21 0.10564991E-01 0.90857172E+02</pdfrwt>
<pdfrwt beam="2">  1       21 0.83104219E-01 0.90857172E+02</pdfrwt>
<totfact> 0.97217697E+04</totfact>
</mgrwt>
</event>
<event>
 5    1  0.1855960E+000  0.9226817E+02  0.7546771E-02  0.1297450E+00
         21   -1    0    0  503  502  0.00000000000E+00  0.00000000000E+00  0.37785006301E+03  0.37785006301E+03  0.00000000000E+00 0.  1.
         21   -1    0    0  501  503 -0.00000000000E+00 -0.00000000000E+00 -0.78612990370E+02  0.78612990370E+02  0.00000000000E+00 0. -1.
         24    1    1    2    0    0  0.20825142536E+02  0.65689498204E+02  0.32986868970E+03  0.34645254385E+03  0.80419002446E+02 0.  1.
          1    1    1    2  501    0 -0.29636102998E+02 -0.31193192194E+02 -0.52767747367E+02  0.68086334917E+02  0.00000000000E+00 0. -1.
         -2    1    1    2    0  502  0.88109604622E+01 -0.34496306010E+02  0.22136130306E+02  0.41924174619E+02  0.00000000000E+00 0.  1.
<mgrwt>
<rscale>  2 0.92268170E+02</rscale>
<asrwt>0</asrwt>
<pdfrwt beam="1">  1       21 0.58130778E-01 0.92268170E+02</pdfrwt>
<pdfrwt beam="2">  1       21 0.12094306E-01 0.92268170E+02</pdfrwt>
<totfact> 0.16579247E+05</totfact>
</mgrwt>
</event>
<event>
 5    1  0.1855960E+000  0.2721811E+03  0.7546771E-02  0.1100038E+00
         21   -1    0    0  503  502  0.00000000000E+00  0.00000000000E+00  0.57020562387E+03  0.57020562387E+03  0.00000000000E+00 0.  1.
         21   -1    0    0  501  503 -0.00000000000E+00 -0.00000000000E+00 -0.21098203169E+03  0.21098203169E+03  0.00000000000E+00 0. -1.
         24    1    1    2    0    0  0.19548775417E+03  0.67324317550E+02 -0.67515899487E+02  0.23189143667E+03  0.80419002446E+02 0. -1.
          1    1    1    2  501    0 -0.56070177582E+01 -0.12418027501E+03  0.73954147087E+02  0.14464230094E+03  0.00000000000E+00 0. -1.
         -2    1    1    2    0  502 -0.18988073641E+03  0.56855957461E+02  0.35278534458E+03  0.40465391795E+03  0.00000000000E+00 0.  1.
<mgrwt>
<rscale>  2 0.27218105E+03</rscale>
<asrwt>0</asrwt>
<pdfrwt beam="1">  1       21 0.87723942E-01 0.27218105E+03</pdfrwt>
<pdfrwt beam="2">  1       21 0.32458774E-01 0.27218105E+03</pdfrwt>
<totfact> 0.97010570E+03</totfact>
</mgrwt>
</event>
<event>
 5    1  0.1855960E+000  0.7210798E+02  0.7546771E-02  0.1353068E+00
         21   -1    0    0  501  502  0.00000000000E+00  0.00000000000E+00  0.38935108029E+03  0.38935108029E+03  0.00000000000E+00 0.  1.
         21   -1    0    0  502  503 -0.00000000000E+00 -0.00000000000E+00 -0.20397110705E+02  0.20397110705E+02  0.00000000000E+00 0. -1.
         24    1    1    2    0    0  0.46659299581E+02  0.99202741882E+01  0.18002977620E+03  0.20286310248E+03  0.80419002446E+02 0. -1.
          1    1    1    2  501    0 -0.23865295190E+02  0.37146012568E+01  0.17544515953E+03  0.17709984353E+03  0.00000000000E+00 0. -1.
         -2    1    1    2    0  503 -0.22794004391E+02 -0.13634875445E+02  0.13479033856E+02  0.29785244976E+02  0.00000000000E+00 0.  1.
<mgrwt>
<rscale>  2 0.72107981E+02</rscale>
<asrwt>0</asrwt>
<pdfrwt beam="1">  1       21 0.59900161E-01 0.72107981E+02</pdfrwt>
<pdfrwt beam="2">  1       21 0.31380173E-02 0.72107981E+02</pdfrwt>
<totfact> 0.15045289E+06</totfact>
</mgrwt>
</event>
<event>
 5    1  0.1855960E+000  0.6122366E+02  0.7546771E-02  0.1392767E+00
         21   -1    0    0  503  502  0.00000000000E+00  0.00000000000E+00  0.42872705084E+03  0.42872705084E+03  0.00000000000E+00 0.  1.
         21   -1    0    0  501  503 -0.00000000000E+00 -0.00000000000E+00 -0.31923682384E+02  0.31923682384E+02  0.00000000000E+00 0. -1.
         24    1    1    2    0    0  0.17534265230E+01  0.49815744157E+00  0.40622965102E+02  0.90115281243E+02  0.80419002446E+02 0.  0.
          1    1    1    2  501    0  0.65293573595E+01 -0.19882882116E+02  0.91082404211E+01  0.22823705929E+02  0.00000000000E+00 0. -1.
         -2    1    1    2    0  502 -0.82827838824E+01  0.19384724674E+02  0.34707216293E+03  0.34771174605E+03  0.00000000000E+00 0.  1.
<mgrwt>
<rscale>  2 0.61223661E+02</rscale>
<asrwt>0</asrwt>
<pdfrwt beam="1">  1       21 0.65958004E-01 0.61223661E+02</pdfrwt>
<pdfrwt beam="2">  1       21 0.49113361E-02 0.61223661E+02</pdfrwt>
<totfact> 0.58964014E+05</totfact>
</mgrwt>
</event>
<event>
 5    1  0.1855960E+000  0.1129122E+03  0.7546771E-02  0.1255270E+00
         21   -1    0    0  503  502  0.00000000000E+00  0.00000000000E+00  0.36415093007E+03  0.36415093007E+03  0.00000000000E+00 0. -1.
         21   -1    0    0  501  503 -0.00000000000E+00 -0.00000000000E+00 -0.45849053602E+02  0.45849053602E+02  0.00000000000E+00 0.  1.
         24    1    1    2    0    0 -0.24337662930E+02 -0.85322153554E+01  0.10304812357E+03  0.13323382552E+03  0.80419002446E+02 0. -1.
          1    1    1    2  501    0 -0.15238003376E+02 -0.60178720415E+02  0.18719554121E+02  0.64839007119E+02  0.00000000000E+00 0. -1.
         -2    1    1    2    0  502  0.39575666306E+02  0.68710935771E+02  0.19653419878E+03  0.21192715104E+03  0.00000000000E+00 0.  1.
<mgrwt>
<rscale>  2 0.11291221E+03</rscale>
<asrwt>0</asrwt>
<pdfrwt beam="1">  1       21 0.56023218E-01 0.11291221E+03</pdfrwt>
<pdfrwt beam="2">  1       21 0.70537008E-02 0.11291221E+03</pdfrwt>
<totfact> 0.45311252E+05</totfact>
</mgrwt>
</event>
<event>
 5    1  0.1855960E+000  0.6923401E+02  0.7546771E-02  0.1362717E+00
         21   -1    0    0  501  502  0.00000000000E+00  0.00000000000E+00  0.34414717320E+02  0.34414717320E+02  0.00000000000E+00 0.  1.
         21   -1    0    0  502  503 -0.00000000000E+00 -0.00000000000E+00 -0.18162663103E+03  0.18162663103E+03  0.00000000000E+00 0. -1.
         24    1    1    2    0    0  0.17517305890E+02 -0.21433841072E+02 -0.77248979285E+02  0.11489511001E+03  0.80419002446E+02 0.  0.
          1    1    1    2  501    0 -0.19741825518E+02 -0.98448895043E+01  0.24881333476E+01  0.22200277739E+02  0.00000000000E+00 0. -1.
         -2    1    1    2    0  503  0.22245196285E+01  0.31278730576E+02 -0.72451067771E+02  0.78945960601E+02  0.00000000000E+00 0.  1.
<mgrwt>
<rscale>  2 0.69234008E+02</rscale>
<asrwt>0</asrwt>
<pdfrwt beam="1">  1       21 0.52945720E-02 0.69234008E+02</pdfrwt>
<pdfrwt beam="2">  1       21 0.27942558E-01 0.69234008E+02</pdfrwt>
<totfact> 0.28729454E+06</totfact>
</mgrwt>
</event>
<event>
 5    1  0.1855960E+000  0.1827427E+03  0.7546771E-02  0.1165175E+00
         21   -1    0    0  501  502  0.00000000000E+00  0.00000000000E+00  0.25579943222E+03  0.25579943222E+03  0.00000000000E+00 0.  1.
         21   -1    0    0  502  503 -0.00000000000E+00 -0.00000000000E+00 -0.18866044629E+03  0.18866044629E+03  0.00000000000E+00 0.  1.
         24    1    1    2    0    0 -0.84960072210E+02 -0.12665609450E+03  0.99215248819E+02  0.19892426121E+03  0.80419002446E+02 0.  1.
          1    1    1    2  501    0  0.44244381556E+02 -0.14183949176E+02  0.57348385839E+02  0.73807771080E+02  0.00000000000E+00 0. -1.
         -2    1    1    2    0  503  0.40715690655E+02  0.14084004367E+03 -0.89424648728E+02  0.17172784622E+03  0.00000000000E+00 0.  1.
<mgrwt>
<rscale>  2 0.18274268E+03</rscale>
<asrwt>0</asrwt>
<pdfrwt beam="1">  1       21 0.39353759E-01 0.18274268E+03</pdfrwt>
<pdfrwt beam="2">  1       21 0.29024684E-01 0.18274268E+03</pdfrwt>
<totfact> 0.71033127E+04</totfact>
</mgrwt>
</event>
<event>
 5    1  0.1855960E+000  0.8728128E+02  0.7546771E-02  0.1309572E+00
         21   -1    0    0  501  502  0.00000000000E+00  0.00000000000E+00  0.88561207565E+02  0.88561207565E+02  0.00000000000E+00 0. -1.
         21   -1    0    0  502  503 -0.00000000000E+00 -0.00000000000E+00 -0.95904885237E+02  0.95904885237E+02  0.00000000000E+00 0. -1.
         24    1    1    2    0    0 -0.97656056109E+01  0.37269267645E+02  0.22146249827E+01  0.89199136105E+02  0.80419002446E+02 0.  0.
          1    1    1    2  501    0  0.39557682818E+02 -0.38998083583E+02  0.13954570206E+02  0.57274696182E+02  0.00000000000E+00 0. -1.
         -2    1    1    2    0  503 -0.29792077207E+02  0.17288159384E+01 -0.23512872860E+02  0.37992260514E+02  0.00000000000E+00 0.  1.
<mgrwt>
<rscale>  2 0.87281280E+02</rscale>
<asrwt>0</asrwt>
<pdfrwt beam="1">  1       21 0.13624801E-01 0.87281280E+02</pdfrwt>
<pdfrwt beam="2">  1       21 0.14754598E-01 0.87281280E+02</pdfrwt>
<totfact> 0.18546623E+06</totfact>
</mgrwt>
</event>
<event>
 5    1  0.1855960E+000  0.7349605E+02  0.7546771E-02  0.1348593E+00
         21   -1    0    0  503  502  0.00000000000E+00  0.00000000000E+00  0.87230388473E+02  0.87230388473E+02  0.00000000000E+00 0. -1.
         21   -1    0    0  501  503 -0.00000000000E+00 -0.00000000000E+00 -0.68762070318E+02  0.68762070318E+02  0.00000000000E+00 0.  1.
         24    1    1    2    0    0  0.16471623119E+02  0.16137584203E+01  0.34591263740E+02  0.89093715076E+02  0.80419002446E+02 0. -1.
          1    1    1    2  501    0  0.22605121516E+02  0.91012531003E+01 -0.71821470938E+01  0.25404872832E+02  0.00000000000E+00 0. -1.
         -2    1    1    2    0  502 -0.39076744636E+02 -0.10715011521E+02 -0.89407984920E+01  0.41493870883E+02  0.00000000000E+00 0.  1.
<mgrwt>
<rscale>  2 0.73496049E+02</rscale>
<asrwt>0</asrwt>
<pdfrwt beam="1">  1       21 0.13420060E-01 0.73496049E+02</pdfrwt>
<pdfrwt beam="2">  1       21 0.10578780E-01 0.73496049E+02</pdfrwt>
<totfact> 0.33852487E+06</totfact>
</mgrwt>
</event>
<event>
 5    1  0.1855960E+000  0.6820271E+02  0.7546771E-02  0.1366314E+00
         21   -1    0    0  503  502  0.00000000000E+00  0.00000000000E+00  0.17011857506E+03  0.17011857506E+03  0.00000000000E+00 0.  1.
         21   -1    0    0  501  503 -0.00000000000E+00 -0.00000000000E+00 -0.50793713784E+02  0.50793713784E+02  0.00000000000E+00 0. -1.
         24    1    1    2    0    0 -0.22669680218E+02  0.36656043872E+02  0.21434646577E+02  0.93724276374E+02  0.80419002446E+02 0. -1.
          1    1    1    2  501    0  0.16566231704E+02 -0.13963498254E+02 -0.45062496371E+01  0.22129744738E+02  0.00000000000E+00 0. -1.
         -2    1    1    2    0  502  0.61034485143E+01 -0.22692545617E+02  0.10239646434E+03  0.10505826774E+03  0.00000000000E+00 0.  1.
<mgrwt>
<rscale>  2 0.68202711E+02</rscale>
<asrwt>0</asrwt>
<pdfrwt beam="1">  1       21 0.26172088E-01 0.68202711E+02</pdfrwt>
<pdfrwt beam="2">  1       21 0.78144176E-02 0.68202711E+02</pdfrwt>
<totfact> 0.16911414E+06</totfact>
</mgrwt>
</event>
<event>
 5    1  0.1855960E+000  0.1282254E+03  0.7546771E-02  0.1230113E+00
         21   -1    0    0  503  502  0.00000000000E+00  0.00000000000E+00  0.12139882701E+03  0.12139882701E+03  0.00000000000E+00 0.  1.
         21   -1    0    0  501  503 -0.00000000000E+00 -0.00000000000E+00 -0.38129866222E+03  0.38129866222E+03  0.00000000000E+00 0. -1.
         24    1    1    2    0    0  0.19984145088E+02  0.70384198120E+02  0.78054270133E+02  0.13383940541E+03  0.80419002446E+02 0.  1.
          1    1    1    2  501    0  0.46109756656E+02 -0.67276959526E+02 -0.19206351106E+03  0.20866406309E+03  0.00000000000E+00 0. -1.
         -2    1    1    2    0  502 -0.66093901744E+02 -0.31072385939E+01 -0.14589059428E+03  0.16019402074E+03  0.00000000000E+00 0.  1.
<mgrwt>
<rscale>  2 0.12822537E+03</rscale>
<asrwt>0</asrwt>
<pdfrwt beam="1">  1       21 0.18676742E-01 0.12822537E+03</pdfrwt>
<pdfrwt beam="2">  1       21 0.58661334E-01 0.12822537E+03</pdfrwt>
<totfact> 0.73371721E+04</totfact>
</mgrwt>
</event>
<event>
 5    1  0.1855960E+000  0.8262688E+02  0.7546771E-02  0.1321758E+00
         21   -1    0    0  503  502  0.00000000000E+00  0.00000000000E+00  0.74123566964E+02  0.74123566964E+02  0.00000000000E+00 0. -1.
         21   -1    0    0  501  503 -0.00000000000E+00 -0.00000000000E+00 -0.13642279468E+03  0.13642279468E+03  0.00000000000E+00 0. -1.
         24    1    1    2    0    0  0.56102822064E+02 -0.24637167165E+02 -0.71076331873E+02  0.12358631622E+03  0.80419002446E+02 0. -1.
          1    1    1    2  501    0 -0.32087087900E+02  0.37174953312E+01 -0.24767311356E+02  0.40704062368E+02  0.00000000000E+00 0. -1.
         -2    1    1    2    0  502 -0.24015734164E+02  0.20919671834E+02  0.33544415509E+02  0.46255983061E+02  0.00000000000E+00 0.  1.
<mgrwt>
<rscale>  2 0.82626882E+02</rscale>
<asrwt>0</asrwt>
<pdfrwt beam="1">  1       21 0.11403626E-01 0.82626882E+02</pdfrwt>
<pdfrwt beam="2">  1       21 0.20988122E-01 0.82626882E+02</pdfrwt>
<totfact> 0.13387107E+06</totfact>
</mgrwt>
</event>
<event>
 5    1  0.1855960E+000  0.7567038E+02  0.7546771E-02  0.1341808E+00
         21   -1    0    0  503  502  0.00000000000E+00  0.00000000000E+00  0.81527438388E+02  0.81527438388E+02  0.00000000000E+00 0.  1.
         21   -1    0    0  501  503 -0.00000000000E+00 -0.00000000000E+00 -0.15422838593E+03  0.15422838593E+03  0.00000000000E+00 0.  1.
         24    1    1    2    0    0 -0.30767915198E+02 -0.11704343240E+02 -0.10420688176E+03  0.13568325768E+03  0.80419002446E+02 0.  1.
          1    1    1    2  501    0  0.20743993343E+02 -0.21431289467E+02 -0.21496825680E+02  0.36765839339E+02  0.00000000000E+00 0. -1.
         -2    1    1    2    0  502  0.10023921855E+02  0.33135632707E+02  0.53002759894E+02  0.63306727294E+02  0.00000000000E+00 0.  1.
<mgrwt>
<rscale>  2 0.75670384E+02</rscale>
<asrwt>0</asrwt>
<pdfrwt beam="1">  1       21 0.12542683E-01 0.75670384E+02</pdfrwt>
<pdfrwt beam="2">  1       21 0.23727444E-01 0.75670384E+02</pdfrwt>
<totfact> 0.90218071E+05</totfact>
</mgrwt>
</event>
<event>
 5    1  0.1855960E+000  0.7156883E+02  0.7546771E-02  0.1354838E+00
         21   -1    0    0  503  502  0.00000000000E+00  0.00000000000E+00  0.40509165270E+02  0.40509165270E+02  0.00000000000E+00 0. -1.
         21   -1    0    0  501  503 -0.00000000000E+00 -0.00000000000E+00 -0.14086118485E+03  0.14086118485E+03  0.00000000000E+00 0. -1.
         24    1    1    2    0    0 -0.50575449657E+01  0.48422786374E+02 -0.69103669222E+02  0.11667423904E+03  0.80419002446E+02 0. -1.
          1    1    1    2  501    0 -0.11557559086E+01 -0.20093691795E+02 -0.29407140396E+02  0.35635265229E+02  0.00000000000E+00 0. -1.
         -2    1    1    2    0  502  0.62133008743E+01 -0.28329094579E+02 -0.18412099620E+01  0.29060845850E+02  0.00000000000E+00 0.  1.
<mgrwt>
<rscale>  2 0.71568833E+02</rscale>
<asrwt>0</asrwt>
<pdfrwt beam="1">  1       21 0.62321794E-02 0.71568833E+02</pdfrwt>
<pdfrwt beam="2">  1       21 0.21670951E-01 0.71568833E+02</pdfrwt>
<totfact> 0.35163542E+06</totfact>
</mgrwt>
</event>
<event>
 5    1  0.1855960E+000  0.7469808E+02  0.7546771E-02  0.1344809E+00
         21   -1    0    0  501  502  0.00000000000E+00  0.00000000000E+00  0.16530627068E+02  0.16530627068E+02  0.00000000000E+00 0. -1.
         21   -1    0    0  502  503 -0.00000000000E+00 -0.00000000000E+00 -0.55500219138E+03  0.55500219138E+03  0.00000000000E+00 0. -1.
         24    1    1    2    0    0  0.17535729254E+01 -0.38315174511E+02 -0.46844506621E+03  0.47684287100E+03  0.80419002446E+02 0. -1.
          1    1    1    2  501    0 -0.21510186107E+02  0.58446025764E+01 -0.11977122996E+02  0.25304129325E+02  0.00000000000E+00 0. -1.
         -2    1    1    2    0  503  0.19756613181E+02  0.32470571934E+02 -0.58049375110E+02  0.69385818124E+02  0.00000000000E+00 0.  1.
<mgrwt>
<rscale>  2 0.74698083E+02</rscale>
<asrwt>0</asrwt>
<pdfrwt beam="1">  1       21 0.25431734E-02 0.74698083E+02</pdfrwt>
<pdfrwt beam="2">  1       21 0.85384952E-01 0.74698083E+02</pdfrwt>
<totfact> 0.98562676E+05</totfact>
</mgrwt>
</event>
<event>
 5    1  0.1855960E+000  0.1037026E+03  0.7546771E-02  0.1272697E+00
         21   -1    0    0  501  502  0.00000000000E+00  0.00000000000E+00  0.73193213477E+02  0.73193213477E+02  0.00000000000E+00 0.  1.
         21   -1    0    0  502  503 -0.00000000000E+00 -0.00000000000E+00 -0.56323349937E+03  0.56323349937E+03  0.00000000000E+00 0.  1.
         24    1    1    2    0    0  0.75144476379E+02  0.39126680897E+02 -0.45758258955E+02  0.12545367155E+03  0.80419002446E+02 0.  1.
          1    1    1    2  501    0 -0.60313927873E+02 -0.14799745279E+02  0.35794553946E+01  0.62206228439E+02  0.00000000000E+00 0. -1.
         -2    1    1    2    0  503 -0.14830548507E+02 -0.24326935618E+02 -0.44786148233E+03  0.44876681286E+03  0.00000000000E+00 0.  1.
<mgrwt>
<rscale>  2 0.10370264E+03</rscale>
<asrwt>0</asrwt>
<pdfrwt beam="1">  1       21 0.11260495E-01 0.10370264E+03</pdfrwt>
<pdfrwt beam="2">  1       21 0.86651303E-01 0.10370264E+03</pdfrwt>
<totfact> 0.78616876E+04</totfact>
</mgrwt>
</event>
<event>
 5    1  0.1855960E+000  0.6394041E+02  0.7546771E-02  0.1382002E+00
         21   -1    0    0  501  502  0.00000000000E+00  0.00000000000E+00  0.78653984018E+01  0.78653984018E+01  0.00000000000E+00 0. -1.
         21   -1    0    0  502  503 -0.00000000000E+00 -0.00000000000E+00 -0.55922171758E+03  0.55922171758E+03  0.00000000000E+00 0.  1.
         24    1    1    2    0    0  0.89423129311E+01  0.23980584427E+02 -0.36117986305E+03  0.37090853699E+03  0.80419002446E+02 0.  0.
          1    1    1    2  501    0  0.12296178755E+02 -0.17296767990E+02 -0.51107311955E+02  0.55338336893E+02  0.00000000000E+00 0. -1.
         -2    1    1    2    0  503 -0.21238491686E+02 -0.66838164369E+01 -0.13906914418E+03  0.14084024210E+03  0.00000000000E+00 0.  1.
<mgrwt>
<rscale>  2 0.63940408E+02</rscale>
<asrwt>0</asrwt>
<pdfrwt beam="1">  1       21 0.12100614E-02 0.63940408E+02</pdfrwt>
<pdfrwt beam="2">  1       21 0.86034099E-01 0.63940408E+02</pdfrwt>
<totfact> 0.31203548E+06</totfact>
</mgrwt>
</event>
<event>
 5    1  0.1855960E+000  0.8092835E+02  0.7546771E-02  0.1326437E+00
         21   -1    0    0  501  502  0.00000000000E+00  0.00000000000E+00  0.13110801380E+03  0.13110801380E+03  0.00000000000E+00 0. -1.
         21   -1    0    0  502  503 -0.00000000000E+00 -0.00000000000E+00 -0.57833459358E+02  0.57833459358E+02  0.00000000000E+00 0.  1.
         24    1    1    2    0    0  0.13199256496E+02  0.59258736837E+02  0.19589177845E+02  0.10264877060E+03  0.80419002446E+02 0.  1.
          1    1    1    2  501    0 -0.43198498925E+01 -0.34927008721E+02  0.48424966111E+02  0.59862629278E+02  0.00000000000E+00 0. -1.
         -2    1    1    2    0  503 -0.88794066032E+01 -0.24331728116E+02  0.52604104838E+01  0.26430073272E+02  0.00000000000E+00 0.  1.
<mgrwt>
<rscale>  2 0.80928348E+02</rscale>
<asrwt>0</asrwt>
<pdfrwt beam="1">  1       21 0.20170464E-01 0.80928348E+02</pdfrwt>
<pdfrwt beam="2">  1       21 0.88974553E-02 0.80928348E+02</pdfrwt>
<totfact> 0.22093810E+06</totfact>
</mgrwt>
</event>
<event>
 5    1  0.1855960E+000  0.1532226E+03  0.7546771E-02  0.1196568E+00
         21   -1    0    0  501  502  0.00000000000E+00  0.00000000000E+00  0.70447946328E+03  0.70447946328E+03  0.00000000000E+00 0. -1.
         21   -1    0    0  502  503 -0.00000000000E+00 -0.00000000000E+00 -0.73951979803E+02  0.73951979803E+02  0.00000000000E+00 0. -1.
         24    1    1    2    0    0 -0.84838172518E+02  0.80622928930E+02  0.22527817237E+03  0.26629878536E+03  0.80419002446E+02 0. -1.
          1    1    1    2  501    0  0.11381339788E+03 -0.58370973244E+02  0.44210599472E+03  0.46023729816E+03  0.00000000000E+00 0. -1.
         -2    1    1    2    0  503 -0.28975225365E+02 -0.22251955686E+02 -0.36856683610E+02  0.51895359557E+02  0.00000000000E+00 0.  1.
<mgrwt>
<rscale>  2 0.15322265E+03</rscale>
<asrwt>0</asrwt>
<pdfrwt beam="1">  1       21 0.10838145E+00 0.15322265E+03</pdfrwt>
<pdfrwt beam="2">  1       21 0.11377228E-01 0.15322265E+03</pdfrwt>
<totfact> 0.44637929E+04</totfact>
</mgrwt>
</event>
<event>
 5    1  0.1855960E+000  0.9574398E+02  0.7546771E-02  0.1289509E+00
         21   -1    0    0  503  502  0.00000000000E+00  0.00000000000E+00  0.12088030042E+04  0.12088030042E+04  0.00000000000E+00 0.  1.
         21   -1    0    0  501  503 -0.00000000000E+00 -0.00000000000E+00 -0.10378188463E+02  0.10378188463E+02  0.00000000000E+00 0. -1.
         24    1    1    2    0    0  0.11182793624E+02 -0.23613240201E+02  0.50224375757E+03  0.50931193581E+03  0.80419002446E+02 0. -1.
          1    1    1    2  501    0  0.42389247986E+02  0.31459215276E+02  0.11934976763E+03  0.13050248122E+03  0.00000000000E+00 0. -1.
         -2    1    1    2    0  502 -0.53572041610E+02 -0.78459750749E+01  0.57683129055E+03  0.57936677565E+03  0.00000000000E+00 0.  1.
<mgrwt>
<rscale>  2 0.95743980E+02</rscale>
<asrwt>0</asrwt>
<pdfrwt beam="1">  1       21 0.18596958E+00 0.95743980E+02</pdfrwt>
<pdfrwt beam="2">  1       21 0.15966453E-02 0.95743980E+02</pdfrwt>
<totfact> 0.30725109E+05</totfact>
</mgrwt>
</event>
<event>
 5    1  0.1855960E+000  0.1076037E+03  0.7546771E-02  0.1265073E+00
         21   -1    0    0  501  502  0.00000000000E+00  0.00000000000E+00  0.32387077320E+02  0.32387077320E+02  0.00000000000E+00 0. -1.
         21   -1    0    0  502  503 -0.00000000000E+00 -0.00000000000E+00 -0.45718851461E+03  0.45718851461E+03  0.00000000000E+00 0. -1.
         24    1    1    2    0    0  0.24747535846E+02  0.78161546600E+02 -0.11004909230E+03  0.15905875194E+03  0.80419002446E+02 0. -1.
          1    1    1    2  501    0 -0.37834144781E+02 -0.24369159549E+02 -0.12504947692E+03  0.13290090340E+03  0.00000000000E+00 0. -1.
         -2    1    1    2    0  503  0.13086608935E+02 -0.53792387051E+02 -0.18970286807E+03  0.19761593659E+03  0.00000000000E+00 0.  1.
<mgrwt>
<rscale>  2 0.10760366E+03</rscale>
<asrwt>0</asrwt>
<pdfrwt beam="1">  1       21 0.49826274E-02 0.10760366E+03</pdfrwt>
<pdfrwt beam="2">  1       21 0.70336692E-01 0.10760366E+03</pdfrwt>
<totfact> 0.50205321E+05</totfact>
</mgrwt>
</event>
<event>
 5    1  0.2487898E+000  0.8088364E+02  0.7546771E-02  0.1326562E+00
         21   -1    0    0  503  502  0.00000000000E+00  0.00000000000E+00  0.46679867956E+03  0.46679867956E+03  0.00000000000E+00 0. -1.
         21   -1    0    0  501  503 -0.00000000000E+00 -0.00000000000E+00 -0.13861868262E+03  0.13861868262E+03  0.00000000000E+00 0. -1.
         24    1    1    2    0    0 -0.36694110907E+01  0.27001911951E+02  0.14825088931E+03  0.17084528077E+03  0.80419002446E+02 0. -1.
          1    1    1    2  501    0  0.15149527291E+01 -0.51871745210E+02 -0.12149627605E+03  0.13211479148E+03  0.00000000000E+00 0. -1.
         -2    1    1    2    0  502  0.21544583616E+01  0.24869833259E+02  0.30142538369E+03  0.30245728993E+03  0.00000000000E+00 0.  1.
<mgrwt>
<rscale>  2 0.80883644E+02</rscale>
<asrwt>0</asrwt>
<pdfrwt beam="1">  1       21 0.71815181E-01 0.80883644E+02</pdfrwt>
<pdfrwt beam="2">  1       21 0.21325951E-01 0.80883644E+02</pdfrwt>
<totfact> 0.38513929E+04</totfact>
</mgrwt>
</event>
<event>
 5    1  0.2246325E+000  0.1007323E+03  0.7546771E-02  0.1278764E+00
         21   -1    0    0  501  502  0.00000000000E+00  0.00000000000E+00  0.25707773710E+03  0.25707773710E+03  0.00000000000E+00 0.  1.
         21   -1    0    0  502  503 -0.00000000000E+00 -0.00000000000E+00 -0.13343891894E+03  0.13343891894E+03  0.00000000000E+00 0.  1.
         24    1    1    2    0    0  0.12346207531E+02  0.67467284258E+02  0.19554504822E+03  0.22228212957E+03  0.80419002446E+02 0.  1.
          1    1    1    2  501    0 -0.19527521969E+02  0.71589336820E+01  0.33171922845E+02  0.39152917017E+02  0.00000000000E+00 0. -1.
         -2    1    1    2    0  503  0.71813144376E+01 -0.74626217940E+02 -0.10507815291E+03  0.12908160946E+03  0.00000000000E+00 0.  1.
<mgrwt>
<rscale>  2 0.10073230E+03</rscale>
<asrwt>0</asrwt>
<pdfrwt beam="1">  1       21 0.39550421E-01 0.10073230E+03</pdfrwt>
<pdfrwt beam="2">  1       21 0.20529065E-01 0.10073230E+03</pdfrwt>
<totfact> 0.13981697E+05</totfact>
</mgrwt>
</event>
<event>
 5    1  0.1855960E+000  0.9189054E+02  0.7546771E-02  0.1298337E+00
         21   -1    0    0  503  502  0.00000000000E+00  0.00000000000E+00  0.10423655558E+03  0.10423655558E+03  0.00000000000E+00 0.  1.
         21   -1    0    0  501  503 -0.00000000000E+00 -0.00000000000E+00 -0.40710004274E+03  0.40710004274E+03  0.00000000000E+00 0.  1.
         24    1    1    2    0    0 -0.53982861168E+02  0.29063401051E+02 -0.19688685653E+03  0.22133793350E+03  0.80419002446E+02 0.  1.
          1    1    1    2  501    0  0.15917164663E+02 -0.40000750650E+02 -0.19121856731E+03  0.19600499144E+03  0.00000000000E+00 0. -1.
         -2    1    1    2    0  502  0.38065696504E+02  0.10937349599E+02  0.85241936682E+02  0.93993673382E+02  0.00000000000E+00 0.  1.
<mgrwt>
<rscale>  2 0.91890540E+02</rscale>
<asrwt>0</asrwt>
<pdfrwt beam="1">  1       21 0.16036394E-01 0.91890540E+02</pdfrwt>
<pdfrwt beam="2">  1       21 0.62630774E-01 0.91890540E+02</pdfrwt>
<totfact> 0.85876998E+04</totfact>
</mgrwt>
</event>
<event>
 5    1  0.1855960E+000  0.7458557E+02  0.7546771E-02  0.1345159E+00
         21   -1    0    0  503  502  0.00000000000E+00  0.00000000000E+00  0.89082342390E+02  0.89082342390E+02  0.00000000000E+00 0.  1.
         21   -1    0    0  501  503 -0.00000000000E+00 -0.00000000000E+00 -0.98334687535E+02  0.98334687535E+02  0.00000000000E+00 0.  1.
         24    1    1    2    0    0  0.21311767070E+02 -0.42908639753E+02 -0.39654318580E+02  0.10166131869E+03  0.80419002446E+02 0.  1.
          1    1    1    2  501    0 -0.20193655662E+01  0.34430229331E+02 -0.13516302916E+02  0.37043339126E+02  0.00000000000E+00 0. -1.
         -2    1    1    2    0  502 -0.19292401504E+02  0.84784104222E+01  0.43918276351E+02  0.48712372111E+02  0.00000000000E+00 0.  1.
<mgrwt>
<rscale>  2 0.74585574E+02</rscale>
<asrwt>0</asrwt>
<pdfrwt beam="1">  1       21 0.13704976E-01 0.74585574E+02</pdfrwt>
<pdfrwt beam="2">  1       21 0.15128413E-01 0.74585574E+02</pdfrwt>
<totfact> 0.17445876E+06</totfact>
</mgrwt>
</event>
<event>
 5    1  0.1855960E+000  0.6447286E+02  0.7546771E-02  0.1379965E+00
         21   -1    0    0  501  502  0.00000000000E+00  0.00000000000E+00  0.10708897549E+03  0.10708897549E+03  0.00000000000E+00 0. -1.
         21   -1    0    0  502  503 -0.00000000000E+00 -0.00000000000E+00 -0.69517806178E+02  0.69517806178E+02  0.00000000000E+00 0.  1.
         24    1    1    2    0    0  0.15729092065E+02  0.41903075975E+01 -0.33650619502E+02  0.88682259568E+02  0.80419002446E+02 0.  0.
          1    1    1    2  501    0  0.59371864564E+01 -0.19488622187E+02  0.49883980436E+02  0.53883838782E+02  0.00000000000E+00 0. -1.
         -2    1    1    2    0  503 -0.21666278521E+02  0.15298314589E+02  0.21337808376E+02  0.34040683314E+02  0.00000000000E+00 0.  1.
<mgrwt>
<rscale>  2 0.64472864E+02</rscale>
<asrwt>0</asrwt>
<pdfrwt beam="1">  1       21 0.16475227E-01 0.64472864E+02</pdfrwt>
<pdfrwt beam="2">  1       21 0.10695047E-01 0.64472864E+02</pdfrwt>
<totfact> 0.22923340E+06</totfact>
</mgrwt>
</event>
<event>
 5    1  0.1855960E+000  0.7111463E+02  0.7546771E-02  0.1356343E+00
         21   -1    0    0  503  502  0.00000000000E+00  0.00000000000E+00  0.29272077781E+02  0.29272077781E+02  0.00000000000E+00 0. -1.
         21   -1    0    0  501  503 -0.00000000000E+00 -0.00000000000E+00 -0.46824313614E+03  0.46824313614E+03  0.00000000000E+00 0. -1.
         24    1    1    2    0    0 -0.23210701494E+02  0.40110261919E+02 -0.43148310757E+03  0.44135298554E+03  0.80419002446E+02 0. -1.
          1    1    1    2  501    0  0.46355916620E+01 -0.25119920812E+02 -0.16764101271E+02  0.30553792287E+02  0.00000000000E+00 0. -1.
         -2    1    1    2    0  502  0.18575109832E+02 -0.14990341107E+02  0.92761504747E+01  0.25608436098E+02  0.00000000000E+00 0.  1.
<mgrwt>
<rscale>  2 0.71114633E+02</rscale>
<asrwt>0</asrwt>
<pdfrwt beam="1">  1       21 0.45033967E-02 0.71114633E+02</pdfrwt>
<pdfrwt beam="2">  1       21 0.72037404E-01 0.71114633E+02</pdfrwt>
<totfact> 0.56438667E+05</totfact>
</mgrwt>
</event>
<event>
 5    1  0.1855960E+000  0.1203890E+03  0.7546771E-02  0.1242457E+00
         21   -1    0    0  501  502  0.00000000000E+00  0.00000000000E+00  0.44920177834E+03  0.44920177834E+03  0.00000000000E+00 0. -1.
         21   -1    0    0  502  503 -0.00000000000E+00 -0.00000000000E+00 -0.49953339664E+02  0.49953339664E+02  0.00000000000E+00 0.  1.
         24    1    1    2    0    0  0.62746250748E+02  0.19137683491E+02  0.25941860751E+03  0.27940753889E+03  0.80419002446E+02 0. -1.
          1    1    1    2  501    0 -0.96825411222E+02 -0.29767962570E+02  0.15145093474E+03  0.18220504243E+03  0.00000000000E+00 0. -1.
         -2    1    1    2    0  503  0.34079160474E+02  0.10630279079E+02 -0.11621103577E+02  0.37542536679E+02  0.00000000000E+00 0.  1.
<mgrwt>
<rscale>  2 0.12038898E+03</rscale>
<asrwt>0</asrwt>
<pdfrwt beam="1">  1       21 0.69107963E-01 0.12038898E+03</pdfrwt>
<pdfrwt beam="2">  1       21 0.76851295E-02 0.12038898E+03</pdfrwt>
<totfact> 0.24983571E+05</totfact>
</mgrwt>
</event>
<event>
 5    1  0.1855960E+000  0.7046853E+02  0.7546771E-02  0.1358507E+00
         21   -1    0    0  503  502  0.00000000000E+00  0.00000000000E+00  0.22369819897E+03  0.22369819897E+03  0.00000000000E+00 0.  1.
         21   -1    0    0  501  503 -0.00000000000E+00 -0.00000000000E+00 -0.32844257144E+02  0.32844257144E+02  0.00000000000E+00 0.  1.
         24    1    1    2    0    0  0.13214717703E+02  0.41235840323E+02  0.12247010210E+03  0.15277815666E+03  0.80419002446E+02 0.  1.
          1    1    1    2  501    0 -0.16279949275E+02 -0.12048822165E+02 -0.81229421104E+01  0.21821848054E+02  0.00000000000E+00 0. -1.
         -2    1    1    2    0  502  0.30652315723E+01 -0.29187018158E+02  0.76506781840E+02  0.81942451398E+02  0.00000000000E+00 0.  1.
<mgrwt>
<rscale>  2 0.70468528E+02</rscale>
<asrwt>0</asrwt>
<pdfrwt beam="1">  1       21 0.34415107E-01 0.70468528E+02</pdfrwt>
<pdfrwt beam="2">  1       21 0.50529628E-02 0.70468528E+02</pdfrwt>
<totfact> 0.20902577E+06</totfact>
</mgrwt>
</event>
<event>
 5    1  0.1855960E+000  0.8414876E+02  0.7546771E-02  0.1317674E+00
         21   -1    0    0  501  502  0.00000000000E+00  0.00000000000E+00  0.42492449828E+03  0.42492449828E+03  0.00000000000E+00 0. -1.
         21   -1    0    0  502  503 -0.00000000000E+00 -0.00000000000E+00 -0.43452321328E+02  0.43452321328E+02  0.00000000000E+00 0.  1.
         24    1    1    2    0    0 -0.47190681400E+02 -0.38983920119E+02  0.29065577432E+03  0.30772504210E+03  0.80419002446E+02 0.  0.
          1    1    1    2  501    0  0.34047981344E+02  0.10122873304E+02  0.11526174865E+03  0.12061097919E+03  0.00000000000E+00 0. -1.
         -2    1    1    2    0  503  0.13142700056E+02  0.28861046815E+02 -0.24445346019E+02  0.40040798319E+02  0.00000000000E+00 0.  1.
<mgrwt>
<rscale>  2 0.84148761E+02</rscale>
<asrwt>0</asrwt>
<pdfrwt beam="1">  1       21 0.65372997E-01 0.84148761E+02</pdfrwt>
<pdfrwt beam="2">  1       21 0.66849728E-02 0.84148761E+02</pdfrwt>
<totfact> 0.35960110E+05</totfact>
</mgrwt>
</event>
<event>
 5    1  0.1855960E+000  0.7014202E+02  0.7546771E-02  0.1359611E+00
         21   -1    0    0  501  502  0.00000000000E+00  0.00000000000E+00  0.37127813104E+03  0.37127813104E+03  0.00000000000E+00 0.  1.
         21   -1    0    0  502  503 -0.00000000000E+00 -0.00000000000E+00 -0.21909478700E+02  0.21909478700E+02  0.00000000000E+00 0.  1.
         24    1    1    2    0    0 -0.21752556945E+02 -0.11150243898E+01  0.29591590523E+03  0.30742130040E+03  0.80419002446E+02 0.  1.
          1    1    1    2  501    0  0.16327634759E+01  0.25387783950E+02  0.47207954203E+02  0.53626452712E+02  0.00000000000E+00 0. -1.
         -2    1    1    2    0  503  0.20119793469E+02 -0.24272759560E+02  0.62447929029E+01  0.32139856632E+02  0.00000000000E+00 0.  1.
<mgrwt>
<rscale>  2 0.70142016E+02</rscale>
<asrwt>0</asrwt>
<pdfrwt beam="1">  1       21 0.57119708E-01 0.70142016E+02</pdfrwt>
<pdfrwt beam="2">  1       21 0.33706893E-02 0.70142016E+02</pdfrwt>
<totfact> 0.14774154E+06</totfact>
</mgrwt>
</event>
<event>
 5    1  0.1855960E+000  0.8696630E+02  0.7546771E-02  0.1310369E+00
         21   -1    0    0  503  502  0.00000000000E+00  0.00000000000E+00  0.14582130759E+02  0.14582130759E+02  0.00000000000E+00 0.  1.
         21   -1    0    0  501  503 -0.00000000000E+00 -0.00000000000E+00 -0.86983882574E+03  0.86983882574E+03  0.00000000000E+00 0. -1.
         24    1    1    2    0    0 -0.51836299809E+02 -0.44334172265E+02 -0.23855817307E+03  0.26082511134E+03  0.80419002446E+02 0.  1.
          1    1    1    2  501    0  0.17458428737E+02  0.11239443328E+02 -0.44228876709E+03  0.44277587481E+03  0.00000000000E+00 0. -1.
         -2    1    1    2    0  502  0.34377871072E+02  0.33094728937E+02 -0.17440975481E+03  0.18081997034E+03  0.00000000000E+00 0.  1.
<mgrwt>
<rscale>  2 0.86966298E+02</rscale>
<asrwt>0</asrwt>
<pdfrwt beam="1">  1       21 0.22434052E-02 0.86966298E+02</pdfrwt>
<pdfrwt beam="2">  1       21 0.13382133E+00 0.86966298E+02</pdfrwt>
<totfact> 0.42141829E+05</totfact>
</mgrwt>
</event>
<event>
 5    1  0.1855960E+000  0.7490521E+02  0.7546771E-02  0.1344165E+00
         21   -1    0    0  501  502  0.00000000000E+00  0.00000000000E+00  0.69825402569E+03  0.69825402569E+03  0.00000000000E+00 0. -1.
         21   -1    0    0  502  503 -0.00000000000E+00 -0.00000000000E+00 -0.25673942145E+02  0.25673942145E+02  0.00000000000E+00 0.  1.
         24    1    1    2    0    0  0.87512674682E+01 -0.21835291603E+02  0.33845202480E+03  0.34866940457E+03  0.80419002446E+02 0.  0.
          1    1    1    2  501    0 -0.35360994722E+02  0.90558631233E+01  0.34260669287E+03  0.34454572208E+03  0.00000000000E+00 0. -1.
         -2    1    1    2    0  503  0.26609727254E+02  0.12779428479E+02 -0.84786341224E+01  0.30712841181E+02  0.00000000000E+00 0.  1.
<mgrwt>
<rscale>  2 0.74905208E+02</rscale>
<asrwt>0</asrwt>
<pdfrwt beam="1">  1       21 0.10742368E+00 0.74905208E+02</pdfrwt>
<pdfrwt beam="2">  1       21 0.39498378E-02 0.74905208E+02</pdfrwt>
<totfact> 0.28617181E+05</totfact>
</mgrwt>
</event>
<event>
 5    1  0.1855960E+000  0.7650358E+02  0.7546771E-02  0.1339277E+00
         21   -1    0    0  503  502  0.00000000000E+00  0.00000000000E+00  0.10161815148E+03  0.10161815148E+03  0.00000000000E+00 0. -1.
         21   -1    0    0  501  503 -0.00000000000E+00 -0.00000000000E+00 -0.74465505751E+02  0.74465505751E+02  0.00000000000E+00 0.  1.
         24    1    1    2    0    0  0.25603614467E+02  0.42970152021E+02  0.98494748719E+01  0.95216632728E+02  0.80419002446E+02 0.  1.
          1    1    1    2  501    0 -0.27365716160E+02 -0.16882740008E+02 -0.18066323355E+02  0.36882263633E+02  0.00000000000E+00 0. -1.
         -2    1    1    2    0  502  0.17621016932E+01 -0.26087412014E+02  0.35369494208E+02  0.43984760866E+02  0.00000000000E+00 0.  1.
<mgrwt>
<rscale>  2 0.76503575E+02</rscale>
<asrwt>0</asrwt>
<pdfrwt beam="1">  1       21 0.15633562E-01 0.76503575E+02</pdfrwt>
<pdfrwt beam="2">  1       21 0.11456232E-01 0.76503575E+02</pdfrwt>
<totfact> 0.22549670E+06</totfact>
</mgrwt>
</event>
<event>
 5    1  0.2553406E+000  0.8478424E+02  0.7546771E-02  0.1315998E+00
         21   -1    0    0  501  502  0.00000000000E+00  0.00000000000E+00  0.15669209673E+03  0.15669209673E+03  0.00000000000E+00 0.  1.
         21   -1    0    0  502  503 -0.00000000000E+00 -0.00000000000E+00 -0.35210942317E+03  0.35210942317E+03  0.00000000000E+00 0.  1.
         24    1    1    2    0    0  0.15681376770E+02  0.12594703895E+02  0.13496819927E+03  0.15839243326E+03  0.80419002446E+02 0.  1.
          1    1    1    2  501    0  0.33407601744E+02  0.64392070155E+01 -0.29740660380E+02  0.45188915910E+02  0.00000000000E+00 0. -1.
         -2    1    1    2    0  503 -0.49088978513E+02 -0.19033910911E+02 -0.30064486533E+03  0.30522017074E+03  0.00000000000E+00 0.  1.
<mgrwt>
<rscale>  2 0.84784236E+02</rscale>
<asrwt>0</asrwt>
<pdfrwt beam="1">  1       21 0.24106477E-01 0.84784236E+02</pdfrwt>
<pdfrwt beam="2">  1       21 0.54170680E-01 0.84784236E+02</pdfrwt>
<totfact> 0.55484977E+04</totfact>
</mgrwt>
</event>
<event>
 5    1  0.1855960E+000  0.6334885E+02  0.7546771E-02  0.1384292E+00
         21   -1    0    0  503  502  0.00000000000E+00  0.00000000000E+00  0.10772519396E+03  0.10772519396E+03  0.00000000000E+00 0. -1.
         21   -1    0    0  501  503 -0.00000000000E+00 -0.00000000000E+00 -0.59050432670E+02  0.59050432670E+02  0.00000000000E+00 0. -1.
         24    1    1    2    0    0 -0.14041295359E+01 -0.19552558912E+01  0.77207027638E+02  0.11150755883E+03  0.80419002446E+02 0. -1.
          1    1    1    2  501    0 -0.22395309807E+02  0.55806409126E+00 -0.19738604381E+02  0.29857559173E+02  0.00000000000E+00 0. -1.
         -2    1    1    2    0  502  0.23799439343E+02  0.13971918000E+01 -0.87936619654E+01  0.25410508628E+02  0.00000000000E+00 0.  1.
<mgrwt>
<rscale>  2 0.63348850E+02</rscale>
<asrwt>0</asrwt>
<pdfrwt beam="1">  1       21 0.16573107E-01 0.63348850E+02</pdfrwt>
<pdfrwt beam="2">  1       21 0.90846819E-02 0.63348850E+02</pdfrwt>
<totfact> 0.29971927E+06</totfact>
</mgrwt>
</event>
<event>
 5    1  0.1855960E+000  0.7389802E+02  0.7546771E-02  0.1347318E+00
         21   -1    0    0  501  502  0.00000000000E+00  0.00000000000E+00  0.14750218803E+03  0.14750218803E+03  0.00000000000E+00 0.  1.
         21   -1    0    0  502  503 -0.00000000000E+00 -0.00000000000E+00 -0.92338492949E+02  0.92338492949E+02  0.00000000000E+00 0. -1.
         24    1    1    2    0    0 -0.16360975828E+02  0.33273197811E+02 -0.52703788508E+02  0.10305189227E+03  0.80419002446E+02 0. -1.
          1    1    1    2  501    0  0.23860694681E+02  0.12685731118E+01  0.96866227473E+02  0.99769775249E+02  0.00000000000E+00 0. -1.
         -2    1    1    2    0  503 -0.74997188525E+01 -0.34541770923E+02  0.11001256112E+02  0.37019013458E+02  0.00000000000E+00 0.  1.
<mgrwt>
<rscale>  2 0.73898022E+02</rscale>
<asrwt>0</asrwt>
<pdfrwt beam="1">  1       21 0.22692644E-01 0.73898022E+02</pdfrwt>
<pdfrwt beam="2">  1       21 0.14205922E-01 0.73898022E+02</pdfrwt>
<totfact> 0.78644791E+05</totfact>
</mgrwt>
</event>
<event>
 5    1  0.1855960E+000  0.1196654E+03  0.7546771E-02  0.1243650E+00
         21   -1    0    0  501  502  0.00000000000E+00  0.00000000000E+00  0.10443304423E+03  0.10443304423E+03  0.00000000000E+00 0.  1.
         21   -1    0    0  502  503 -0.00000000000E+00 -0.00000000000E+00 -0.18366543454E+03  0.18366543454E+03  0.00000000000E+00 0. -1.
         24    1    1    2    0    0  0.86849364548E+01  0.29092961348E+02 -0.33519345654E+02  0.92263703636E+02  0.80419002446E+02 0.  1.
          1    1    1    2  501    0 -0.54403633984E+02 -0.72289115761E+02  0.31902409833E+02  0.95933494679E+02  0.00000000000E+00 0. -1.
         -2    1    1    2    0  503  0.45718697529E+02  0.43196154413E+02 -0.77615454494E+02  0.99901280453E+02  0.00000000000E+00 0.  1.
<mgrwt>
<rscale>  2 0.11966537E+03</rscale>
<asrwt>0</asrwt>
<pdfrwt beam="1">  1       21 0.16066622E-01 0.11966537E+03</pdfrwt>
<pdfrwt beam="2">  1       21 0.28256220E-01 0.11966537E+03</pdfrwt>
<totfact> 0.41873366E+05</totfact>
</mgrwt>
</event>
<event>
 5    1  0.1855960E+000  0.1386070E+03  0.7546771E-02  0.1215216E+00
         21   -1    0    0  503  502  0.00000000000E+00  0.00000000000E+00  0.21890112670E+03  0.21890112670E+03  0.00000000000E+00 0. -1.
         21   -1    0    0  501  503 -0.00000000000E+00 -0.00000000000E+00 -0.15135040842E+03  0.15135040842E+03  0.00000000000E+00 0. -1.
         24    1    1    2    0    0  0.57846433364E+01  0.14584149593E+02  0.13576494242E+03  0.15857331132E+03  0.80419002446E+02 0. -1.
          1    1    1    2  501    0 -0.10016301784E+03 -0.31758005336E+01 -0.58695884284E+02  0.11613751627E+03  0.00000000000E+00 0. -1.
         -2    1    1    2    0  502  0.94378374507E+02 -0.11408349060E+02 -0.95183398537E+01  0.95540707535E+02  0.00000000000E+00 0.  1.
<mgrwt>
<rscale>  2 0.13860697E+03</rscale>
<asrwt>0</asrwt>
<pdfrwt beam="1">  1       21 0.33677096E-01 0.13860697E+03</pdfrwt>
<pdfrwt beam="2">  1       21 0.23284678E-01 0.13860697E+03</pdfrwt>
<totfact> 0.14983927E+05</totfact>
</mgrwt>
</event>
<event>
 5    1  0.1855960E+000  0.7087005E+02  0.7546771E-02  0.1357159E+00
         21   -1    0    0  503  502  0.00000000000E+00  0.00000000000E+00  0.99833612652E+02  0.99833612652E+02  0.00000000000E+00 0. -1.
         21   -1    0    0  501  503 -0.00000000000E+00 -0.00000000000E+00 -0.61926543189E+02  0.61926543189E+02  0.00000000000E+00 0.  1.
         24    1    1    2    0    0 -0.37518922652E-02 -0.13962814908E+02  0.52614353526E+02  0.97110485354E+02  0.80419002446E+02 0.  0.
          1    1    1    2  501    0  0.15099073295E+02 -0.18759780135E+02 -0.15439261298E+02  0.28605631517E+02  0.00000000000E+00 0. -1.
         -2    1    1    2    0  502 -0.15095321402E+02  0.32722595043E+02  0.73197723445E+00  0.36044038970E+02  0.00000000000E+00 0.  1.
<mgrwt>
<rscale>  2 0.70870055E+02</rscale>
<asrwt>0</asrwt>
<pdfrwt beam="1">  1       21 0.15359017E-01 0.70870055E+02</pdfrwt>
<pdfrwt beam="2">  1       21 0.95271605E-02 0.70870055E+02</pdfrwt>
<totfact> 0.31861811E+06</totfact>
</mgrwt>
</event>
<event>
 5    1  0.1855960E+000  0.6701606E+02  0.7546771E-02  0.1370544E+00
         21   -1    0    0  501  502  0.00000000000E+00  0.00000000000E+00  0.38046720230E+03  0.38046720230E+03  0.00000000000E+00 0.  1.
         21   -1    0    0  502  503 -0.00000000000E+00 -0.00000000000E+00 -0.49985890948E+02  0.49985890948E+02  0.00000000000E+00 0.  1.
         24    1    1    2    0    0 -0.22102124997E+02 -0.33940470038E+01  0.24895613450E+03  0.26257645809E+03  0.80419002446E+02 0.  1.
          1    1    1    2  501    0 -0.12575950534E+01  0.21170463957E+02  0.11866033035E+03  0.12054063252E+03  0.00000000000E+00 0. -1.
         -2    1    1    2    0  503  0.23359720051E+02 -0.17776416954E+02 -0.37135153496E+02  0.47336002638E+02  0.00000000000E+00 0.  1.
<mgrwt>
<rscale>  2 0.67016060E+02</rscale>
<asrwt>0</asrwt>
<pdfrwt beam="1">  1       21 0.58533414E-01 0.67016060E+02</pdfrwt>
<pdfrwt beam="2">  1       21 0.76901373E-02 0.67016060E+02</pdfrwt>
<totfact> 0.35864030E+05</totfact>
</mgrwt>
</event>
<event>
 5    1  0.1855960E+000  0.9876310E+02  0.7546771E-02  0.1282919E+00
         21   -1    0    0  501  502  0.00000000000E+00  0.00000000000E+00  0.27546613741E+03  0.27546613741E+03  0.00000000000E+00 0.  1.
         21   -1    0    0  502  503 -0.00000000000E+00 -0.00000000000E+00 -0.11653501604E+03  0.11653501604E+03  0.00000000000E+00 0.  1.
         24    1    1    2    0    0  0.20974828900E+02  0.63934874942E+02  0.74489231013E+02  0.12862143357E+03  0.80419002446E+02 0.  1.
          1    1    1    2  501    0 -0.28615430357E+02 -0.33969652864E+00  0.16102110329E+03  0.16354434858E+03  0.00000000000E+00 0. -1.
         -2    1    1    2    0  503  0.76406014571E+01 -0.63595178414E+02 -0.76579212943E+02  0.99835371302E+02  0.00000000000E+00 0.  1.
<mgrwt>
<rscale>  2 0.98763096E+02</rscale>
<asrwt>0</asrwt>
<pdfrwt beam="1">  1       21 0.42379405E-01 0.98763096E+02</pdfrwt>
<pdfrwt beam="2">  1       21 0.17928464E-01 0.98763096E+02</pdfrwt>
<totfact> 0.15621472E+05</totfact>
</mgrwt>
</event>
<event>
 5    1  0.1855960E+000  0.7573158E+02  0.7546771E-02  0.1341620E+00
         21   -1    0    0  501  502  0.00000000000E+00  0.00000000000E+00  0.24956736676E+02  0.24956736676E+02  0.00000000000E+00 0. -1.
         21   -1    0    0  502  503 -0.00000000000E+00 -0.00000000000E+00 -0.31268595270E+03  0.31268595270E+03  0.00000000000E+00 0. -1.
         24    1    1    2    0    0  0.37772087540E+02 -0.35456539480E+02 -0.15564706067E+03  0.18269406186E+03  0.80419002446E+02 0. -1.
          1    1    1    2  501    0 -0.11847976709E+02  0.25341058243E+02 -0.99570739768E+01  0.29693216518E+02  0.00000000000E+00 0. -1.
         -2    1    1    2    0  503 -0.25924110832E+02  0.10115481236E+02 -0.12212508137E+03  0.12525541099E+03  0.00000000000E+00 0.  1.
<mgrwt>
<rscale>  2 0.75731581E+02</rscale>
<asrwt>0</asrwt>
<pdfrwt beam="1">  1       21 0.38394981E-02 0.75731581E+02</pdfrwt>
<pdfrwt beam="2">  1       21 0.48105529E-01 0.75731581E+02</pdfrwt>
<totfact> 0.17022506E+06</totfact>
</mgrwt>
</event>
<event>
 5    1  0.1855960E+000  0.8006142E+02  0.7546771E-02  0.1328877E+00
         21   -1    0    0  501  502  0.00000000000E+00  0.00000000000E+00  0.26055271392E+02  0.26055271392E+02  0.00000000000E+00 0.  1.
         21   -1    0    0  502  503 -0.00000000000E+00 -0.00000000000E+00 -0.52449103462E+03  0.52449103462E+03  0.00000000000E+00 0. -1.
         24    1    1    2    0    0  0.10437301063E+02 -0.39567438704E+02 -0.37659739321E+03  0.38725615810E+03  0.80419002446E+02 0. -1.
          1    1    1    2  501    0 -0.33927915694E+02  0.20537504984E+02 -0.20138912487E+01  0.39710808759E+02  0.00000000000E+00 0. -1.
         -2    1    1    2    0  503  0.23490614631E+02  0.19029933720E+02 -0.11982447877E+03  0.12357933916E+03  0.00000000000E+00 0.  1.
<mgrwt>
<rscale>  2 0.80061419E+02</rscale>
<asrwt>0</asrwt>
<pdfrwt beam="1">  1       21 0.40085033E-02 0.80061419E+02</pdfrwt>
<pdfrwt beam="2">  1       21 0.80690929E-01 0.80061419E+02</pdfrwt>
<totfact> 0.53392915E+05</totfact>
</mgrwt>
</event>
<event>
 5    1  0.1855960E+000  0.7672671E+02  0.7546771E-02  0.1338606E+00
         21   -1    0    0  501  502  0.00000000000E+00  0.00000000000E+00  0.29238192808E+02  0.29238192808E+02  0.00000000000E+00 0. -1.
         21   -1    0    0  502  503 -0.00000000000E+00 -0.00000000000E+00 -0.42575202424E+03  0.42575202424E+03  0.00000000000E+00 0.  1.
         24    1    1    2    0    0 -0.37724207090E+01  0.45061894573E+02 -0.13933785648E+03  0.16711391236E+03  0.80419002446E+02 0.  0.
          1    1    1    2  501    0  0.21997410405E+02 -0.31741849581E+02 -0.10298059723E+02  0.39968501515E+02  0.00000000000E+00 0. -1.
         -2    1    1    2    0  503 -0.18224989696E+02 -0.13320044992E+02 -0.24687791523E+03  0.24790780318E+03  0.00000000000E+00 0.  1.
<mgrwt>
<rscale>  2 0.76726705E+02</rscale>
<asrwt>0</asrwt>
<pdfrwt beam="1">  1       21 0.44981838E-02 0.76726705E+02</pdfrwt>
<pdfrwt beam="2">  1       21 0.65500307E-01 0.76726705E+02</pdfrwt>
<totfact> 0.69332884E+05</totfact>
</mgrwt>
</event>
<event>
 5    1  0.1855960E+000  0.1217039E+03  0.7546771E-02  0.1240312E+00
         21   -1    0    0  501  502  0.00000000000E+00  0.00000000000E+00  0.78377086151E+03  0.78377086151E+03  0.00000000000E+00 0. -1.
         21   -1    0    0  502  503 -0.00000000000E+00 -0.00000000000E+00 -0.25926294294E+02  0.25926294294E+02  0.00000000000E+00 0. -1.
         24    1    1    2    0    0 -0.41058721138E+01  0.22741089204E+02  0.21451089024E+03  0.23025236874E+03  0.80419002446E+02 0.  0.
          1    1    1    2  501    0 -0.55432020613E+02 -0.65963354822E+02  0.46119217148E+03  0.46917170857E+03  0.00000000000E+00 0. -1.
         -2    1    1    2    0  503  0.59537892727E+02  0.43222265618E+02  0.82141505499E+02  0.11027307850E+03  0.00000000000E+00 0.  1.
<mgrwt>
<rscale>  2 0.12170392E+03</rscale>
<asrwt>0</asrwt>
<pdfrwt beam="1">  1       21 0.12058011E+00 0.12170392E+03</pdfrwt>
<pdfrwt beam="2">  1       21 0.39886613E-02 0.12170392E+03</pdfrwt>
<totfact> 0.21050064E+05</totfact>
</mgrwt>
</event>
<event>
 5    1  0.1855960E+000  0.1100085E+03  0.7546771E-02  0.1260554E+00
         21   -1    0    0  501  502  0.00000000000E+00  0.00000000000E+00  0.44607949229E+03  0.44607949229E+03  0.00000000000E+00 0. -1.
         21   -1    0    0  502  503 -0.00000000000E+00 -0.00000000000E+00 -0.34507733985E+03  0.34507733985E+03  0.00000000000E+00 0.  1.
         24    1    1    2    0    0 -0.22138747357E+02 -0.66940388445E+02 -0.28300979031E+03  0.30254404160E+03  0.80419002446E+02 0.  1.
          1    1    1    2  501    0  0.42157554684E+02 -0.10702373556E+01  0.41070060736E+03  0.41286001709E+03  0.00000000000E+00 0. -1.
         -2    1    1    2    0  503 -0.20018807327E+02  0.68010625800E+02 -0.26688664605E+02  0.75752773460E+02  0.00000000000E+00 0.  1.
<mgrwt>
<rscale>  2 0.11000853E+03</rscale>
<asrwt>0</asrwt>
<pdfrwt beam="1">  1       21 0.68627615E-01 0.11000853E+03</pdfrwt>
<pdfrwt beam="2">  1       21 0.53088821E-01 0.11000853E+03</pdfrwt>
<totfact> 0.69984991E+03</totfact>
</mgrwt>
</event>
<event>
 5    1  0.1855960E+000  0.8074829E+02  0.7546771E-02  0.1326941E+00
         21   -1    0    0  501  502  0.00000000000E+00  0.00000000000E+00  0.43933068811E+01  0.43933068811E+01  0.00000000000E+00 0. -1.
         21   -1    0    0  502  503 -0.00000000000E+00 -0.00000000000E+00 -0.23895732094E+04  0.23895732094E+04  0.00000000000E+00 0. -1.
         24    1    1    2    0    0 -0.30104069489E+02 -0.33236763748E+02 -0.14240773800E+04  0.14270509934E+04  0.80419002446E+02 0. -1.
          1    1    1    2  501    0  0.11147154754E+02  0.45497638980E+02 -0.19749402643E+03  0.20297335955E+03  0.00000000000E+00 0. -1.
         -2    1    1    2    0  503  0.18956914735E+02 -0.12260875232E+02 -0.76360849610E+03  0.76394216338E+03  0.00000000000E+00 0.  1.
<mgrwt>
<rscale>  2 0.80748290E+02</rscale>
<asrwt>0</asrwt>
<pdfrwt beam="1">  1       21 0.67589551E-03 0.80748290E+02</pdfrwt>
<pdfrwt beam="2">  1       21 0.36762548E+00 0.80748290E+02</pdfrwt>
<totfact> 0.11188806E+05</totfact>
</mgrwt>
</event>
<event>
 5    1  0.1855960E+000  0.7220179E+02  0.7546771E-02  0.1352762E+00
         21   -1    0    0  501  502  0.00000000000E+00  0.00000000000E+00  0.12299589002E+03  0.12299589002E+03  0.00000000000E+00 0. -1.
         21   -1    0    0  502  503 -0.00000000000E+00 -0.00000000000E+00 -0.83673588157E+02  0.83673588157E+02  0.00000000000E+00 0.  1.
         24    1    1    2    0    0 -0.74264055639E+01 -0.16630565613E+02  0.11257436187E+02  0.83220628669E+02  0.80419002446E+02 0. -1.
          1    1    1    2  501    0 -0.22823544747E+02  0.21444342060E+02  0.66971202006E+02  0.73931832787E+02  0.00000000000E+00 0. -1.
         -2    1    1    2    0  503  0.30249950311E+02 -0.48137764469E+01 -0.38906336334E+02  0.49517016716E+02  0.00000000000E+00 0.  1.
<mgrwt>
<rscale>  2 0.72201794E+02</rscale>
<asrwt>0</asrwt>
<pdfrwt beam="1">  1       21 0.18922444E-01 0.72201794E+02</pdfrwt>
<pdfrwt beam="2">  1       21 0.12872860E-01 0.72201794E+02</pdfrwt>
<totfact> 0.13023851E+06</totfact>
</mgrwt>
</event>
<event>
 5    1  0.1855960E+000  0.1360765E+03  0.7546771E-02  0.1218708E+00
         21   -1    0    0  501  502  0.00000000000E+00  0.00000000000E+00  0.11249531222E+03  0.11249531222E+03  0.00000000000E+00 0. -1.
         21   -1    0    0  502  503 -0.00000000000E+00 -0.00000000000E+00 -0.19751572785E+03  0.19751572785E+03  0.00000000000E+00 0. -1.
         24    1    1    2    0    0  0.12201295032E+03 -0.15123357116E+02 -0.31854447000E+02  0.15032563895E+03  0.80419002446E+02 0. -1.
          1    1    1    2  501    0 -0.10233602597E+03  0.35173158490E+01 -0.63103574796E+00  0.10239839807E+03  0.00000000000E+00 0. -1.
         -2    1    1    2    0  503 -0.19676924355E+02  0.11606041267E+02 -0.52534932880E+02  0.57287003052E+02  0.00000000000E+00 0.  1.
<mgrwt>
<rscale>  2 0.13607652E+03</rscale>
<asrwt>0</asrwt>
<pdfrwt beam="1">  1       21 0.17306971E-01 0.13607652E+03</pdfrwt>
<pdfrwt beam="2">  1       21 0.30387035E-01 0.13607652E+03</pdfrwt>
<totfact> 0.31734263E+05</totfact>
</mgrwt>
</event>
<event>
 5    1  0.1855960E+000  0.7646123E+02  0.7546771E-02  0.1339405E+00
         21   -1    0    0  503  502  0.00000000000E+00  0.00000000000E+00  0.12740176809E+03  0.12740176809E+03  0.00000000000E+00 0. -1.
         21   -1    0    0  501  503 -0.00000000000E+00 -0.00000000000E+00 -0.11955569190E+03  0.11955569190E+03  0.00000000000E+00 0. -1.
         24    1    1    2    0    0 -0.52057144216E+02  0.99132538861E+00 -0.37325870737E+02  0.10281714629E+03  0.80419002446E+02 0. -1.
          1    1    1    2  501    0  0.21131324512E+02 -0.11990545989E+02 -0.43369060480E+02  0.49710979428E+02  0.00000000000E+00 0. -1.
         -2    1    1    2    0  502  0.30925819704E+02  0.10999220601E+02  0.88541007407E+02  0.94429334271E+02  0.00000000000E+00 0.  1.
<mgrwt>
<rscale>  2 0.76461229E+02</rscale>
<asrwt>0</asrwt>
<pdfrwt beam="1">  1       21 0.19600272E-01 0.76461229E+02</pdfrwt>
<pdfrwt beam="2">  1       21 0.18393183E-01 0.76461229E+02</pdfrwt>
<totfact> 0.64847771E+05</totfact>
</mgrwt>
</event>
<event>
 5    1  0.1855960E+000  0.1157637E+03  0.7546771E-02  0.1250254E+00
         21   -1    0    0  501  502  0.00000000000E+00  0.00000000000E+00  0.24056133874E+03  0.24056133874E+03  0.00000000000E+00 0. -1.
         21   -1    0    0  502  503 -0.00000000000E+00 -0.00000000000E+00 -0.41292907490E+03  0.41292907490E+03  0.00000000000E+00 0.  1.
         24    1    1    2    0    0  0.57194919310E+02  0.76877244241E+02 -0.97251546428E+01  0.12547176600E+03  0.80419002446E+02 0.  1.
          1    1    1    2  501    0  0.30325826180E+01 -0.29893918798E+02  0.17718359637E+03  0.17971329879E+03  0.00000000000E+00 0. -1.
         -2    1    1    2    0  503 -0.60227501928E+02 -0.46983325443E+02 -0.33982617788E+03  0.34830534885E+03  0.00000000000E+00 0.  1.
<mgrwt>
<rscale>  2 0.11576371E+03</rscale>
<asrwt>0</asrwt>
<pdfrwt beam="1">  1       21 0.37009437E-01 0.11576371E+03</pdfrwt>
<pdfrwt beam="2">  1       21 0.63527550E-01 0.11576371E+03</pdfrwt>
<totfact> 0.17031102E+04</totfact>
</mgrwt>
</event>
<event>
 5    1  0.1855960E+000  0.8209715E+02  0.7546771E-02  0.1323203E+00
         21   -1    0    0  503  502  0.00000000000E+00  0.00000000000E+00  0.59610882704E+03  0.59610882704E+03  0.00000000000E+00 0.  1.
         21   -1    0    0  501  503 -0.00000000000E+00 -0.00000000000E+00 -0.11614248097E+02  0.11614248097E+02  0.00000000000E+00 0. -1.
         24    1    1    2    0    0  0.10486247298E+02  0.13030846823E+02  0.32163246812E+03  0.33195545613E+03  0.80419002446E+02 0. -1.
          1    1    1    2  501    0  0.32189887862E+02  0.98082566123E+01  0.84490069643E+02  0.90944832984E+02  0.00000000000E+00 0. -1.
         -2    1    1    2    0  502 -0.42676135160E+02 -0.22839103435E+02  0.17837204117E+03  0.18482278602E+03  0.00000000000E+00 0.  1.
<mgrwt>
<rscale>  2 0.82097148E+02</rscale>
<asrwt>0</asrwt>
<pdfrwt beam="1">  1       21 0.91709027E-01 0.82097148E+02</pdfrwt>
<pdfrwt beam="2">  1       21 0.17868079E-02 0.82097148E+02</pdfrwt>
<totfact> 0.14786692E+06</totfact>
</mgrwt>
</event>
<event>
 5    1  0.1855960E+000  0.6885623E+02  0.7546771E-02  0.1364026E+00
         21   -1    0    0  501  502  0.00000000000E+00  0.00000000000E+00  0.18696668452E+03  0.18696668452E+03  0.00000000000E+00 0. -1.
         21   -1    0    0  502  503 -0.00000000000E+00 -0.00000000000E+00 -0.58637424545E+02  0.58637424545E+02  0.00000000000E+00 0.  1.
         24    1    1    2    0    0 -0.39870092477E+02 -0.46602810210E+00  0.71281493946E+02  0.11462158955E+03  0.80419002446E+02 0.  1.
          1    1    1    2  501    0  0.23870303160E+02  0.13402918986E+02  0.88923957064E+02  0.93042462082E+02  0.00000000000E+00 0. -1.
         -2    1    1    2    0  503  0.15999789317E+02 -0.12936890884E+02 -0.31876191032E+02  0.37940057441E+02  0.00000000000E+00 0.  1.
<mgrwt>
<rscale>  2 0.68856226E+02</rscale>
<asrwt>0</asrwt>
<pdfrwt beam="1">  1       21 0.28764105E-01 0.68856226E+02</pdfrwt>
<pdfrwt beam="2">  1       21 0.90211423E-02 0.68856226E+02</pdfrwt>
<totfact> 0.11103458E+06</totfact>
</mgrwt>
</event>
<event>
 5    1  0.1855960E+000  0.1037458E+03  0.7546771E-02  0.1272611E+00
         21   -1    0    0  503  502  0.00000000000E+00  0.00000000000E+00  0.20333719738E+03  0.20333719738E+03  0.00000000000E+00 0.  1.
         21   -1    0    0  501  503 -0.00000000000E+00 -0.00000000000E+00 -0.24378935144E+03  0.24378935144E+03  0.00000000000E+00 0.  1.
         24    1    1    2    0    0  0.78847074316E+02 -0.10295691550E+01 -0.19186058068E+03  0.22247610999E+03  0.80419002446E+02 0.  1.
          1    1    1    2  501    0 -0.15246399638E+02  0.22982983549E+02 -0.24138255925E+02  0.36651406983E+02  0.00000000000E+00 0. -1.
         -2    1    1    2    0  502 -0.63600674677E+02 -0.21953414394E+02  0.17554668255E+03  0.18799903185E+03  0.00000000000E+00 0.  1.
<mgrwt>
<rscale>  2 0.10374577E+03</rscale>
<asrwt>0</asrwt>
<pdfrwt beam="1">  1       21 0.31282646E-01 0.10374577E+03</pdfrwt>
<pdfrwt beam="2">  1       21 0.37506054E-01 0.10374577E+03</pdfrwt>
<totfact> 0.70183012E+04</totfact>
</mgrwt>
</event>
<event>
 5    1  0.1855960E+000  0.8742296E+02  0.7546771E-02  0.1309215E+00
         21   -1    0    0  501  502  0.00000000000E+00  0.00000000000E+00  0.53263490153E+01  0.53263490153E+01  0.00000000000E+00 0.  1.
         21   -1    0    0  502  503 -0.00000000000E+00 -0.00000000000E+00 -0.15633789894E+04  0.15633789894E+04  0.00000000000E+00 0. -1.
         24    1    1    2    0    0  0.78612940586E+00  0.10931739503E+02 -0.69795223122E+03  0.70265543045E+03  0.80419002446E+02 0. -1.
          1    1    1    2  501    0  0.25668131493E+02  0.33360534442E+02 -0.22840068857E+03  0.23224696504E+03  0.00000000000E+00 0. -1.
         -2    1    1    2    0  503 -0.26454260899E+02 -0.44292273946E+02 -0.63169972058E+03  0.63380294290E+03  0.00000000000E+00 0.  1.
<mgrwt>
<rscale>  2 0.87422964E+02</rscale>
<asrwt>0</asrwt>
<pdfrwt beam="1">  1       21 0.81943744E-03 0.87422964E+02</pdfrwt>
<pdfrwt beam="2">  1       21 0.24052010E+00 0.87422964E+02</pdfrwt>
<totfact> 0.41491405E+05</totfact>
</mgrwt>
</event>
<event>
 5    1  0.1855960E+000  0.6809119E+02  0.7546771E-02  0.1366707E+00
         21   -1    0    0  501  502  0.00000000000E+00  0.00000000000E+00  0.45166082384E+03  0.45166082384E+03  0.00000000000E+00 0. -1.
         21   -1    0    0  502  503 -0.00000000000E+00 -0.00000000000E+00 -0.22040263500E+02  0.22040263500E+02  0.00000000000E+00 0.  1.
         24    1    1    2    0    0 -0.20254241997E+02 -0.26284755727E+02  0.94771426611E+02  0.12864665545E+03  0.80419002446E+02 0.  1.
          1    1    1    2  501    0  0.27286391987E+02  0.63054768922E+01  0.31429451603E+03  0.31553977409E+03  0.00000000000E+00 0. -1.
         -2    1    1    2    0  503 -0.70321499895E+01  0.19979278835E+02  0.20554617700E+02  0.29514657800E+02  0.00000000000E+00 0.  1.
<mgrwt>
<rscale>  2 0.68091191E+02</rscale>
<asrwt>0</asrwt>
<pdfrwt beam="1">  1       21 0.69486274E-01 0.68091191E+02</pdfrwt>
<pdfrwt beam="2">  1       21 0.33908101E-02 0.68091191E+02</pdfrwt>
<totfact> 0.96852757E+05</totfact>
</mgrwt>
</event>
<event>
 5    1  0.1855960E+000  0.6635877E+02  0.7546771E-02  0.1372932E+00
         21   -1    0    0  501  502  0.00000000000E+00  0.00000000000E+00  0.25795717349E+04  0.25795717349E+04  0.00000000000E+00 0. -1.
         21   -1    0    0  502  503 -0.00000000000E+00 -0.00000000000E+00 -0.30723092208E+01  0.30723092208E+01  0.00000000000E+00 0.  1.
         24    1    1    2    0    0 -0.48526477511E+01 -0.10518483831E+02  0.88633970071E+03  0.89005587898E+03  0.80419002446E+02 0. -1.
          1    1    1    2  501    0  0.27578008944E+02  0.43322037209E+01  0.15639818838E+04  0.15642310084E+04  0.00000000000E+00 0. -1.
         -2    1    1    2    0  503 -0.22725361193E+02  0.61862801103E+01  0.12617784110E+03  0.12835715675E+03  0.00000000000E+00 0.  1.
<mgrwt>
<rscale>  2 0.66358775E+02</rscale>
<asrwt>0</asrwt>
<pdfrwt beam="1">  1       21 0.39685546E+00 0.66358775E+02</pdfrwt>
<pdfrwt beam="2">  1       21 0.47266502E-03 0.66358775E+02</pdfrwt>
<totfact> 0.13592077E+05</totfact>
</mgrwt>
</event>
<event>
 5    1  0.1855960E+000  0.7636447E+02  0.7546771E-02  0.1339697E+00
         21   -1    0    0  501  502  0.00000000000E+00  0.00000000000E+00  0.30823137576E+02  0.30823137576E+02  0.00000000000E+00 0. -1.
         21   -1    0    0  502  503 -0.00000000000E+00 -0.00000000000E+00 -0.87215361877E+03  0.87215361877E+03  0.00000000000E+00 0.  1.
         24    1    1    2    0    0  0.23965352045E+02 -0.16664649401E+02 -0.62108444589E+03  0.62694908367E+03  0.80419002446E+02 0.  1.
          1    1    1    2  501    0  0.11840194587E+02  0.27356138737E+02  0.18031428496E+02  0.34837923992E+02  0.00000000000E+00 0. -1.
         -2    1    1    2    0  503 -0.35805546632E+02 -0.10691489336E+02 -0.23827746380E+03  0.24118974868E+03  0.00000000000E+00 0.  1.
<mgrwt>
<rscale>  2 0.76364467E+02</rscale>
<asrwt>0</asrwt>
<pdfrwt beam="1">  1       21 0.47420218E-02 0.76364467E+02</pdfrwt>
<pdfrwt beam="2">  1       21 0.13417746E+00 0.76364467E+02</pdfrwt>
<totfact> 0.12442179E+05</totfact>
</mgrwt>
</event>
<event>
 5    1  0.1855960E+000  0.1068224E+03  0.7546771E-02  0.1266570E+00
         21   -1    0    0  501  502  0.00000000000E+00  0.00000000000E+00  0.30158194825E+02  0.30158194825E+02  0.00000000000E+00 0. -1.
         21   -1    0    0  502  503 -0.00000000000E+00 -0.00000000000E+00 -0.65038585251E+03  0.65038585251E+03  0.00000000000E+00 0.  1.
         24    1    1    2    0    0 -0.53907212821E+02  0.11143751273E+02 -0.15022303400E+03  0.17906520233E+03  0.80419002446E+02 0. -1.
          1    1    1    2  501    0  0.82833976966E+02  0.51433422124E+01 -0.99848005531E+02  0.12983661239E+03  0.00000000000E+00 0. -1.
         -2    1    1    2    0  503 -0.28926764145E+02 -0.16287093486E+02 -0.37015661815E+03  0.37164223261E+03  0.00000000000E+00 0.  1.
<mgrwt>
<rscale>  2 0.10682242E+03</rscale>
<asrwt>0</asrwt>
<pdfrwt beam="1">  1       21 0.46397222E-02 0.10682242E+03</pdfrwt>
<pdfrwt beam="2">  1       21 0.10005936E+00 0.10682242E+03</pdfrwt>
<totfact> 0.25647709E+05</totfact>
</mgrwt>
</event>
<event>
 5    1  0.1855960E+000  0.7787584E+02  0.7546771E-02  0.1335190E+00
         21   -1    0    0  501  502  0.00000000000E+00  0.00000000000E+00  0.42120542482E+02  0.42120542482E+02  0.00000000000E+00 0.  1.
         21   -1    0    0  502  503 -0.00000000000E+00 -0.00000000000E+00 -0.17403081992E+03  0.17403081992E+03  0.00000000000E+00 0.  1.
         24    1    1    2    0    0  0.38757001231E+01 -0.84238389080E+01 -0.45816471193E+02  0.93017993422E+02  0.80419002446E+02 0.  1.
          1    1    1    2  501    0  0.32796379116E+02  0.17284774648E+02 -0.10312293360E+02  0.38479985863E+02  0.00000000000E+00 0. -1.
         -2    1    1    2    0  503 -0.36672079239E+02 -0.88609357398E+01 -0.75781512891E+02  0.84653383121E+02  0.00000000000E+00 0.  1.
<mgrwt>
<rscale>  2 0.77875839E+02</rscale>
<asrwt>0</asrwt>
<pdfrwt beam="1">  1       21 0.64800834E-02 0.77875839E+02</pdfrwt>
<pdfrwt beam="2">  1       21 0.26773973E-01 0.77875839E+02</pdfrwt>
<totfact> 0.22362653E+06</totfact>
</mgrwt>
</event>
<event>
 5    1  0.1855960E+000  0.1025659E+03  0.7546771E-02  0.1274991E+00
         21   -1    0    0  501  502  0.00000000000E+00  0.00000000000E+00  0.25082667741E+02  0.25082667741E+02  0.00000000000E+00 0.  1.
         21   -1    0    0  502  503 -0.00000000000E+00 -0.00000000000E+00 -0.47327226794E+03  0.47327226794E+03  0.00000000000E+00 0. -1.
         24    1    1    2    0    0  0.24409180346E+02  0.64278131480E+01 -0.12744272043E+03  0.15279393905E+03  0.80419002446E+02 0.  0.
          1    1    1    2  501    0  0.47622471278E+02 -0.10244123310E+02 -0.74869434353E+02  0.89321184684E+02  0.00000000000E+00 0. -1.
         -2    1    1    2    0  503 -0.72031651624E+02  0.38163101620E+01 -0.24587744542E+03  0.25623981194E+03  0.00000000000E+00 0.  1.
<mgrwt>
<rscale>  2 0.10256588E+03</rscale>
<asrwt>0</asrwt>
<pdfrwt beam="1">  1       21 0.38588724E-02 0.10256588E+03</pdfrwt>
<pdfrwt beam="2">  1       21 0.72811109E-01 0.10256588E+03</pdfrwt>
<totfact> 0.71193622E+05</totfact>
</mgrwt>
</event>
<event>
 5    1  0.1855960E+000  0.9715567E+02  0.7546771E-02  0.1286393E+00
         21   -1    0    0  503  502  0.00000000000E+00  0.00000000000E+00  0.47160452161E+02  0.47160452161E+02  0.00000000000E+00 0.  1.
         21   -1    0    0  501  503 -0.00000000000E+00 -0.00000000000E+00 -0.28702200757E+03  0.28702200757E+03  0.00000000000E+00 0.  1.
         24    1    1    2    0    0 -0.54880118664E+02 -0.46231403671E+02 -0.11000381143E+03  0.15400397590E+03  0.80419002446E+02 0.  1.
          1    1    1    2  501    0  0.38588618120E+02  0.11594012413E+01 -0.12635894336E+03  0.13212497200E+03  0.00000000000E+00 0. -1.
         -2    1    1    2    0  502  0.16291500544E+02  0.45072002429E+02 -0.34988006171E+01  0.48053511825E+02  0.00000000000E+00 0.  1.
<mgrwt>
<rscale>  2 0.97155669E+02</rscale>
<asrwt>0</asrwt>
<pdfrwt beam="1">  1       21 0.72554541E-02 0.97155669E+02</pdfrwt>
<pdfrwt beam="2">  1       21 0.44157233E-01 0.97155669E+02</pdfrwt>
<totfact> 0.70373643E+05</totfact>
</mgrwt>
</event>
<event>
 5    1  0.1855960E+000  0.8622496E+02  0.7546771E-02  0.1312260E+00
         21   -1    0    0  503  502  0.00000000000E+00  0.00000000000E+00  0.16620091319E+03  0.16620091319E+03  0.00000000000E+00 0. -1.
         21   -1    0    0  501  503 -0.00000000000E+00 -0.00000000000E+00 -0.62819138790E+02  0.62819138790E+02  0.00000000000E+00 0. -1.
         24    1    1    2    0    0 -0.83809301052E+00  0.26579838893E+02  0.75387514297E+02  0.11339172590E+03  0.80419002446E+02 0. -1.
          1    1    1    2  501    0  0.32606788346E+02 -0.41394851306E+02 -0.19856662823E+02  0.56311840845E+02  0.00000000000E+00 0. -1.
         -2    1    1    2    0  502 -0.31768695335E+02  0.14815012414E+02  0.47850922924E+02  0.59316485237E+02  0.00000000000E+00 0.  1.
<mgrwt>
<rscale>  2 0.86224962E+02</rscale>
<asrwt>0</asrwt>
<pdfrwt beam="1">  1       21 0.25569371E-01 0.86224962E+02</pdfrwt>
<pdfrwt beam="2">  1       21 0.96644830E-02 0.86224962E+02</pdfrwt>
<totfact> 0.12388510E+06</totfact>
</mgrwt>
</event>
<event>
 5    1  0.1855960E+000  0.9187365E+02  0.7546771E-02  0.1298377E+00
         21   -1    0    0  501  502  0.00000000000E+00  0.00000000000E+00  0.39177652921E+03  0.39177652921E+03  0.00000000000E+00 0. -1.
         21   -1    0    0  502  503 -0.00000000000E+00 -0.00000000000E+00 -0.31287487418E+02  0.31287487418E+02  0.00000000000E+00 0. -1.
         24    1    1    2    0    0  0.35136842415E+02  0.62063535715E+02  0.22931010127E+03  0.25325248006E+03  0.80419002446E+02 0. -1.
          1    1    1    2  501    0 -0.21085005404E+02 -0.11999211468E+02  0.11166757133E+03  0.11427250332E+03  0.00000000000E+00 0. -1.
         -2    1    1    2    0  503 -0.14051837011E+02 -0.50064324247E+02  0.19511369196E+02  0.55539033244E+02  0.00000000000E+00 0.  1.
<mgrwt>
<rscale>  2 0.91873647E+02</rscale>
<asrwt>0</asrwt>
<pdfrwt beam="1">  1       21 0.60273309E-01 0.91873647E+02</pdfrwt>
<pdfrwt beam="2">  1       21 0.48134599E-02 0.91873647E+02</pdfrwt>
<totfact> 0.73991520E+05</totfact>
</mgrwt>
</event>
<event>
 5    1  0.1855960E+000  0.1082740E+03  0.7546771E-02  0.1263800E+00
         21   -1    0    0  501  502  0.00000000000E+00  0.00000000000E+00  0.15699509565E+03  0.15699509565E+03  0.00000000000E+00 0. -1.
         21   -1    0    0  502  503 -0.00000000000E+00 -0.00000000000E+00 -0.82949490024E+02  0.82949490024E+02  0.00000000000E+00 0. -1.
         24    1    1    2    0    0 -0.25714119857E+02 -0.56414089046E+02  0.27048485367E+01  0.10157902127E+03  0.80419002446E+02 0. -1.
          1    1    1    2  501    0 -0.27012503764E+01  0.78790524757E+02  0.63803019386E+02  0.10142025847E+03  0.00000000000E+00 0. -1.
         -2    1    1    2    0  503  0.28415370233E+02 -0.22376435710E+02  0.75377376999E+01  0.36945305929E+02  0.00000000000E+00 0.  1.
<mgrwt>
<rscale>  2 0.10827401E+03</rscale>
<asrwt>0</asrwt>
<pdfrwt beam="1">  1       21 0.24153092E-01 0.10827401E+03</pdfrwt>
<pdfrwt beam="2">  1       21 0.12761460E-01 0.10827401E+03</pdfrwt>
<totfact> 0.85129653E+05</totfact>
</mgrwt>
</event>
<event>
 5    1  0.1855960E+000  0.8978491E+02  0.7546771E-02  0.1303373E+00
         21   -1    0    0  503  502  0.00000000000E+00  0.00000000000E+00  0.52376256680E+03  0.52376256680E+03  0.00000000000E+00 0. -1.
         21   -1    0    0  501  503 -0.00000000000E+00 -0.00000000000E+00 -0.23895079492E+02  0.23895079492E+02  0.00000000000E+00 0. -1.
         24    1    1    2    0    0 -0.35201103853E+02 -0.23255512957E+02  0.91802051603E+02  0.12913082215E+03  0.80419002446E+02 0. -1.
          1    1    1    2  501    0  0.60361064354E+02  0.18662017444E+02  0.22568371107E+03  0.23436054793E+03  0.00000000000E+00 0. -1.
         -2    1    1    2    0  502 -0.25159960501E+02  0.45934955130E+01  0.18238172464E+03  0.18416627622E+03  0.00000000000E+00 0.  1.
<mgrwt>
<rscale>  2 0.89784905E+02</rscale>
<asrwt>0</asrwt>
<pdfrwt beam="1">  1       21 0.80578848E-01 0.89784905E+02</pdfrwt>
<pdfrwt beam="2">  1       21 0.36761665E-02 0.89784905E+02</pdfrwt>
<totfact> 0.61721689E+05</totfact>
</mgrwt>
</event>
<event>
 5    1  0.1855960E+000  0.1200613E+03  0.7546771E-02  0.1242996E+00
         21   -1    0    0  501  502  0.00000000000E+00  0.00000000000E+00  0.24945048840E+02  0.24945048840E+02  0.00000000000E+00 0. -1.
         21   -1    0    0  502  503 -0.00000000000E+00 -0.00000000000E+00 -0.17068858879E+04  0.17068858879E+04  0.00000000000E+00 0.  1.
         24    1    1    2    0    0 -0.83769408296E+02  0.45382761697E+02 -0.35416101273E+03  0.37546524169E+03  0.80419002446E+02 0.  1.
          1    1    1    2  501    0  0.33773369691E+02  0.15082899669E+02 -0.12939038940E+02  0.39186133917E+02  0.00000000000E+00 0. -1.
         -2    1    1    2    0  503  0.49996038605E+02 -0.60465661366E+02 -0.13148407874E+04  0.13171795611E+04  0.00000000000E+00 0.  1.
<mgrwt>
<rscale>  2 0.12006132E+03</rscale>
<asrwt>0</asrwt>
<pdfrwt beam="1">  1       21 0.38377014E-02 0.12006132E+03</pdfrwt>
<pdfrwt beam="2">  1       21 0.26259772E+00 0.12006132E+03</pdfrwt>
<totfact> 0.25412877E+04</totfact>
</mgrwt>
</event>
<event>
 5    1  0.1855960E+000  0.7428609E+02  0.7546771E-02  0.1346096E+00
         21   -1    0    0  501  502  0.00000000000E+00  0.00000000000E+00  0.38384407503E+02  0.38384407503E+02  0.00000000000E+00 0. -1.
         21   -1    0    0  502  503 -0.00000000000E+00 -0.00000000000E+00 -0.29011969067E+03  0.29011969067E+03  0.00000000000E+00 0. -1.
         24    1    1    2    0    0  0.82125762295E+01 -0.85292419885E+00 -0.14969784533E+02  0.82216082924E+02  0.80419002446E+02 0. -1.
          1    1    1    2  501    0  0.21983653879E+02 -0.21042475602E+02 -0.11279167216E+03  0.11682477531E+03  0.00000000000E+00 0. -1.
         -2    1    1    2    0  503 -0.30196230108E+02  0.21895399801E+02 -0.12397382647E+03  0.12946323994E+03  0.00000000000E+00 0.  1.
<mgrwt>
<rscale>  2 0.74286088E+02</rscale>
<asrwt>0</asrwt>
<pdfrwt beam="1">  1       21 0.59052934E-02 0.74286088E+02</pdfrwt>
<pdfrwt beam="2">  1       21 0.44633799E-01 0.74286088E+02</pdfrwt>
<totfact> 0.97096562E+05</totfact>
</mgrwt>
</event>
<event>
 5    1  0.1855960E+000  0.7434766E+02  0.7546771E-02  0.1345903E+00
         21   -1    0    0  501  502  0.00000000000E+00  0.00000000000E+00  0.62705239143E+02  0.62705239143E+02  0.00000000000E+00 0.  1.
         21   -1    0    0  502  503 -0.00000000000E+00 -0.00000000000E+00 -0.10717883626E+03  0.10717883626E+03  0.00000000000E+00 0. -1.
         24    1    1    2    0    0  0.15981628341E+02  0.41750598589E+01 -0.24625288507E+02  0.85711518232E+02  0.80419002446E+02 0.  0.
          1    1    1    2  501    0  0.25235248970E+02 -0.22569606388E+01  0.15618277324E+02  0.29763102132E+02  0.00000000000E+00 0. -1.
         -2    1    1    2    0  503 -0.41216877311E+02 -0.19180992200E+01 -0.35466585938E+02  0.54409455042E+02  0.00000000000E+00 0.  1.
<mgrwt>
<rscale>  2 0.74347663E+02</rscale>
<asrwt>0</asrwt>
<pdfrwt beam="1">  1       21 0.96469600E-02 0.74347663E+02</pdfrwt>
<pdfrwt beam="2">  1       21 0.16489051E-01 0.74347663E+02</pdfrwt>
<totfact> 0.27560713E+06</totfact>
</mgrwt>
</event>
<event>
 5    1  0.1855960E+000  0.1315901E+03  0.7546771E-02  0.1225115E+00
         21   -1    0    0  501  502  0.00000000000E+00  0.00000000000E+00  0.93834567069E+02  0.93834567069E+02  0.00000000000E+00 0. -1.
         21   -1    0    0  502  503 -0.00000000000E+00 -0.00000000000E+00 -0.19205455004E+03  0.19205455004E+03  0.00000000000E+00 0. -1.
         24    1    1    2    0    0  0.91228839662E+02  0.56381972399E+02 -0.40261988790E+02  0.13996382280E+03  0.80419002446E+02 0. -1.
          1    1    1    2  501    0 -0.57305693902E+02  0.65104787045E+01 -0.68674165342E+01  0.58081755280E+02  0.00000000000E+00 0. -1.
         -2    1    1    2    0  503 -0.33923145760E+02 -0.62892451104E+02 -0.51090577642E+02  0.87843539022E+02  0.00000000000E+00 0.  1.
<mgrwt>
<rscale>  2 0.13159011E+03</rscale>
<asrwt>0</asrwt>
<pdfrwt beam="1">  1       21 0.14436087E-01 0.13159011E+03</pdfrwt>
<pdfrwt beam="2">  1       21 0.29546854E-01 0.13159011E+03</pdfrwt>
<totfact> 0.46564671E+05</totfact>
</mgrwt>
</event>
<event>
 5    1  0.1855960E+000  0.7096574E+02  0.7546771E-02  0.1356839E+00
         21   -1    0    0  501  502  0.00000000000E+00  0.00000000000E+00  0.63367721107E+02  0.63367721107E+02  0.00000000000E+00 0.  1.
         21   -1    0    0  502  503 -0.00000000000E+00 -0.00000000000E+00 -0.87823382037E+02  0.87823382037E+02  0.00000000000E+00 0. -1.
         24    1    1    2    0    0  0.13076887637E+02  0.15288710676E+02  0.86377131557E+01  0.83346119930E+02  0.80419002446E+02 0.  1.
          1    1    1    2  501    0  0.15044695475E+02 -0.25088783521E+02 -0.13669051130E+02  0.32289826250E+02  0.00000000000E+00 0. -1.
         -2    1    1    2    0  503 -0.28121583112E+02  0.98000728452E+01 -0.19424322955E+02  0.35555156964E+02  0.00000000000E+00 0.  1.
<mgrwt>
<rscale>  2 0.70965742E+02</rscale>
<asrwt>0</asrwt>
<pdfrwt beam="1">  1       21 0.97488802E-02 0.70965742E+02</pdfrwt>
<pdfrwt beam="2">  1       21 0.13511289E-01 0.70965742E+02</pdfrwt>
<totfact> 0.38417343E+06</totfact>
</mgrwt>
</event>
<event>
 5    1  0.1855960E+000  0.7105963E+02  0.7546771E-02  0.1356526E+00
         21   -1    0    0  501  502  0.00000000000E+00  0.00000000000E+00  0.11718964966E+02  0.11718964966E+02  0.00000000000E+00 0.  1.
         21   -1    0    0  502  503 -0.00000000000E+00 -0.00000000000E+00 -0.56170937269E+03  0.56170937269E+03  0.00000000000E+00 0. -1.
         24    1    1    2    0    0 -0.19507564548E+01 -0.10194931483E+02 -0.16769909801E+03  0.18627384547E+03  0.80419002446E+02 0.  1.
          1    1    1    2  501    0  0.20757004939E+01  0.35583643349E+02 -0.21028913352E+03  0.21328859295E+03  0.00000000000E+00 0. -1.
         -2    1    1    2    0  503 -0.12494403915E+00 -0.25388711866E+02 -0.17200217619E+03  0.17386589923E+03  0.00000000000E+00 0.  1.
<mgrwt>
<rscale>  2 0.71059634E+02</rscale>
<asrwt>0</asrwt>
<pdfrwt beam="1">  1       21 0.18029180E-02 0.71059634E+02</pdfrwt>
<pdfrwt beam="2">  1       21 0.86416812E-01 0.71059634E+02</pdfrwt>
<totfact> 0.16590239E+06</totfact>
</mgrwt>
</event>
<event>
 5    1  0.1855960E+000  0.1027786E+03  0.7546771E-02  0.1274559E+00
         21   -1    0    0  501  502  0.00000000000E+00  0.00000000000E+00  0.21747882552E+03  0.21747882552E+03  0.00000000000E+00 0. -1.
         21   -1    0    0  502  503 -0.00000000000E+00 -0.00000000000E+00 -0.13386698089E+03  0.13386698089E+03  0.00000000000E+00 0. -1.
         24    1    1    2    0    0 -0.22988546912E+02  0.72948268104E+02 -0.51121540033E+02  0.12219063351E+03  0.80419002446E+02 0. -1.
          1    1    1    2  501    0 -0.18594216614E+02 -0.21623527440E+02  0.15690661104E+03  0.15947729123E+03  0.00000000000E+00 0. -1.
         -2    1    1    2    0  503  0.41582763526E+02 -0.51324740664E+02 -0.22173226364E+02  0.69677881670E+02  0.00000000000E+00 0.  1.
<mgrwt>
<rscale>  2 0.10277855E+03</rscale>
<asrwt>0</asrwt>
<pdfrwt beam="1">  1       21 0.33458281E-01 0.10277855E+03</pdfrwt>
<pdfrwt beam="2">  1       21 0.20594920E-01 0.10277855E+03</pdfrwt>
<totfact> 0.19282004E+05</totfact>
</mgrwt>
</event>
<event>
 5    1  0.1855960E+000  0.7614239E+02  0.7546771E-02  0.1340369E+00
         21   -1    0    0  503  502  0.00000000000E+00  0.00000000000E+00  0.43857818129E+01  0.43857818129E+01  0.00000000000E+00 0. -1.
         21   -1    0    0  501  503 -0.00000000000E+00 -0.00000000000E+00 -0.17401835997E+04  0.17401835997E+04  0.00000000000E+00 0. -1.
         24    1    1    2    0    0  0.31801065705E+02 -0.42684907427E+02 -0.73431986422E+03  0.74062553834E+03  0.80419002446E+02 0. -1.
          1    1    1    2  501    0 -0.25264422075E+02  0.19955573120E+02 -0.85185945826E+03  0.85246762551E+03  0.00000000000E+00 0. -1.
         -2    1    1    2    0  502 -0.65366436300E+01  0.22729334307E+02 -0.14961849541E+03  0.15147621766E+03  0.00000000000E+00 0.  1.
<mgrwt>
<rscale>  2 0.76142393E+02</rscale>
<asrwt>0</asrwt>
<pdfrwt beam="1">  1       21 0.67473466E-03 0.76142393E+02</pdfrwt>
<pdfrwt beam="2">  1       21 0.26772095E+00 0.76142393E+02</pdfrwt>
<totfact> 0.40017327E+05</totfact>
</mgrwt>
</event>
<event>
 5    1  0.1855960E+000  0.8192897E+02  0.7546771E-02  0.1323665E+00
         21   -1    0    0  501  502  0.00000000000E+00  0.00000000000E+00  0.19833858430E+04  0.19833858430E+04  0.00000000000E+00 0. -1.
         21   -1    0    0  502  503 -0.00000000000E+00 -0.00000000000E+00 -0.40244622749E+01  0.40244622749E+01  0.00000000000E+00 0. -1.
         24    1    1    2    0    0  0.18494902756E+00 -0.54600816787E+02  0.99416665591E+03  0.99890732257E+03  0.80419002446E+02 0.  0.
          1    1    1    2  501    0  0.17418822920E+02  0.13816065906E+02  0.64968478795E+03  0.65006509118E+03  0.00000000000E+00 0. -1.
         -2    1    1    2    0  503 -0.17603771948E+02  0.40784750881E+02  0.33550993690E+03  0.33843789157E+03  0.00000000000E+00 0.  1.
<mgrwt>
<rscale>  2 0.81928972E+02</rscale>
<asrwt>0</asrwt>
<pdfrwt beam="1">  1       21 0.30513550E+00 0.81928972E+02</pdfrwt>
<pdfrwt beam="2">  1       21 0.61914963E-03 0.81928972E+02</pdfrwt>
<totfact> 0.28389287E+05</totfact>
</mgrwt>
</event>
<event>
 5    1  0.1855960E+000  0.7693208E+02  0.7546771E-02  0.1337990E+00
         21   -1    0    0  503  502  0.00000000000E+00  0.00000000000E+00  0.42457830472E+03  0.42457830472E+03  0.00000000000E+00 0. -1.
         21   -1    0    0  501  503 -0.00000000000E+00 -0.00000000000E+00 -0.37814683534E+02  0.37814683534E+02  0.00000000000E+00 0. -1.
         24    1    1    2    0    0  0.26237946608E+02 -0.40421646558E+02  0.24556189486E+03  0.26285014650E+03  0.80419002446E+02 0. -1.
          1    1    1    2  501    0 -0.24946862731E+02  0.59903061428E+01 -0.21351300477E+02  0.33378252798E+02  0.00000000000E+00 0. -1.
         -2    1    1    2    0  502 -0.12910838764E+01  0.34431340415E+02  0.16255302680E+03  0.16616458896E+03  0.00000000000E+00 0.  1.
<mgrwt>
<rscale>  2 0.76932077E+02</rscale>
<asrwt>0</asrwt>
<pdfrwt beam="1">  1       21 0.65319736E-01 0.76932077E+02</pdfrwt>
<pdfrwt beam="2">  1       21 0.58176439E-02 0.76932077E+02</pdfrwt>
<totfact> 0.45515826E+05</totfact>
</mgrwt>
</event>
<event>
 5    1  0.1855960E+000  0.8714191E+02  0.7546771E-02  0.1309924E+00
         21   -1    0    0  501  502  0.00000000000E+00  0.00000000000E+00  0.36979685088E+03  0.36979685088E+03  0.00000000000E+00 0. -1.
         21   -1    0    0  502  503 -0.00000000000E+00 -0.00000000000E+00 -0.30933662105E+02  0.30933662105E+02  0.00000000000E+00 0.  1.
         24    1    1    2    0    0  0.30133041267E+01 -0.21734519124E+02  0.10526739245E+03  0.13427549736E+03  0.80419002446E+02 0.  1.
          1    1    1    2  501    0  0.19325553768E+02 -0.29366335676E+02  0.19616032859E+03  0.19928555696E+03  0.00000000000E+00 0. -1.
         -2    1    1    2    0  503 -0.22338857894E+02  0.51100854799E+02  0.37435467732E+02  0.67169458667E+02  0.00000000000E+00 0.  1.
<mgrwt>
<rscale>  2 0.87141908E+02</rscale>
<asrwt>0</asrwt>
<pdfrwt beam="1">  1       21 0.56891820E-01 0.87141908E+02</pdfrwt>
<pdfrwt beam="2">  1       21 0.47590252E-02 0.87141908E+02</pdfrwt>
<totfact> 0.85040197E+05</totfact>
</mgrwt>
</event>
<event>
 5    1  0.1855960E+000  0.9811074E+02  0.7546771E-02  0.1284320E+00
         21   -1    0    0  501  502  0.00000000000E+00  0.00000000000E+00  0.60002034368E+03  0.60002034368E+03  0.00000000000E+00 0.  1.
         21   -1    0    0  502  503 -0.00000000000E+00 -0.00000000000E+00 -0.18468092101E+02  0.18468092101E+02  0.00000000000E+00 0.  1.
         24    1    1    2    0    0 -0.77869806445E+02  0.24493130243E+02  0.35086922408E+03  0.36910709631E+03  0.80419002446E+02 0.  1.
          1    1    1    2  501    0  0.21438417372E+02 -0.65935677740E+01  0.13509897847E+03  0.13694821963E+03  0.00000000000E+00 0. -1.
         -2    1    1    2    0  503  0.56431389073E+02 -0.17899562469E+02  0.95584049029E+02  0.11243311985E+03  0.00000000000E+00 0.  1.
<mgrwt>
<rscale>  2 0.98110744E+02</rscale>
<asrwt>0</asrwt>
<pdfrwt beam="1">  1       21 0.92310807E-01 0.98110744E+02</pdfrwt>
<pdfrwt beam="2">  1       21 0.28412454E-02 0.98110744E+02</pdfrwt>
<totfact> 0.69264349E+05</totfact>
</mgrwt>
</event>
<event>
 5    1  0.1855960E+000  0.7484549E+02  0.7546771E-02  0.1344350E+00
         21   -1    0    0  503  502  0.00000000000E+00  0.00000000000E+00  0.79937805313E+02  0.79937805313E+02  0.00000000000E+00 0. -1.
         21   -1    0    0  501  503 -0.00000000000E+00 -0.00000000000E+00 -0.32314297311E+03  0.32314297311E+03  0.00000000000E+00 0. -1.
         24    1    1    2    0    0  0.16078531391E+02  0.49133110334E+02  0.23378867091E+02  0.98419353197E+02  0.80419002446E+02 0. -1.
          1    1    1    2  501    0 -0.15409570417E+02 -0.21523781357E+02 -0.27462451058E+03  0.27589735380E+03  0.00000000000E+00 0. -1.
         -2    1    1    2    0  502 -0.66896097471E+00 -0.27609328978E+02  0.80404756928E+01  0.28764071422E+02  0.00000000000E+00 0.  1.
<mgrwt>
<rscale>  2 0.74845494E+02</rscale>
<asrwt>0</asrwt>
<pdfrwt beam="1">  1       21 0.12298124E-01 0.74845494E+02</pdfrwt>
<pdfrwt beam="2">  1       21 0.49714303E-01 0.74845494E+02</pdfrwt>
<totfact> 0.22347292E+05</totfact>
</mgrwt>
</event>
<event>
 5    1  0.1855960E+000  0.6790490E+02  0.7546771E-02  0.1367366E+00
         21   -1    0    0  503  502  0.00000000000E+00  0.00000000000E+00  0.72201510240E+02  0.72201510240E+02  0.00000000000E+00 0.  1.
         21   -1    0    0  501  503 -0.00000000000E+00 -0.00000000000E+00 -0.38378007868E+03  0.38378007868E+03  0.00000000000E+00 0.  1.
         24    1    1    2    0    0 -0.13625116093E+01  0.34485553298E+01 -0.20584230190E+03  0.22102492660E+03  0.80419002446E+02 0.  1.
          1    1    1    2  501    0  0.26025955520E+02  0.91790652448E+01 -0.16618460603E+03  0.16846046682E+03  0.00000000000E+00 0. -1.
         -2    1    1    2    0  502 -0.24663443910E+02 -0.12627620575E+02  0.60448339499E+02  0.66496195494E+02  0.00000000000E+00 0.  1.
<mgrwt>
<rscale>  2 0.67904903E+02</rscale>
<asrwt>0</asrwt>
<pdfrwt beam="1">  1       21 0.11107925E-01 0.67904903E+02</pdfrwt>
<pdfrwt beam="2">  1       21 0.59043089E-01 0.67904903E+02</pdfrwt>
<totfact> 0.18782095E+05</totfact>
</mgrwt>
</event>
<event>
 5    1  0.1855960E+000  0.2323592E+03  0.7546771E-02  0.1124990E+00
         21   -1    0    0  503  502  0.00000000000E+00  0.00000000000E+00  0.41695610011E+03  0.41695610011E+03  0.00000000000E+00 0. -1.
         21   -1    0    0  501  503 -0.00000000000E+00 -0.00000000000E+00 -0.13743244991E+03  0.13743244991E+03  0.00000000000E+00 0. -1.
         24    1    1    2    0    0  0.16959579026E+03 -0.96750835367E+02  0.15691295308E+03  0.26308239587E+03  0.80419002446E+02 0. -1.
          1    1    1    2  501    0 -0.19493280239E+03  0.11116582915E+03  0.77135506871E+02  0.23728996068E+03  0.00000000000E+00 0. -1.
         -2    1    1    2    0  502  0.25337012133E+02 -0.14414993786E+02  0.45475190245E+02  0.54016193475E+02  0.00000000000E+00 0.  1.
<mgrwt>
<rscale>  2 0.23235923E+03</rscale>
<asrwt>0</asrwt>
<pdfrwt beam="1">  1       21 0.64147092E-01 0.23235923E+03</pdfrwt>
<pdfrwt beam="2">  1       21 0.21143454E-01 0.23235923E+03</pdfrwt>
<totfact> 0.45781386E+04</totfact>
</mgrwt>
</event>
<event>
 5    1  0.1855960E+000  0.1186466E+03  0.7546771E-02  0.1245347E+00
         21   -1    0    0  503  502  0.00000000000E+00  0.00000000000E+00  0.54827764268E+02  0.54827764268E+02  0.00000000000E+00 0.  1.
         21   -1    0    0  501  503 -0.00000000000E+00 -0.00000000000E+00 -0.72060829881E+03  0.72060829881E+03  0.00000000000E+00 0. -1.
         24    1    1    2    0    0  0.53306828695E+02  0.86862949861E+02 -0.44638731972E+03  0.46488239933E+03  0.80419002446E+02 0. -1.
          1    1    1    2  501    0 -0.46883072531E+02 -0.44555015318E+02 -0.24981339921E+03  0.25805020113E+03  0.00000000000E+00 0. -1.
         -2    1    1    2    0  502 -0.64237561640E+01 -0.42307934543E+02  0.30420184388E+02  0.52503462616E+02  0.00000000000E+00 0.  1.
<mgrwt>
<rscale>  2 0.11864663E+03</rscale>
<asrwt>0</asrwt>
<pdfrwt beam="1">  1       21 0.84350409E-02 0.11864663E+03</pdfrwt>
<pdfrwt beam="2">  1       21 0.11086281E+00 0.11864663E+03</pdfrwt>
<totfact> 0.72748516E+04</totfact>
</mgrwt>
</event>
<event>
 5    1  0.1855960E+000  0.8183757E+02  0.7546771E-02  0.1323916E+00
         21   -1    0    0  501  502  0.00000000000E+00  0.00000000000E+00  0.72305890299E+02  0.72305890299E+02  0.00000000000E+00 0.  1.
         21   -1    0    0  502  503 -0.00000000000E+00 -0.00000000000E+00 -0.10118056068E+03  0.10118056068E+03  0.00000000000E+00 0. -1.
         24    1    1    2    0    0 -0.33879483867E+02  0.94431710609E+01 -0.40556930741E+02  0.96690607053E+02  0.80419002446E+02 0.  0.
          1    1    1    2  501    0 -0.17336000279E+02 -0.16823349524E+02  0.38556344002E+01  0.24462786258E+02  0.00000000000E+00 0. -1.
         -2    1    1    2    0  503  0.51215484146E+02  0.73801784635E+01  0.78266259626E+01  0.52333057664E+02  0.00000000000E+00 0.  1.
<mgrwt>
<rscale>  2 0.81837573E+02</rscale>
<asrwt>0</asrwt>
<pdfrwt beam="1">  1       21 0.11123983E-01 0.81837573E+02</pdfrwt>
<pdfrwt beam="2">  1       21 0.15566240E-01 0.81837573E+02</pdfrwt>
<totfact> 0.23994241E+06</totfact>
</mgrwt>
</event>
<event>
 5    1  0.1855960E+000  0.6622354E+02  0.7546771E-02  0.1373427E+00
         21   -1    0    0  501  502  0.00000000000E+00  0.00000000000E+00  0.52142032867E+02  0.52142032867E+02  0.00000000000E+00 0. -1.
         21   -1    0    0  502  503 -0.00000000000E+00 -0.00000000000E+00 -0.11407230472E+03  0.11407230472E+03  0.00000000000E+00 0. -1.
         24    1    1    2    0    0  0.12626200378E+02 -0.39194007953E+02 -0.60635722138E+02  0.10880945708E+03  0.80419002446E+02 0. -1.
          1    1    1    2  501    0 -0.10331648342E+02  0.17792404661E+02  0.18865012624E+02  0.27914177802E+02  0.00000000000E+00 0. -1.
         -2    1    1    2    0  503 -0.22945520364E+01  0.21401603292E+02 -0.20159562336E+02  0.29490702706E+02  0.00000000000E+00 0.  1.
<mgrwt>
<rscale>  2 0.66223537E+02</rscale>
<asrwt>0</asrwt>
<pdfrwt beam="1">  1       21 0.80218513E-02 0.66223537E+02</pdfrwt>
<pdfrwt beam="2">  1       21 0.17549585E-01 0.66223537E+02</pdfrwt>
<totfact> 0.33521705E+06</totfact>
</mgrwt>
</event>
<event>
 5    1  0.1855960E+000  0.6673867E+02  0.7546771E-02  0.1371548E+00
         21   -1    0    0  503  502  0.00000000000E+00  0.00000000000E+00  0.45344736085E+02  0.45344736085E+02  0.00000000000E+00 0.  1.
         21   -1    0    0  501  503 -0.00000000000E+00 -0.00000000000E+00 -0.38262279337E+03  0.38262279337E+03  0.00000000000E+00 0.  1.
         24    1    1    2    0    0 -0.41774990653E+01 -0.28643759817E+02 -0.26018763600E+03  0.27386627824E+03  0.80419002446E+02 0.  1.
          1    1    1    2  501    0 -0.17133370220E+02  0.11220835794E+02 -0.10960351775E+03  0.11150063064E+03  0.00000000000E+00 0. -1.
         -2    1    1    2    0  502  0.21310869285E+02  0.17422924023E+02  0.32513096466E+02  0.42600620570E+02  0.00000000000E+00 0.  1.
<mgrwt>
<rscale>  2 0.66738669E+02</rscale>
<asrwt>0</asrwt>
<pdfrwt beam="1">  1       21 0.69761133E-02 0.66738669E+02</pdfrwt>
<pdfrwt beam="2">  1       21 0.58865045E-01 0.66738669E+02</pdfrwt>
<totfact> 0.41770873E+05</totfact>
</mgrwt>
</event>
<event>
 5    1  0.1855960E+000  0.9149978E+02  0.7546771E-02  0.1299260E+00
         21   -1    0    0  503  502  0.00000000000E+00  0.00000000000E+00  0.30296343144E+03  0.30296343144E+03  0.00000000000E+00 0.  1.
         21   -1    0    0  501  503 -0.00000000000E+00 -0.00000000000E+00 -0.31561055688E+03  0.31561055688E+03  0.00000000000E+00 0.  1.
         24    1    1    2    0    0  0.33645607014E+02 -0.30904877375E+02 -0.20464327615E+03  0.22457342840E+03  0.80419002446E+02 0.  1.
          1    1    1    2  501    0 -0.52275642188E+02  0.43511993889E+02 -0.89051295658E+02  0.11205431556E+03  0.00000000000E+00 0. -1.
         -2    1    1    2    0  502  0.18630035174E+02 -0.12607116514E+02  0.28104744636E+03  0.28194624435E+03  0.00000000000E+00 0.  1.
<mgrwt>
<rscale>  2 0.91499779E+02</rscale>
<asrwt>0</asrwt>
<pdfrwt beam="1">  1       21 0.46609759E-01 0.91499779E+02</pdfrwt>
<pdfrwt beam="2">  1       21 0.48555470E-01 0.91499779E+02</pdfrwt>
<totfact> 0.19254826E+04</totfact>
</mgrwt>
</event>
<event>
 5    1  0.1855960E+000  0.6741352E+02  0.7546771E-02  0.1369116E+00
         21   -1    0    0  501  502  0.00000000000E+00  0.00000000000E+00  0.73718358031E+03  0.73718358031E+03  0.00000000000E+00 0. -1.
         21   -1    0    0  502  503 -0.00000000000E+00 -0.00000000000E+00 -0.23755332802E+02  0.23755332802E+02  0.00000000000E+00 0. -1.
         24    1    1    2    0    0  0.61430927530E+01  0.77982869767E+01  0.77329707127E+02  0.11200736774E+03  0.80419002446E+02 0. -1.
          1    1    1    2  501    0  0.23206488342E+02  0.78161830513E+00  0.60455126456E+03  0.60499701116E+03  0.00000000000E+00 0. -1.
         -2    1    1    2    0  503 -0.29349581095E+02 -0.85799052818E+01  0.31547275815E+02  0.43934534212E+02  0.00000000000E+00 0.  1.
<mgrwt>
<rscale>  2 0.67413522E+02</rscale>
<asrwt>0</asrwt>
<pdfrwt beam="1">  1       21 0.11341284E+00 0.67413522E+02</pdfrwt>
<pdfrwt beam="2">  1       21 0.36546671E-02 0.67413522E+02</pdfrwt>
<totfact> 0.28673817E+05</totfact>
</mgrwt>
</event>
<event>
 5    1  0.1855960E+000  0.7081244E+02  0.7546771E-02  0.1357352E+00
         21   -1    0    0  501  502  0.00000000000E+00  0.00000000000E+00  0.24189992417E+03  0.24189992417E+03  0.00000000000E+00 0. -1.
         21   -1    0    0  502  503 -0.00000000000E+00 -0.00000000000E+00 -0.52037935685E+02  0.52037935685E+02  0.00000000000E+00 0.  1.
         24    1    1    2    0    0 -0.17600185490E+01  0.43860560464E+02  0.14439908148E+03  0.17101215488E+03  0.80419002446E+02 0. -1.
          1    1    1    2  501    0 -0.11039755461E+02 -0.23362874036E+02  0.78129704828E+02  0.82291863877E+02  0.00000000000E+00 0. -1.
         -2    1    1    2    0  503  0.12799774010E+02 -0.20497686428E+02 -0.32666797815E+02  0.40633841107E+02  0.00000000000E+00 0.  1.
<mgrwt>
<rscale>  2 0.70812440E+02</rscale>
<asrwt>0</asrwt>
<pdfrwt beam="1">  1       21 0.37215372E-01 0.70812440E+02</pdfrwt>
<pdfrwt beam="2">  1       21 0.80058364E-02 0.70812440E+02</pdfrwt>
<totfact> 0.83152544E+05</totfact>
</mgrwt>
</event>
<event>
 5    1  0.1855960E+000  0.9479912E+02  0.7546771E-02  0.1291629E+00
         21   -1    0    0  503  502  0.00000000000E+00  0.00000000000E+00  0.91969301325E+03  0.91969301325E+03  0.00000000000E+00 0. -1.
         21   -1    0    0  501  503 -0.00000000000E+00 -0.00000000000E+00 -0.13555087173E+02  0.13555087173E+02  0.00000000000E+00 0. -1.
         24    1    1    2    0    0  0.58918800513E-01 -0.26994813154E+02  0.30810517117E+03  0.31956961036E+03  0.80419002446E+02 0.  0.
          1    1    1    2  501    0 -0.56606650191E+01 -0.38561190707E+02  0.59417252223E+02  0.71059259910E+02  0.00000000000E+00 0. -1.
         -2    1    1    2    0  502  0.56017462185E+01  0.65556003861E+02  0.53861550268E+03  0.54261923016E+03  0.00000000000E+00 0.  1.
<mgrwt>
<rscale>  2 0.94799123E+02</rscale>
<asrwt>0</asrwt>
<pdfrwt beam="1">  1       21 0.14149118E+00 0.94799123E+02</pdfrwt>
<pdfrwt beam="2">  1       21 0.20853987E-02 0.94799123E+02</pdfrwt>
<totfact> 0.41151817E+05</totfact>
</mgrwt>
</event>
<event>
 5    1  0.1937580E+000  0.1008013E+03  0.7546771E-02  0.1278620E+00
         21   -1    0    0  503  502  0.00000000000E+00  0.00000000000E+00  0.88181402161E+03  0.88181402161E+03  0.00000000000E+00 0.  1.
         21   -1    0    0  501  503 -0.00000000000E+00 -0.00000000000E+00 -0.92326760259E+02  0.92326760259E+02  0.00000000000E+00 0. -1.
         24    1    1    2    0    0  0.32792161837E+01 -0.41398630137E+02  0.17513314441E+03  0.19713810910E+03  0.80419002446E+02 0. -1.
          1    1    1    2  501    0  0.12192624425E+02  0.74005217608E+02 -0.63448270258E+02  0.98240090199E+02  0.00000000000E+00 0. -1.
         -2    1    1    2    0  502 -0.15471840608E+02 -0.32606587471E+02  0.67780238720E+03  0.67876258257E+03  0.00000000000E+00 0.  1.
<mgrwt>
<rscale>  2 0.10080132E+03</rscale>
<asrwt>0</asrwt>
<pdfrwt beam="1">  1       21 0.13566369E+00 0.10080132E+03</pdfrwt>
<pdfrwt beam="2">  1       21 0.14204118E-01 0.10080132E+03</pdfrwt>
<totfact> 0.18099039E+04</totfact>
</mgrwt>
</event>
<event>
 5    1  0.1855960E+000  0.6408173E+02  0.7546771E-02  0.1381459E+00
         21   -1    0    0  503  502  0.00000000000E+00  0.00000000000E+00  0.48110944291E+03  0.48110944291E+03  0.00000000000E+00 0. -1.
         21   -1    0    0  501  503 -0.00000000000E+00 -0.00000000000E+00 -0.19540493776E+02  0.19540493776E+02  0.00000000000E+00 0. -1.
         24    1    1    2    0    0 -0.65125442043E+01  0.19136021436E+01  0.25708248755E+03  0.26945258668E+03  0.80419002446E+02 0. -1.
          1    1    1    2  501    0 -0.95190151351E+01 -0.20686658972E+02 -0.23502202460E+01  0.22892641695E+02  0.00000000000E+00 0. -1.
         -2    1    1    2    0  502  0.16031559339E+02  0.18773056828E+02  0.20683668182E+03  0.20830470831E+03  0.00000000000E+00 0.  1.
<mgrwt>
<rscale>  2 0.64081727E+02</rscale>
<asrwt>0</asrwt>
<pdfrwt beam="1">  1       21 0.74016828E-01 0.64081727E+02</pdfrwt>
<pdfrwt beam="2">  1       21 0.30062302E-02 0.64081727E+02</pdfrwt>
<totfact> 0.10260703E+06</totfact>
</mgrwt>
</event>
<event>
 5    1  0.1855960E+000  0.7364717E+02  0.7546771E-02  0.1348112E+00
         21   -1    0    0  503  502  0.00000000000E+00  0.00000000000E+00  0.63028597401E+01  0.63028597401E+01  0.00000000000E+00 0. -1.
         21   -1    0    0  501  503 -0.00000000000E+00 -0.00000000000E+00 -0.14634661360E+04  0.14634661360E+04  0.00000000000E+00 0. -1.
         24    1    1    2    0    0 -0.29711534066E+02  0.42290170497E+02 -0.43486614200E+03  0.44524938090E+03  0.80419002446E+02 0. -1.
          1    1    1    2  501    0  0.12036025791E+02 -0.18205719388E+02 -0.79101674353E+03  0.79131776340E+03  0.00000000000E+00 0. -1.
         -2    1    1    2    0  502  0.17675508275E+02 -0.24084451108E+02 -0.23128039074E+03  0.23320185145E+03  0.00000000000E+00 0.  1.
<mgrwt>
<rscale>  2 0.73647169E+02</rscale>
<asrwt>0</asrwt>
<pdfrwt beam="1">  1       21 0.96966942E-03 0.73647169E+02</pdfrwt>
<pdfrwt beam="2">  1       21 0.22514894E+00 0.73647169E+02</pdfrwt>
<totfact> 0.39516851E+05</totfact>
</mgrwt>
</event>
<event>
 5    1  0.1855960E+000  0.7219794E+02  0.7546771E-02  0.1352774E+00
         21   -1    0    0  501  502  0.00000000000E+00  0.00000000000E+00  0.12504665010E+03  0.12504665010E+03  0.00000000000E+00 0.  1.
         21   -1    0    0  502  503 -0.00000000000E+00 -0.00000000000E+00 -0.14386999287E+03  0.14386999287E+03  0.00000000000E+00 0.  1.
         24    1    1    2    0    0 -0.12797328808E+02  0.21558373206E+01  0.73272967347E+02  0.10956533648E+03  0.80419002446E+02 0.  1.
          1    1    1    2  501    0 -0.12397489176E+02 -0.25648874952E+02  0.24623090151E+02  0.37654469759E+02  0.00000000000E+00 0. -1.
         -2    1    1    2    0  503  0.25194817984E+02  0.23493037631E+02 -0.11671940027E+03  0.12169683673E+03  0.00000000000E+00 0.  1.
<mgrwt>
<rscale>  2 0.72197941E+02</rscale>
<asrwt>0</asrwt>
<pdfrwt beam="1">  1       21 0.19237946E-01 0.72197941E+02</pdfrwt>
<pdfrwt beam="2">  1       21 0.22133845E-01 0.72197941E+02</pdfrwt>
<totfact> 0.47849622E+05</totfact>
</mgrwt>
</event>
<event>
 5    1  0.1855960E+000  0.9187886E+02  0.7546771E-02  0.1298365E+00
         21   -1    0    0  503  502  0.00000000000E+00  0.00000000000E+00  0.56892982128E+03  0.56892982128E+03  0.00000000000E+00 0.  1.
         21   -1    0    0  501  503 -0.00000000000E+00 -0.00000000000E+00 -0.18607947193E+02  0.18607947193E+02  0.00000000000E+00 0.  1.
         24    1    1    2    0    0 -0.46918748349E+02  0.13103841050E+02  0.26614991999E+03  0.28226950856E+03  0.80419002446E+02 0.  1.
          1    1    1    2  501    0 -0.16190519072E+02  0.13661738833E+02  0.11485930829E+02  0.24097772154E+02  0.00000000000E+00 0. -1.
         -2    1    1    2    0  502  0.63109267421E+02 -0.26765579884E+02  0.27268602327E+03  0.28117048776E+03  0.00000000000E+00 0.  1.
<mgrwt>
<rscale>  2 0.91878858E+02</rscale>
<asrwt>0</asrwt>
<pdfrwt beam="1">  1       21 0.87527651E-01 0.91878858E+02</pdfrwt>
<pdfrwt beam="2">  1       21 0.28627615E-02 0.91878858E+02</pdfrwt>
<totfact> 0.77180910E+05</totfact>
</mgrwt>
</event>
<event>
 5    1  0.1855960E+000  0.7409859E+02  0.7546771E-02  0.1346685E+00
         21   -1    0    0  501  502  0.00000000000E+00  0.00000000000E+00  0.54528426759E+03  0.54528426759E+03  0.00000000000E+00 0.  1.
         21   -1    0    0  502  503 -0.00000000000E+00 -0.00000000000E+00 -0.14537108427E+02  0.14537108427E+02  0.00000000000E+00 0. -1.
         24    1    1    2    0    0  0.25724779680E+01  0.51989649932E+02  0.17250799688E+03  0.19732147953E+03  0.80419002446E+02 0. -1.
          1    1    1    2  501    0  0.19076196295E+01 -0.21542557173E+02  0.20930724340E+03  0.21042158379E+03  0.00000000000E+00 0. -1.
         -2    1    1    2    0  503 -0.44800975975E+01 -0.30447092759E+02  0.14893191889E+03  0.15207831270E+03  0.00000000000E+00 0.  1.
<mgrwt>
<rscale>  2 0.74098591E+02</rscale>
<asrwt>0</asrwt>
<pdfrwt beam="1">  1       21 0.83889872E-01 0.74098591E+02</pdfrwt>
<pdfrwt beam="2">  1       21 0.22364786E-02 0.74098591E+02</pdfrwt>
<totfact> 0.12591828E+06</totfact>
</mgrwt>
</event>
<event>
 5    1  0.1855960E+000  0.1240318E+03  0.7546771E-02  0.1236590E+00
         21   -1    0    0  503  502  0.00000000000E+00  0.00000000000E+00  0.39048381870E+03  0.39048381870E+03  0.00000000000E+00 0.  1.
         21   -1    0    0  501  503 -0.00000000000E+00 -0.00000000000E+00 -0.80154863002E+02  0.80154863002E+02  0.00000000000E+00 0. -1.
         24    1    1    2    0    0 -0.10756848870E+03  0.97985717072E+01  0.12185495082E+03  0.18161177485E+03  0.80419002446E+02 0.  1.
          1    1    1    2  501    0  0.25939708432E+02 -0.17679927567E+02 -0.37340095222E+02  0.48782486852E+02  0.00000000000E+00 0. -1.
         -2    1    1    2    0  502  0.81628780272E+02  0.78813558594E+01  0.22581410010E+03  0.24024442000E+03  0.00000000000E+00 0.  1.
<mgrwt>
<rscale>  2 0.12403177E+03</rscale>
<asrwt>0</asrwt>
<pdfrwt beam="1">  1       21 0.60074432E-01 0.12403177E+03</pdfrwt>
<pdfrwt beam="2">  1       21 0.12331518E-01 0.12403177E+03</pdfrwt>
<totfact> 0.14776500E+05</totfact>
</mgrwt>
</event>
<event>
 5    1  0.1855960E+000  0.1101969E+03  0.7546771E-02  0.1260206E+00
         21   -1    0    0  503  502  0.00000000000E+00  0.00000000000E+00  0.86041296077E+03  0.86041296077E+03  0.00000000000E+00 0.  1.
         21   -1    0    0  501  503 -0.00000000000E+00 -0.00000000000E+00 -0.20760455134E+02  0.20760455134E+02  0.00000000000E+00 0.  1.
         24    1    1    2    0    0 -0.82259155128E+02 -0.16507184303E+02  0.60714515605E+03  0.61816786733E+03  0.80419002446E+02 0.  1.
          1    1    1    2  501    0  0.19523532111E+02 -0.22899017874E+02  0.15807131445E+02  0.33991156647E+02  0.00000000000E+00 0. -1.
         -2    1    1    2    0  502  0.62735623017E+02  0.39406202176E+02  0.21670021814E+03  0.22901439193E+03  0.00000000000E+00 0.  1.
<mgrwt>
<rscale>  2 0.11019685E+03</rscale>
<asrwt>0</asrwt>
<pdfrwt beam="1">  1       21 0.13237120E+00 0.11019685E+03</pdfrwt>
<pdfrwt beam="2">  1       21 0.31939168E-02 0.11019685E+03</pdfrwt>
<totfact> 0.24231837E+05</totfact>
</mgrwt>
</event>
<event>
 5    1  0.1855960E+000  0.8767147E+02  0.7546771E-02  0.1308591E+00
         21   -1    0    0  501  502  0.00000000000E+00  0.00000000000E+00  0.23995658924E+04  0.23995658924E+04  0.00000000000E+00 0. -1.
         21   -1    0    0  502  503 -0.00000000000E+00 -0.00000000000E+00 -0.54111399952E+01  0.54111399952E+01  0.00000000000E+00 0.  1.
         24    1    1    2    0    0 -0.79430359569E+01 -0.26681588998E+02  0.48790913945E+03  0.49527521978E+03  0.80419002446E+02 0.  0.
          1    1    1    2  501    0  0.29993588842E+02  0.49900379960E+02  0.16989826020E+04  0.16999798661E+04  0.00000000000E+00 0. -1.
         -2    1    1    2    0  503 -0.22050552885E+02 -0.23218790963E+02  0.20726301104E+03  0.20972194659E+03  0.00000000000E+00 0.  1.
<mgrwt>
<rscale>  2 0.87671468E+02</rscale>
<asrwt>0</asrwt>
<pdfrwt beam="1">  1       21 0.36916313E+00 0.87671468E+02</pdfrwt>
<pdfrwt beam="2">  1       21 0.83248499E-03 0.87671468E+02</pdfrwt>
<totfact> 0.78216208E+04</totfact>
</mgrwt>
</event>
<event>
 5    1  0.1855960E+000  0.8593412E+02  0.7546771E-02  0.1313008E+00
         21   -1    0    0  503  502  0.00000000000E+00  0.00000000000E+00  0.13071967570E+03  0.13071967570E+03  0.00000000000E+00 0. -1.
         21   -1    0    0  501  503 -0.00000000000E+00 -0.00000000000E+00 -0.69057784013E+02  0.69057784013E+02  0.00000000000E+00 0.  1.
         24    1    1    2    0    0 -0.19866699282E+02  0.34754710224E+02 -0.36052037496E+00  0.89832742096E+02  0.80419002446E+02 0.  1.
          1    1    1    2  501    0  0.35384811499E+02 -0.49355326948E+02  0.21976594282E+02  0.64583309603E+02  0.00000000000E+00 0. -1.
         -2    1    1    2    0  502 -0.15518112217E+02  0.14600616724E+02  0.40045817783E+02  0.45361408019E+02  0.00000000000E+00 0.  1.
<mgrwt>
<rscale>  2 0.85934117E+02</rscale>
<asrwt>0</asrwt>
<pdfrwt beam="1">  1       21 0.20110719E-01 0.85934117E+02</pdfrwt>
<pdfrwt beam="2">  1       21 0.10624274E-01 0.85934117E+02</pdfrwt>
<totfact> 0.16396253E+06</totfact>
</mgrwt>
</event>
<event>
 5    1  0.1855960E+000  0.7104552E+02  0.7546771E-02  0.1356573E+00
         21   -1    0    0  503  502  0.00000000000E+00  0.00000000000E+00  0.14662739719E+03  0.14662739719E+03  0.00000000000E+00 0.  1.
         21   -1    0    0  501  503 -0.00000000000E+00 -0.00000000000E+00 -0.94845122022E+02  0.94845122022E+02  0.00000000000E+00 0.  1.
         24    1    1    2    0    0 -0.23409962603E+02  0.15624593403E+02 -0.27859591840E+02  0.89641101510E+02  0.80419002446E+02 0.  1.
          1    1    1    2  501    0 -0.49520040241E+01 -0.26166769884E+02 -0.28812691435E+02  0.39235103896E+02  0.00000000000E+00 0. -1.
         -2    1    1    2    0  502  0.28361966627E+02  0.10542176481E+02  0.10845455844E+03  0.11259631381E+03  0.00000000000E+00 0.  1.
<mgrwt>
<rscale>  2 0.71045516E+02</rscale>
<asrwt>0</asrwt>
<pdfrwt beam="1">  1       21 0.22558061E-01 0.71045516E+02</pdfrwt>
<pdfrwt beam="2">  1       21 0.14591557E-01 0.71045516E+02</pdfrwt>
<totfact> 0.75768748E+05</totfact>
</mgrwt>
</event>
<event>
 5    1  0.1855960E+000  0.9447048E+02  0.7546771E-02  0.1292373E+00
         21   -1    0    0  503  502  0.00000000000E+00  0.00000000000E+00  0.76910911577E+03  0.76910911577E+03  0.00000000000E+00 0.  1.
         21   -1    0    0  501  503 -0.00000000000E+00 -0.00000000000E+00 -0.36168124630E+02  0.36168124630E+02  0.00000000000E+00 0. -1.
         24    1    1    2    0    0 -0.40843830685E+02  0.53511800235E+02  0.22247854251E+03  0.24595863291E+03  0.80419002446E+02 0. -1.
          1    1    1    2  501    0  0.41194031580E+02 -0.12495768454E+02 -0.39913756932E+01  0.43232204975E+02  0.00000000000E+00 0. -1.
         -2    1    1    2    0  502 -0.35020089497E+00 -0.41016031781E+02  0.51445382432E+03  0.51608640251E+03  0.00000000000E+00 0.  1.
<mgrwt>
<rscale>  2 0.94470477E+02</rscale>
<asrwt>0</asrwt>
<pdfrwt beam="1">  1       21 0.11832447E+00 0.94470477E+02</pdfrwt>
<pdfrwt beam="2">  1       21 0.55643274E-02 0.94470477E+02</pdfrwt>
<totfact> 0.12803941E+05</totfact>
</mgrwt>
</event>
<event>
 5    1  0.1855960E+000  0.8368319E+02  0.7546771E-02  0.1318912E+00
         21   -1    0    0  501  502  0.00000000000E+00  0.00000000000E+00  0.12701856565E+03  0.12701856565E+03  0.00000000000E+00 0.  1.
         21   -1    0    0  502  503 -0.00000000000E+00 -0.00000000000E+00 -0.72501924567E+02  0.72501924567E+02  0.00000000000E+00 0. -1.
         24    1    1    2    0    0 -0.77173357677E+01 -0.34350923695E+02 -0.14670624207E+02  0.89005541395E+02  0.80419002446E+02 0. -1.
          1    1    1    2  501    0  0.26197628593E+02  0.49286925201E+02  0.66162025865E+02  0.86561714437E+02  0.00000000000E+00 0. -1.
         -2    1    1    2    0  503 -0.18480292825E+02 -0.14936001506E+02  0.30252394236E+01  0.23953234384E+02  0.00000000000E+00 0.  1.
<mgrwt>
<rscale>  2 0.83683195E+02</rscale>
<asrwt>0</asrwt>
<pdfrwt beam="1">  1       21 0.19541318E-01 0.83683195E+02</pdfrwt>
<pdfrwt beam="2">  1       21 0.11154142E-01 0.83683195E+02</pdfrwt>
<totfact> 0.15861186E+06</totfact>
</mgrwt>
</event>
<event>
 5    1  0.1855960E+000  0.6717632E+02  0.7546771E-02  0.1369967E+00
         21   -1    0    0  501  502  0.00000000000E+00  0.00000000000E+00  0.34713700631E+02  0.34713700631E+02  0.00000000000E+00 0. -1.
         21   -1    0    0  502  503 -0.00000000000E+00 -0.00000000000E+00 -0.18197814383E+03  0.18197814383E+03  0.00000000000E+00 0.  1.
         24    1    1    2    0    0 -0.84590706313E+01  0.21413727008E+02 -0.50882265356E+02  0.97909777155E+02  0.80419002446E+02 0.  1.
          1    1    1    2  501    0 -0.17538889933E+02 -0.16822410284E+02 -0.65767523050E+01  0.25176572815E+02  0.00000000000E+00 0. -1.
         -2    1    1    2    0  503  0.25997960564E+02 -0.45913167244E+01 -0.89805425541E+02  0.93605494493E+02  0.00000000000E+00 0.  1.
<mgrwt>
<rscale>  2 0.67176320E+02</rscale>
<asrwt>0</asrwt>
<pdfrwt beam="1">  1       21 0.53405694E-02 0.67176320E+02</pdfrwt>
<pdfrwt beam="2">  1       21 0.27996637E-01 0.67176320E+02</pdfrwt>
<totfact> 0.28167336E+06</totfact>
</mgrwt>
</event>
<event>
 5    1  0.1855960E+000  0.8940560E+02  0.7546771E-02  0.1304298E+00
         21   -1    0    0  501  502  0.00000000000E+00  0.00000000000E+00  0.10130858143E+03  0.10130858143E+03  0.00000000000E+00 0. -1.
         21   -1    0    0  502  503 -0.00000000000E+00 -0.00000000000E+00 -0.39503924796E+03  0.39503924796E+03  0.00000000000E+00 0.  1.
         24    1    1    2    0    0  0.66840712626E+02  0.11727239725E+02 -0.43516094339E+02  0.11386867628E+03  0.80419002446E+02 0.  1.
          1    1    1    2  501    0 -0.31591860778E+02  0.88009022844E+01  0.60650573504E+02  0.68949210400E+02  0.00000000000E+00 0. -1.
         -2    1    1    2    0  503 -0.35248851848E+02 -0.20528142009E+02 -0.31086514570E+03  0.31352994272E+03  0.00000000000E+00 0.  1.
<mgrwt>
<rscale>  2 0.89405596E+02</rscale>
<asrwt>0</asrwt>
<pdfrwt beam="1">  1       21 0.15585936E-01 0.89405596E+02</pdfrwt>
<pdfrwt beam="2">  1       21 0.60775269E-01 0.89405596E+02</pdfrwt>
<totfact> 0.96438279E+04</totfact>
</mgrwt>
</event>
<event>
 5    1  0.1855960E+000  0.8719451E+02  0.7546771E-02  0.1309791E+00
         21   -1    0    0  503  502  0.00000000000E+00  0.00000000000E+00  0.58628099067E+02  0.58628099067E+02  0.00000000000E+00 0.  1.
         21   -1    0    0  501  503 -0.00000000000E+00 -0.00000000000E+00 -0.21512256659E+03  0.21512256659E+03  0.00000000000E+00 0.  1.
         24    1    1    2    0    0  0.25716259000E+02  0.50956516416E+01 -0.50170767490E+02  0.98344361849E+02  0.80419002446E+02 0.  0.
          1    1    1    2  501    0 -0.11552473428E+02  0.40470970856E+02 -0.11884190609E+03  0.12607441361E+03  0.00000000000E+00 0. -1.
         -2    1    1    2    0  502 -0.14163785572E+02 -0.45566622497E+02  0.12518206057E+02  0.49331890197E+02  0.00000000000E+00 0.  1.
<mgrwt>
<rscale>  2 0.87194513E+02</rscale>
<asrwt>0</asrwt>
<pdfrwt beam="1">  1       21 0.90197075E-02 0.87194513E+02</pdfrwt>
<pdfrwt beam="2">  1       21 0.33095780E-01 0.87194513E+02</pdfrwt>
<totfact> 0.85468242E+05</totfact>
</mgrwt>
</event>
<event>
 5    1  0.1855960E+000  0.1625559E+03  0.7546771E-02  0.1185841E+00
         21   -1    0    0  501  502  0.00000000000E+00  0.00000000000E+00  0.71198841061E+02  0.71198841061E+02  0.00000000000E+00 0.  1.
         21   -1    0    0  502  503 -0.00000000000E+00 -0.00000000000E+00 -0.39509567413E+03  0.39509567413E+03  0.00000000000E+00 0.  1.
         24    1    1    2    0    0  0.14099888778E+03  0.49474943821E+02 -0.12681960041E+03  0.21184636750E+03  0.80419002446E+02 0.  1.
          1    1    1    2  501    0 -0.20484605702E+02  0.78858172060E+01 -0.87694048388E+01  0.23636997377E+02  0.00000000000E+00 0. -1.
         -2    1    1    2    0  503 -0.12051428208E+03 -0.57360761027E+02 -0.18830782781E+03  0.23081115031E+03  0.00000000000E+00 0.  1.
<mgrwt>
<rscale>  2 0.16255592E+03</rscale>
<asrwt>0</asrwt>
<pdfrwt beam="1">  1       21 0.10953668E-01 0.16255592E+03</pdfrwt>
<pdfrwt beam="2">  1       21 0.60783950E-01 0.16255592E+03</pdfrwt>
<totfact> 0.17569431E+05</totfact>
</mgrwt>
</event>
<event>
 5    1  0.1855960E+000  0.8728969E+02  0.7546771E-02  0.1309551E+00
         21   -1    0    0  503  502  0.00000000000E+00  0.00000000000E+00  0.34234930692E+02  0.34234930692E+02  0.00000000000E+00 0.  1.
         21   -1    0    0  501  503 -0.00000000000E+00 -0.00000000000E+00 -0.29157899836E+03  0.29157899836E+03  0.00000000000E+00 0. -1.
         24    1    1    2    0    0  0.60891811664E+01 -0.41478914430E+02 -0.78258121618E+02  0.11978784589E+03  0.80419002446E+02 0.  1.
          1    1    1    2  501    0 -0.37746559755E+02  0.95713127727E+01 -0.14352032314E+03  0.14870943466E+03  0.00000000000E+00 0. -1.
         -2    1    1    2    0  502  0.31657378589E+02  0.31907601657E+02 -0.35565622905E+02  0.57316648500E+02  0.00000000000E+00 0.  1.
<mgrwt>
<rscale>  2 0.87289687E+02</rscale>
<asrwt>0</asrwt>
<pdfrwt beam="1">  1       21 0.52669125E-02 0.87289687E+02</pdfrwt>
<pdfrwt beam="2">  1       21 0.44858306E-01 0.87289687E+02</pdfrwt>
<totfact> 0.11675956E+06</totfact>
</mgrwt>
</event>
<event>
 5    1  0.1946012E+000  0.8746596E+02  0.7546771E-02  0.1309107E+00
         21   -1    0    0  501  502  0.00000000000E+00  0.00000000000E+00  0.12220893532E+03  0.12220893532E+03  0.00000000000E+00 0.  1.
         21   -1    0    0  502  503 -0.00000000000E+00 -0.00000000000E+00 -0.28880266188E+03  0.28880266188E+03  0.00000000000E+00 0.  1.
         24    1    1    2    0    0 -0.14670196388E+02 -0.19361445830E+01  0.61549906177E+02  0.10234534783E+03  0.80419002446E+02 0.  1.
          1    1    1    2  501    0 -0.68487294836E+01 -0.42893063826E+02  0.25382848500E+02  0.50309134537E+02  0.00000000000E+00 0. -1.
         -2    1    1    2    0  503  0.21518925871E+02  0.44829208409E+02 -0.25352648123E+03  0.25835711483E+03  0.00000000000E+00 0.  1.
<mgrwt>
<rscale>  2 0.87465962E+02</rscale>
<asrwt>0</asrwt>
<pdfrwt beam="1">  1       21 0.18801375E-01 0.87465962E+02</pdfrwt>
<pdfrwt beam="2">  1       21 0.44431179E-01 0.87465962E+02</pdfrwt>
<totfact> 0.13094067E+05</totfact>
</mgrwt>
</event>
<event>
 5    1  0.1855960E+000  0.1759360E+03  0.7546771E-02  0.1171795E+00
         21   -1    0    0  503  502  0.00000000000E+00  0.00000000000E+00  0.19157307453E+04  0.19157307453E+04  0.00000000000E+00 0.  1.
         21   -1    0    0  501  503 -0.00000000000E+00 -0.00000000000E+00 -0.36426849239E+02  0.36426849239E+02  0.00000000000E+00 0.  1.
         24    1    1    2    0    0  0.12964981904E+03  0.47852095260E+02  0.23175547329E+03  0.28156120818E+03  0.80419002446E+02 0.  1.
          1    1    1    2  501    0  0.28084291315E+02 -0.49917216177E+01  0.19944499662E+02  0.34805570964E+02  0.00000000000E+00 0. -1.
         -2    1    1    2    0  502 -0.15773411036E+03 -0.42860373643E+02  0.16276039231E+04  0.16357908154E+04  0.00000000000E+00 0.  1.
<mgrwt>
<rscale>  2 0.17593604E+03</rscale>
<asrwt>0</asrwt>
<pdfrwt beam="1">  1       21 0.29472773E+00 0.17593604E+03</pdfrwt>
<pdfrwt beam="2">  1       21 0.56041321E-02 0.17593604E+03</pdfrwt>
<totfact> 0.82655337E+03</totfact>
</mgrwt>
</event>
<event>
 5    1  0.1855960E+000  0.8050993E+02  0.7546771E-02  0.1327611E+00
         21   -1    0    0  501  502  0.00000000000E+00  0.00000000000E+00  0.75612359646E+03  0.75612359646E+03  0.00000000000E+00 0. -1.
         21   -1    0    0  502  503 -0.00000000000E+00 -0.00000000000E+00 -0.25381408803E+02  0.25381408803E+02  0.00000000000E+00 0.  1.
         24    1    1    2    0    0 -0.19418900895E+02 -0.35538509589E+02  0.42718007557E+03  0.43656627480E+03  0.80419002446E+02 0.  0.
          1    1    1    2  501    0 -0.19859075572E+02  0.32285531831E+01  0.29211476619E+03  0.29280683575E+03  0.00000000000E+00 0. -1.
         -2    1    1    2    0  503  0.39277976467E+02  0.32309956406E+02  0.11447345906E+02  0.52131894715E+02  0.00000000000E+00 0.  1.
<mgrwt>
<rscale>  2 0.80509931E+02</rscale>
<asrwt>0</asrwt>
<pdfrwt beam="1">  1       21 0.11632669E+00 0.80509931E+02</pdfrwt>
<pdfrwt beam="2">  1       21 0.39048327E-02 0.80509931E+02</pdfrwt>
<totfact> 0.24135026E+05</totfact>
</mgrwt>
</event>
<event>
 5    1  0.1855960E+000  0.1353444E+03  0.7546771E-02  0.1219734E+00
         21   -1    0    0  503  502  0.00000000000E+00  0.00000000000E+00  0.73448928001E+03  0.73448928001E+03  0.00000000000E+00 0.  1.
         21   -1    0    0  501  503 -0.00000000000E+00 -0.00000000000E+00 -0.84207915738E+02  0.84207915738E+02  0.00000000000E+00 0. -1.
         24    1    1    2    0    0  0.80003521679E+02 -0.68553631830E+02  0.96518937760E+02  0.16396123084E+03  0.80419002446E+02 0.  1.
          1    1    1    2  501    0 -0.96835014880E+02  0.39523727942E+02  0.47491486891E+01  0.10469813556E+03  0.00000000000E+00 0. -1.
         -2    1    1    2    0  502  0.16831493201E+02  0.29029903887E+02  0.54901327782E+03  0.55003782935E+03  0.00000000000E+00 0.  1.
<mgrwt>
<rscale>  2 0.13534440E+03</rscale>
<asrwt>0</asrwt>
<pdfrwt beam="1">  1       21 0.11299835E+00 0.13534440E+03</pdfrwt>
<pdfrwt beam="2">  1       21 0.12955064E-01 0.13534440E+03</pdfrwt>
<totfact> 0.32402897E+04</totfact>
</mgrwt>
</event>
<event>
 5    1  0.1855960E+000  0.8011736E+02  0.7546771E-02  0.1328719E+00
         21   -1    0    0  503  502  0.00000000000E+00  0.00000000000E+00  0.49415599457E+02  0.49415599457E+02  0.00000000000E+00 0.  1.
         21   -1    0    0  501  503 -0.00000000000E+00 -0.00000000000E+00 -0.13890312281E+03  0.13890312281E+03  0.00000000000E+00 0. -1.
         24    1    1    2    0    0  0.63020748374E+00 -0.37776469402E+01 -0.60361237518E+02  0.10062486138E+03  0.80419002446E+02 0. -1.
          1    1    1    2  501    0  0.11093250909E+02  0.40074427855E+02 -0.26820993055E+02  0.49481164620E+02  0.00000000000E+00 0. -1.
         -2    1    1    2    0  502 -0.11723458393E+02 -0.36296780915E+02 -0.23052927791E+01  0.38212696271E+02  0.00000000000E+00 0.  1.
<mgrwt>
<rscale>  2 0.80117364E+02</rscale>
<asrwt>0</asrwt>
<pdfrwt beam="1">  1       21 0.76024000E-02 0.80117364E+02</pdfrwt>
<pdfrwt beam="2">  1       21 0.21369711E-01 0.80117364E+02</pdfrwt>
<totfact> 0.25980005E+06</totfact>
</mgrwt>
</event>
<event>
 5    1  0.1855960E+000  0.7841753E+02  0.7546771E-02  0.1333603E+00
         21   -1    0    0  501  502  0.00000000000E+00  0.00000000000E+00  0.61110136628E+02  0.61110136628E+02  0.00000000000E+00 0.  1.
         21   -1    0    0  502  503 -0.00000000000E+00 -0.00000000000E+00 -0.13441265508E+03  0.13441265508E+03  0.00000000000E+00 0.  1.
         24    1    1    2    0    0  0.55899031831E+02  0.11482474540E+02 -0.57114254102E+02  0.11395526735E+03  0.80419002446E+02 0.  1.
          1    1    1    2  501    0 -0.25566255791E+02  0.60506303699E+00  0.20264443801E+02  0.32628932238E+02  0.00000000000E+00 0. -1.
         -2    1    1    2    0  503 -0.30332776040E+02 -0.12087537577E+02 -0.36452708147E+02  0.48938592115E+02  0.00000000000E+00 0.  1.
<mgrwt>
<rscale>  2 0.78417534E+02</rscale>
<asrwt>0</asrwt>
<pdfrwt beam="1">  1       21 0.94015595E-02 0.78417534E+02</pdfrwt>
<pdfrwt beam="2">  1       21 0.20678870E-01 0.78417534E+02</pdfrwt>
<totfact> 0.19179284E+06</totfact>
</mgrwt>
</event>
<event>
 5    1  0.1855960E+000  0.6510797E+02  0.7546771E-02  0.1377566E+00
         21   -1    0    0  503  502  0.00000000000E+00  0.00000000000E+00  0.73437486263E+02  0.73437486263E+02  0.00000000000E+00 0.  1.
         21   -1    0    0  501  503 -0.00000000000E+00 -0.00000000000E+00 -0.64295766500E+02  0.64295766500E+02  0.00000000000E+00 0. -1.
         24    1    1    2    0    0 -0.11306070463E+02  0.14571752282E+02 -0.13614872686E+02  0.83622627957E+02  0.80419002446E+02 0. -1.
          1    1    1    2  501    0  0.16027369755E+02  0.12439483938E+02  0.34614215352E+01  0.20581515516E+02  0.00000000000E+00 0. -1.
         -2    1    1    2    0  502 -0.47212992918E+01 -0.27011236220E+02  0.19295170913E+02  0.33529109289E+02  0.00000000000E+00 0.  1.
<mgrwt>
<rscale>  2 0.65107974E+02</rscale>
<asrwt>0</asrwt>
<pdfrwt beam="1">  1       21 0.11298075E-01 0.65107974E+02</pdfrwt>
<pdfrwt beam="2">  1       21 0.98916564E-02 0.65107974E+02</pdfrwt>
<totfact> 0.50861737E+06</totfact>
</mgrwt>
</event>
<event>
 5    1  0.1855960E+000  0.2140240E+03  0.7546771E-02  0.1138418E+00
         21   -1    0    0  503  502  0.00000000000E+00  0.00000000000E+00  0.30739522344E+03  0.30739522344E+03  0.00000000000E+00 0.  1.
         21   -1    0    0  501  503 -0.00000000000E+00 -0.00000000000E+00 -0.53397887568E+03  0.53397887568E+03  0.00000000000E+00 0. -1.
         24    1    1    2    0    0 -0.10027020927E+03  0.20562425756E+02 -0.70206242550E+02  0.14789543829E+03  0.80419002446E+02 0.  0.
          1    1    1    2  501    0 -0.20427706533E+02  0.11475164353E+03 -0.38466906796E+03  0.40193970037E+03  0.00000000000E+00 0. -1.
         -2    1    1    2    0  502  0.12069791581E+03 -0.13531406929E+03  0.22829165827E+03  0.29153896045E+03  0.00000000000E+00 0.  1.
<mgrwt>
<rscale>  2 0.21402399E+03</rscale>
<asrwt>0</asrwt>
<pdfrwt beam="1">  1       21 0.47291573E-01 0.21402399E+03</pdfrwt>
<pdfrwt beam="2">  1       21 0.82150596E-01 0.21402399E+03</pdfrwt>
<totfact> 0.54514075E+03</totfact>
</mgrwt>
</event>
<event>
 5    1  0.1855960E+000  0.7990979E+02  0.7546771E-02  0.1329308E+00
         21   -1    0    0  501  502  0.00000000000E+00  0.00000000000E+00  0.20943635615E+03  0.20943635615E+03  0.00000000000E+00 0.  1.
         21   -1    0    0  502  503 -0.00000000000E+00 -0.00000000000E+00 -0.32212099920E+02  0.32212099920E+02  0.00000000000E+00 0. -1.
         24    1    1    2    0    0 -0.10149239554E+02 -0.39103414945E+02  0.83025788279E+02  0.12244419789E+03  0.80419002446E+02 0.  0.
          1    1    1    2  501    0 -0.14516472416E+02  0.42513125534E+02  0.76286005285E+02  0.88530494274E+02  0.00000000000E+00 0. -1.
         -2    1    1    2    0  503  0.24665711970E+02 -0.34097105892E+01  0.17912462669E+02  0.30673763906E+02  0.00000000000E+00 0.  1.
<mgrwt>
<rscale>  2 0.79909791E+02</rscale>
<asrwt>0</asrwt>
<pdfrwt beam="1">  1       21 0.32220977E-01 0.79909791E+02</pdfrwt>
<pdfrwt beam="2">  1       21 0.49557078E-02 0.79909791E+02</pdfrwt>
<totfact> 0.24649872E+06</totfact>
</mgrwt>
</event>
<event>
 5    1  0.1855960E+000  0.7652520E+02  0.7546771E-02  0.1339212E+00
         21   -1    0    0  503  502  0.00000000000E+00  0.00000000000E+00  0.19655229681E+02  0.19655229681E+02  0.00000000000E+00 0.  1.
         21   -1    0    0  501  503 -0.00000000000E+00 -0.00000000000E+00 -0.70740888556E+03  0.70740888556E+03  0.00000000000E+00 0. -1.
         24    1    1    2    0    0  0.13815576131E+02 -0.12180002340E+02 -0.22315225952E+03  0.23791462646E+03  0.80419002446E+02 0. -1.
          1    1    1    2  501    0 -0.17788430927E+01  0.40102988474E+02 -0.45570260788E+03  0.45746724560E+03  0.00000000000E+00 0. -1.
         -2    1    1    2    0  502 -0.12036733038E+02 -0.27922986134E+02 -0.88987884857E+01  0.31682243187E+02  0.00000000000E+00 0.  1.
<mgrwt>
<rscale>  2 0.76525203E+02</rscale>
<asrwt>0</asrwt>
<pdfrwt beam="1">  1       21 0.30238816E-02 0.76525203E+02</pdfrwt>
<pdfrwt beam="2">  1       21 0.10883213E+00 0.76525203E+02</pdfrwt>
<totfact> 0.42866228E+05</totfact>
</mgrwt>
</event>
<event>
 5    1  0.1855960E+000  0.7054345E+02  0.7546771E-02  0.1358255E+00
         21   -1    0    0  503  502  0.00000000000E+00  0.00000000000E+00  0.72900367675E+02  0.72900367675E+02  0.00000000000E+00 0.  1.
         21   -1    0    0  501  503 -0.00000000000E+00 -0.00000000000E+00 -0.83343304510E+02  0.83343304510E+02  0.00000000000E+00 0. -1.
         24    1    1    2    0    0 -0.22754392549E+02  0.80563655590E+01 -0.32887234518E+00  0.83964227607E+02  0.80419002446E+02 0.  1.
          1    1    1    2  501    0  0.35130883471E+02  0.87951966996E+01 -0.27188506338E+02  0.45285199959E+02  0.00000000000E+00 0. -1.
         -2    1    1    2    0  502 -0.12376490922E+02 -0.16851562259E+02  0.17074441849E+02  0.26994244619E+02  0.00000000000E+00 0.  1.
<mgrwt>
<rscale>  2 0.70543447E+02</rscale>
<asrwt>0</asrwt>
<pdfrwt beam="1">  1       21 0.11215441E-01 0.70543447E+02</pdfrwt>
<pdfrwt beam="2">  1       21 0.12822047E-01 0.70543447E+02</pdfrwt>
<totfact> 0.33053247E+06</totfact>
</mgrwt>
</event>
<event>
 5    1  0.1855960E+000  0.8515107E+02  0.7546771E-02  0.1315038E+00
         21   -1    0    0  501  502  0.00000000000E+00  0.00000000000E+00  0.21899375051E+02  0.21899375051E+02  0.00000000000E+00 0.  1.
         21   -1    0    0  502  503 -0.00000000000E+00 -0.00000000000E+00 -0.41930851222E+03  0.41930851222E+03  0.00000000000E+00 0. -1.
         24    1    1    2    0    0 -0.41020430636E+02  0.58607620914E+01 -0.24495360103E+03  0.26112546194E+03  0.80419002446E+02 0.  0.
          1    1    1    2  501    0 -0.46521308823E+01  0.24535505877E+02 -0.90858264146E+01  0.26574153082E+02  0.00000000000E+00 0. -1.
         -2    1    1    2    0  503  0.45672561518E+02 -0.30396267969E+02 -0.14336970973E+03  0.15350827225E+03  0.00000000000E+00 0.  1.
<mgrwt>
<rscale>  2 0.85151072E+02</rscale>
<asrwt>0</asrwt>
<pdfrwt beam="1">  1       21 0.33691346E-02 0.85151072E+02</pdfrwt>
<pdfrwt beam="2">  1       21 0.64509002E-01 0.85151072E+02</pdfrwt>
<totfact> 0.11519361E+06</totfact>
</mgrwt>
</event>
<event>
 5    1  0.1855960E+000  0.8487638E+02  0.7546771E-02  0.1315756E+00
         21   -1    0    0  503  502  0.00000000000E+00  0.00000000000E+00  0.74280507030E+02  0.74280507030E+02  0.00000000000E+00 0.  1.
         21   -1    0    0  501  503 -0.00000000000E+00 -0.00000000000E+00 -0.13349908020E+03  0.13349908020E+03  0.00000000000E+00 0. -1.
         24    1    1    2    0    0 -0.12653414762E+02 -0.56508398359E+00 -0.73047998334E+02  0.10937849076E+03  0.80419002446E+02 0. -1.
          1    1    1    2  501    0  0.41328165980E+02 -0.26350907421E+02 -0.13102432334E+02  0.50735208270E+02  0.00000000000E+00 0. -1.
         -2    1    1    2    0  502 -0.28674751218E+02  0.26915991404E+02  0.26931857493E+02  0.47665888209E+02  0.00000000000E+00 0.  1.
<mgrwt>
<rscale>  2 0.84876380E+02</rscale>
<asrwt>0</asrwt>
<pdfrwt beam="1">  1       21 0.11427770E-01 0.84876380E+02</pdfrwt>
<pdfrwt beam="2">  1       21 0.20538320E-01 0.84876380E+02</pdfrwt>
<totfact> 0.13889830E+06</totfact>
</mgrwt>
</event>
<event>
 5    1  0.1855960E+000  0.7023380E+02  0.7546771E-02  0.1359300E+00
         21   -1    0    0  501  502  0.00000000000E+00  0.00000000000E+00  0.17597438014E+03  0.17597438014E+03  0.00000000000E+00 0. -1.
         21   -1    0    0  502  503 -0.00000000000E+00 -0.00000000000E+00 -0.10968519776E+03  0.10968519776E+03  0.00000000000E+00 0.  1.
         24    1    1    2    0    0  0.12902968056E+02 -0.15754884395E+01  0.16435175976E+02  0.83104149789E+02  0.80419002446E+02 0. -1.
          1    1    1    2  501    0 -0.31640147064E+02 -0.14038482442E+02  0.12178140990E+03  0.12660525144E+03  0.00000000000E+00 0. -1.
         -2    1    1    2    0  503  0.18737179009E+02  0.15613970881E+02 -0.71927403496E+02  0.75950176679E+02  0.00000000000E+00 0.  1.
<mgrwt>
<rscale>  2 0.70233804E+02</rscale>
<asrwt>0</asrwt>
<pdfrwt beam="1">  1       21 0.27072982E-01 0.70233804E+02</pdfrwt>
<pdfrwt beam="2">  1       21 0.16874646E-01 0.70233804E+02</pdfrwt>
<totfact> 0.41698127E+05</totfact>
</mgrwt>
</event>
<event>
 5    1  0.1855960E+000  0.6662402E+02  0.7546771E-02  0.1371965E+00
         21   -1    0    0  503  502  0.00000000000E+00  0.00000000000E+00  0.26991410365E+02  0.26991410365E+02  0.00000000000E+00 0.  1.
         21   -1    0    0  501  503 -0.00000000000E+00 -0.00000000000E+00 -0.73588917374E+03  0.73588917374E+03  0.00000000000E+00 0.  1.
         24    1    1    2    0    0  0.20184509393E+02 -0.16031853204E+02 -0.29083702943E+03  0.30284951441E+03  0.80419002446E+02 0.  1.
          1    1    1    2  501    0 -0.19575355861E+02 -0.10531553338E+02 -0.43023185499E+03  0.43080570704E+03  0.00000000000E+00 0. -1.
         -2    1    1    2    0  502 -0.60915353230E+00  0.26563406542E+02  0.12171121038E+02  0.29225362658E+02  0.00000000000E+00 0.  1.
<mgrwt>
<rscale>  2 0.66624018E+02</rscale>
<asrwt>0</asrwt>
<pdfrwt beam="1">  1       21 0.41525252E-02 0.66624018E+02</pdfrwt>
<pdfrwt beam="2">  1       21 0.11321371E+00 0.66624018E+02</pdfrwt>
<totfact> 0.23384738E+05</totfact>
</mgrwt>
</event>
<event>
 5    1  0.1855960E+000  0.8830765E+02  0.7546771E-02  0.1307002E+00
         21   -1    0    0  501  502  0.00000000000E+00  0.00000000000E+00  0.11398810403E+03  0.11398810403E+03  0.00000000000E+00 0. -1.
         21   -1    0    0  502  503 -0.00000000000E+00 -0.00000000000E+00 -0.20437493870E+03  0.20437493870E+03  0.00000000000E+00 0. -1.
         24    1    1    2    0    0 -0.53465543377E+02  0.28637060592E+02  0.12872854611E+02  0.10154591035E+03  0.80419002446E+02 0.  0.
          1    1    1    2  501    0  0.53487894794E+02 -0.66478851646E+01  0.42977285898E+02  0.68936176060E+02  0.00000000000E+00 0. -1.
         -2    1    1    2    0  503 -0.22351416868E-01 -0.21989175428E+02 -0.14623697518E+03  0.14788095633E+03  0.00000000000E+00 0.  1.
<mgrwt>
<rscale>  2 0.88307645E+02</rscale>
<asrwt>0</asrwt>
<pdfrwt beam="1">  1       21 0.17536631E-01 0.88307645E+02</pdfrwt>
<pdfrwt beam="2">  1       21 0.31442298E-01 0.88307645E+02</pdfrwt>
<totfact> 0.29254219E+05</totfact>
</mgrwt>
</event>
<event>
 5    1  0.1855960E+000  0.7167999E+02  0.7546771E-02  0.1354472E+00
         21   -1    0    0  503  502  0.00000000000E+00  0.00000000000E+00  0.87120084342E+03  0.87120084342E+03  0.00000000000E+00 0.  1.
         21   -1    0    0  501  503 -0.00000000000E+00 -0.00000000000E+00 -0.98373165141E+01  0.98373165141E+01  0.00000000000E+00 0.  1.
         24    1    1    2    0    0 -0.15773618578E+02  0.27266338420E+01  0.60776893549E+03  0.61327525343E+03  0.80419002446E+02 0.  1.
          1    1    1    2  501    0 -0.21720434405E+02  0.66479906941E+01  0.17899041442E+02  0.28919694596E+02  0.00000000000E+00 0. -1.
         -2    1    1    2    0  502  0.37494052983E+02 -0.93746245360E+01  0.23569554997E+03  0.23884321190E+03  0.00000000000E+00 0.  1.
<mgrwt>
<rscale>  2 0.71679994E+02</rscale>
<asrwt>0</asrwt>
<pdfrwt beam="1">  1       21 0.13403084E+00 0.71679994E+02</pdfrwt>
<pdfrwt beam="2">  1       21 0.15134340E-02 0.71679994E+02</pdfrwt>
<totfact> 0.78654775E+05</totfact>
</mgrwt>
</event>
<event>
 5    1  0.1855960E+000  0.7433881E+02  0.7546771E-02  0.1345931E+00
         21   -1    0    0  503  502  0.00000000000E+00  0.00000000000E+00  0.49389207485E+02  0.49389207485E+02  0.00000000000E+00 0.  1.
         21   -1    0    0  501  503 -0.00000000000E+00 -0.00000000000E+00 -0.19529947643E+03  0.19529947643E+03  0.00000000000E+00 0.  1.
         24    1    1    2    0    0  0.47915484886E+02 -0.21303590010E+02 -0.16063453902E+03  0.18713740332E+03  0.80419002446E+02 0.  1.
          1    1    1    2  501    0 -0.22025903026E+02  0.12508847514E+02 -0.21496742904E+01  0.25421108745E+02  0.00000000000E+00 0. -1.
         -2    1    1    2    0  502 -0.25889581860E+02  0.87947424952E+01  0.16873944372E+02  0.32130171850E+02  0.00000000000E+00 0.  1.
<mgrwt>
<rscale>  2 0.74338810E+02</rscale>
<asrwt>0</asrwt>
<pdfrwt beam="1">  1       21 0.75983397E-02 0.74338810E+02</pdfrwt>
<pdfrwt beam="2">  1       21 0.30046073E-01 0.74338810E+02</pdfrwt>
<totfact> 0.13725853E+06</totfact>
</mgrwt>
</event>
<event>
 5    1  0.1855960E+000  0.9248903E+02  0.7546771E-02  0.1296934E+00
         21   -1    0    0  501  502  0.00000000000E+00  0.00000000000E+00  0.23062642440E+03  0.23062642440E+03  0.00000000000E+00 0.  1.
         21   -1    0    0  502  503 -0.00000000000E+00 -0.00000000000E+00 -0.46905435906E+02  0.46905435906E+02  0.00000000000E+00 0.  1.
         24    1    1    2    0    0 -0.50564083084E+02 -0.15034635728E+02  0.33137470473E+02  0.10172548684E+03  0.80419002446E+02 0.  1.
          1    1    1    2  501    0 -0.10010716772E+02  0.25440409630E+02  0.64296813745E+02  0.69867797662E+02  0.00000000000E+00 0. -1.
         -2    1    1    2    0  503  0.60574799856E+02 -0.10405773902E+02  0.86286704273E+02  0.10593857580E+03  0.00000000000E+00 0.  1.
<mgrwt>
<rscale>  2 0.92489025E+02</rscale>
<asrwt>0</asrwt>
<pdfrwt beam="1">  1       21 0.35480988E-01 0.92489025E+02</pdfrwt>
<pdfrwt beam="2">  1       21 0.72162211E-02 0.92489025E+02</pdfrwt>
<totfact> 0.10944764E+06</totfact>
</mgrwt>
</event>
<event>
 5    1  0.1855960E+000  0.8396813E+02  0.7546771E-02  0.1318153E+00
         21   -1    0    0  503  502  0.00000000000E+00  0.00000000000E+00  0.54275038384E+03  0.54275038384E+03  0.00000000000E+00 0. -1.
         21   -1    0    0  501  503 -0.00000000000E+00 -0.00000000000E+00 -0.44140443789E+02  0.44140443789E+02  0.00000000000E+00 0. -1.
         24    1    1    2    0    0 -0.21716981277E+02 -0.14187812989E+02  0.11469657051E+03  0.14246206707E+03  0.80419002446E+02 0.  0.
          1    1    1    2  501    0 -0.70334901230E+01 -0.29947991694E+02 -0.20261570552E+02  0.36835898673E+02  0.00000000000E+00 0. -1.
         -2    1    1    2    0  502  0.28750471400E+02  0.44135804684E+02  0.40417494010E+03  0.40759286189E+03  0.00000000000E+00 0.  1.
<mgrwt>
<rscale>  2 0.83968126E+02</rscale>
<asrwt>0</asrwt>
<pdfrwt beam="1">  1       21 0.83500054E-01 0.83968126E+02</pdfrwt>
<pdfrwt beam="2">  1       21 0.67908379E-02 0.83968126E+02</pdfrwt>
<totfact> 0.20574390E+05</totfact>
</mgrwt>
</event>
<event>
 5    1  0.1855960E+000  0.1498237E+03  0.7546771E-02  0.1200690E+00
         21   -1    0    0  501  502  0.00000000000E+00  0.00000000000E+00  0.34587049068E+02  0.34587049068E+02  0.00000000000E+00 0. -1.
         21   -1    0    0  502  503 -0.00000000000E+00 -0.00000000000E+00 -0.12474220817E+04  0.12474220817E+04  0.00000000000E+00 0. -1.
         24    1    1    2    0    0 -0.65732227300E+01 -0.12793803782E+03 -0.56190853739E+03  0.58191044768E+03  0.80419002446E+02 0. -1.
          1    1    1    2  501    0  0.40808295641E+02  0.73969452070E+02 -0.55113525040E+02  0.10086772266E+03  0.00000000000E+00 0. -1.
         -2    1    1    2    0  503 -0.34235072911E+02  0.53968585753E+02 -0.59581297025E+03  0.59923096047E+03  0.00000000000E+00 0.  1.
<mgrwt>
<rscale>  2 0.14982372E+03</rscale>
<asrwt>0</asrwt>
<pdfrwt beam="1">  1       21 0.53210846E-02 0.14982372E+03</pdfrwt>
<pdfrwt beam="2">  1       21 0.19191108E+00 0.14982372E+03</pdfrwt>
<totfact> 0.37805653E+04</totfact>
</mgrwt>
</event>
<event>
 5    1  0.1855960E+000  0.8489743E+02  0.7546771E-02  0.1315701E+00
         21   -1    0    0  503  502  0.00000000000E+00  0.00000000000E+00  0.27368440800E+02  0.27368440800E+02  0.00000000000E+00 0. -1.
         21   -1    0    0  501  503 -0.00000000000E+00 -0.00000000000E+00 -0.42256785054E+03  0.42256785054E+03  0.00000000000E+00 0.  1.
         24    1    1    2    0    0  0.63586935404E+01  0.50498677711E+02 -0.78821082778E+02  0.12357397978E+03  0.80419002446E+02 0. -1.
          1    1    1    2  501    0  0.21627024069E+02 -0.66902983037E+01 -0.15942078778E+03  0.16102011005E+03  0.00000000000E+00 0. -1.
         -2    1    1    2    0  502 -0.27985717610E+02 -0.43808379407E+02 -0.15695753918E+03  0.16534220152E+03  0.00000000000E+00 0.  1.
<mgrwt>
<rscale>  2 0.84897432E+02</rscale>
<asrwt>0</asrwt>
<pdfrwt beam="1">  1       21 0.42105296E-02 0.84897432E+02</pdfrwt>
<pdfrwt beam="2">  1       21 0.65010435E-01 0.84897432E+02</pdfrwt>
<totfact> 0.78625520E+05</totfact>
</mgrwt>
</event>
<event>
 5    1  0.1855960E+000  0.8329994E+02  0.7546771E-02  0.1319939E+00
         21   -1    0    0  503  502  0.00000000000E+00  0.00000000000E+00  0.10940232969E+03  0.10940232969E+03  0.00000000000E+00 0.  1.
         21   -1    0    0  501  503 -0.00000000000E+00 -0.00000000000E+00 -0.21648682462E+03  0.21648682462E+03  0.00000000000E+00 0. -1.
         24    1    1    2    0    0  0.62305308514E+02 -0.14034709866E+02 -0.11028654401E+03  0.15069592660E+03  0.80419002446E+02 0.  0.
          1    1    1    2  501    0 -0.19552598877E+02  0.54698302637E+01 -0.79310834237E+02  0.81868379692E+02  0.00000000000E+00 0. -1.
         -2    1    1    2    0  502 -0.42752709637E+02  0.85648796024E+01  0.82512883322E+02  0.93324848020E+02  0.00000000000E+00 0.  1.
<mgrwt>
<rscale>  2 0.83299939E+02</rscale>
<asrwt>0</asrwt>
<pdfrwt beam="1">  1       21 0.16831128E-01 0.83299939E+02</pdfrwt>
<pdfrwt beam="2">  1       21 0.33305665E-01 0.83299939E+02</pdfrwt>
<totfact> 0.28223160E+05</totfact>
</mgrwt>
</event>
<event>
 5    1  0.1855960E+000  0.7657389E+02  0.7546771E-02  0.1339065E+00
         21   -1    0    0  501  502  0.00000000000E+00  0.00000000000E+00  0.30106397425E+02  0.30106397425E+02  0.00000000000E+00 0.  1.
         21   -1    0    0  502  503 -0.00000000000E+00 -0.00000000000E+00 -0.32509804698E+03  0.32509804698E+03  0.00000000000E+00 0. -1.
         24    1    1    2    0    0 -0.87802231883E+01  0.46749374261E+01 -0.93246133012E+02  0.12353543878E+03  0.80419002446E+02 0.  1.
          1    1    1    2  501    0  0.17792219305E+02  0.30769742814E+02 -0.10649220679E+02  0.37104528587E+02  0.00000000000E+00 0. -1.
         -2    1    1    2    0  503 -0.90119961170E+01 -0.35444680240E+02 -0.19109629587E+03  0.19456447704E+03  0.00000000000E+00 0.  1.
<mgrwt>
<rscale>  2 0.76573888E+02</rscale>
<asrwt>0</asrwt>
<pdfrwt beam="1">  1       21 0.46317531E-02 0.76573888E+02</pdfrwt>
<pdfrwt beam="2">  1       21 0.50015088E-01 0.76573888E+02</pdfrwt>
<totfact> 0.11562920E+06</totfact>
</mgrwt>
</event>
<event>
 5    1  0.1855960E+000  0.9197350E+02  0.7546771E-02  0.1298142E+00
         21   -1    0    0  503  502  0.00000000000E+00  0.00000000000E+00  0.25289224388E+02  0.25289224388E+02  0.00000000000E+00 0.  1.
         21   -1    0    0  501  503 -0.00000000000E+00 -0.00000000000E+00 -0.42489759632E+03  0.42489759632E+03  0.00000000000E+00 0.  1.
         24    1    1    2    0    0 -0.39869889321E+02  0.41956148307E+01 -0.10131988907E+03  0.13542579937E+03  0.80419002446E+02 0.  1.
          1    1    1    2  501    0 -0.97755117024E+01 -0.34545317353E+02 -0.17207513146E+03  0.17578051782E+03  0.00000000000E+00 0. -1.
         -2    1    1    2    0  502  0.49645401024E+02  0.30349702522E+02 -0.12621335141E+03  0.13898050352E+03  0.00000000000E+00 0.  1.
<mgrwt>
<rscale>  2 0.91973497E+02</rscale>
<asrwt>0</asrwt>
<pdfrwt beam="1">  1       21 0.38906502E-02 0.91973497E+02</pdfrwt>
<pdfrwt beam="2">  1       21 0.65368856E-01 0.91973497E+02</pdfrwt>
<totfact> 0.88581290E+05</totfact>
</mgrwt>
</event>
<event>
 5    1  0.1855960E+000  0.8523081E+02  0.7546771E-02  0.1314830E+00
         21   -1    0    0  503  502  0.00000000000E+00  0.00000000000E+00  0.34949084880E+03  0.34949084880E+03  0.00000000000E+00 0. -1.
         21   -1    0    0  501  503 -0.00000000000E+00 -0.00000000000E+00 -0.64761615730E+02  0.64761615730E+02  0.00000000000E+00 0. -1.
         24    1    1    2    0    0  0.11408732532E+02 -0.49382230554E+02  0.25939009525E+03  0.27625930092E+03  0.80419002446E+02 0. -1.
          1    1    1    2  501    0  0.98957738364E+01  0.52894107617E+02 -0.41370240020E+02  0.67876429780E+02  0.00000000000E+00 0. -1.
         -2    1    1    2    0  502 -0.21304506369E+02 -0.35118770626E+01  0.66709377840E+02  0.70116733837E+02  0.00000000000E+00 0.  1.
<mgrwt>
<rscale>  2 0.85230809E+02</rscale>
<asrwt>0</asrwt>
<pdfrwt beam="1">  1       21 0.53767822E-01 0.85230809E+02</pdfrwt>
<pdfrwt beam="2">  1       21 0.99633257E-02 0.85230809E+02</pdfrwt>
<totfact> 0.27384009E+05</totfact>
</mgrwt>
</event>
<event>
 5    1  0.1855960E+000  0.1153796E+03  0.7546771E-02  0.1250920E+00
         21   -1    0    0  501  502  0.00000000000E+00  0.00000000000E+00  0.85257233326E+02  0.85257233326E+02  0.00000000000E+00 0. -1.
         21   -1    0    0  502  503 -0.00000000000E+00 -0.00000000000E+00 -0.22957912452E+03  0.22957912452E+03  0.00000000000E+00 0. -1.
         24    1    1    2    0    0 -0.10028826074E+03 -0.14742887005E+02 -0.23230757869E+02  0.13146091444E+03  0.80419002446E+02 0. -1.
          1    1    1    2  501    0  0.44654576862E+02  0.63327300770E+01  0.49240804235E+01  0.45369386959E+02  0.00000000000E+00 0. -1.
         -2    1    1    2    0  503  0.55633683874E+02  0.84101569281E+01 -0.12601521375E+03  0.13800605645E+03  0.00000000000E+00 0.  1.
<mgrwt>
<rscale>  2 0.11537961E+03</rscale>
<asrwt>0</asrwt>
<pdfrwt beam="1">  1       21 0.13116497E-01 0.11537961E+03</pdfrwt>
<pdfrwt beam="2">  1       21 0.35319865E-01 0.11537961E+03</pdfrwt>
<totfact> 0.39139630E+05</totfact>
</mgrwt>
</event>
<event>
 5    1  0.1855960E+000  0.8260597E+02  0.7546771E-02  0.1321815E+00
         21   -1    0    0  503  502  0.00000000000E+00  0.00000000000E+00  0.31131437487E+03  0.31131437487E+03  0.00000000000E+00 0.  1.
         21   -1    0    0  501  503 -0.00000000000E+00 -0.00000000000E+00 -0.61130897605E+02  0.61130897605E+02  0.00000000000E+00 0. -1.
         24    1    1    2    0    0  0.55377166014E+02 -0.47351699009E+01  0.14885490887E+03  0.17808439628E+03  0.80419002446E+02 0.  0.
          1    1    1    2  501    0 -0.32617165459E+02 -0.16300563029E+02 -0.37387588165E+02  0.52224702838E+02  0.00000000000E+00 0. -1.
         -2    1    1    2    0  502 -0.22760000555E+02  0.21035732930E+02  0.13871615657E+03  0.14213617336E+03  0.00000000000E+00 0.  1.
<mgrwt>
<rscale>  2 0.82605967E+02</rscale>
<asrwt>0</asrwt>
<pdfrwt beam="1">  1       21 0.47894518E-01 0.82605967E+02</pdfrwt>
<pdfrwt beam="2">  1       21 0.94047537E-02 0.82605967E+02</pdfrwt>
<totfact> 0.38324833E+05</totfact>
</mgrwt>
</event>
<event>
 5    1  0.1855960E+000  0.8274109E+02  0.7546771E-02  0.1321448E+00
         21   -1    0    0  501  502  0.00000000000E+00  0.00000000000E+00  0.98356977125E+03  0.98356977125E+03  0.00000000000E+00 0. -1.
         21   -1    0    0  502  503 -0.00000000000E+00 -0.00000000000E+00 -0.11177476488E+02  0.11177476488E+02  0.00000000000E+00 0.  1.
         24    1    1    2    0    0 -0.16847876396E+02 -0.21610587307E+02  0.37383382891E+03  0.38336642526E+03  0.80419002446E+02 0.  1.
          1    1    1    2  501    0 -0.27511094612E+02 -0.61544431023E+01  0.49057974162E+03  0.49138907231E+03  0.00000000000E+00 0. -1.
         -2    1    1    2    0  503  0.44358971008E+02  0.27765030409E+02  0.10797872424E+03  0.11999175018E+03  0.00000000000E+00 0.  1.
<mgrwt>
<rscale>  2 0.82741090E+02</rscale>
<asrwt>0</asrwt>
<pdfrwt beam="1">  1       21 0.15131836E+00 0.82741090E+02</pdfrwt>
<pdfrwt beam="2">  1       21 0.17196125E-02 0.82741090E+02</pdfrwt>
<totfact> 0.47396559E+05</totfact>
</mgrwt>
</event>
<event>
 5    1  0.1855960E+000  0.7141297E+02  0.7546771E-02  0.1355353E+00
         21   -1    0    0  501  502  0.00000000000E+00  0.00000000000E+00  0.32892309125E+02  0.32892309125E+02  0.00000000000E+00 0.  1.
         21   -1    0    0  502  503 -0.00000000000E+00 -0.00000000000E+00 -0.15531399471E+03  0.15531399471E+03  0.00000000000E+00 0.  1.
         24    1    1    2    0    0  0.43720055273E+02 -0.19521586743E+02 -0.76776544958E+02  0.12105531542E+03  0.80419002446E+02 0.  1.
          1    1    1    2  501    0 -0.21728955865E+02  0.34654183499E+01 -0.21348463599E+02  0.30658009481E+02  0.00000000000E+00 0. -1.
         -2    1    1    2    0  503 -0.21991099407E+02  0.16056168393E+02 -0.24296677025E+02  0.36492978928E+02  0.00000000000E+00 0.  1.
<mgrwt>
<rscale>  2 0.71412965E+02</rscale>
<asrwt>0</asrwt>
<pdfrwt beam="1">  1       21 0.50603553E-02 0.71412965E+02</pdfrwt>
<pdfrwt beam="2">  1       21 0.23894461E-01 0.71412965E+02</pdfrwt>
<totfact> 0.41535493E+06</totfact>
</mgrwt>
</event>
<event>
 5    1  0.1855960E+000  0.1416813E+03  0.7546771E-02  0.1211084E+00
         21   -1    0    0  503  502  0.00000000000E+00  0.00000000000E+00  0.10013726245E+04  0.10013726245E+04  0.00000000000E+00 0.  1.
         21   -1    0    0  501  503 -0.00000000000E+00 -0.00000000000E+00 -0.13149129217E+03  0.13149129217E+03  0.00000000000E+00 0. -1.
         24    1    1    2    0    0 -0.32190806694E+02  0.11310285637E+03  0.29430272966E+03  0.32697066657E+03  0.80419002446E+02 0. -1.
          1    1    1    2  501    0  0.49543533726E+02 -0.34421691690E+02 -0.10471243324E+03  0.12084745867E+03  0.00000000000E+00 0. -1.
         -2    1    1    2    0  502 -0.17352727031E+02 -0.78681164677E+02  0.68029103592E+03  0.68504579143E+03  0.00000000000E+00 0.  1.
<mgrwt>
<rscale>  2 0.14168129E+03</rscale>
<asrwt>0</asrwt>
<pdfrwt beam="1">  1       21 0.15405732E+00 0.14168129E+03</pdfrwt>
<pdfrwt beam="2">  1       21 0.20229430E-01 0.14168129E+03</pdfrwt>
<totfact> 0.65888377E+03</totfact>
</mgrwt>
</event>
<event>
 5    1  0.1855960E+000  0.8186849E+02  0.7546771E-02  0.1323831E+00
         21   -1    0    0  501  502  0.00000000000E+00  0.00000000000E+00  0.61958050636E+03  0.61958050636E+03  0.00000000000E+00 0.  1.
         21   -1    0    0  502  503 -0.00000000000E+00 -0.00000000000E+00 -0.11573887435E+02  0.11573887435E+02  0.00000000000E+00 0. -1.
         24    1    1    2    0    0  0.38290891905E+01  0.18717549990E+02  0.29748354845E+03  0.30875343910E+03  0.80419002446E+02 0.  0.
          1    1    1    2  501    0 -0.33697091740E+02  0.14257036394E+02  0.19891131680E+03  0.20224853282E+03  0.00000000000E+00 0. -1.
         -2    1    1    2    0  503  0.29868002549E+02 -0.32974586385E+02  0.11161175368E+03  0.12015242188E+03  0.00000000000E+00 0.  1.
<mgrwt>
<rscale>  2 0.81868492E+02</rscale>
<asrwt>0</asrwt>
<pdfrwt beam="1">  1       21 0.95320052E-01 0.81868492E+02</pdfrwt>
<pdfrwt beam="2">  1       21 0.17805985E-02 0.81868492E+02</pdfrwt>
<totfact> 0.13619913E+06</totfact>
</mgrwt>
</event>
<event>
 5    1  0.1855960E+000  0.8759951E+02  0.7546771E-02  0.1308771E+00
         21   -1    0    0  503  502  0.00000000000E+00  0.00000000000E+00  0.40174994816E+03  0.40174994816E+03  0.00000000000E+00 0.  1.
         21   -1    0    0  501  503 -0.00000000000E+00 -0.00000000000E+00 -0.22432805315E+02  0.22432805315E+02  0.00000000000E+00 0.  1.
         24    1    1    2    0    0 -0.18299196427E+02 -0.37709220108E+02  0.19282797298E+03  0.21308845344E+03  0.80419002446E+02 0.  1.
          1    1    1    2  501    0  0.55551516382E+01 -0.22394112432E+02  0.11798986082E+02  0.25914707290E+02  0.00000000000E+00 0. -1.
         -2    1    1    2    0  502  0.12744044789E+02  0.60103332540E+02  0.17469018378E+03  0.18517959274E+03  0.00000000000E+00 0.  1.
<mgrwt>
<rscale>  2 0.87599514E+02</rscale>
<asrwt>0</asrwt>
<pdfrwt beam="1">  1       21 0.61807679E-01 0.87599514E+02</pdfrwt>
<pdfrwt beam="2">  1       21 0.34512011E-02 0.87599514E+02</pdfrwt>
<totfact> 0.12132361E+06</totfact>
</mgrwt>
</event>
<event>
 5    1  0.1855960E+000  0.8638533E+02  0.7546771E-02  0.1311849E+00
         21   -1    0    0  503  502  0.00000000000E+00  0.00000000000E+00  0.81299591509E+02  0.81299591509E+02  0.00000000000E+00 0.  1.
         21   -1    0    0  501  503 -0.00000000000E+00 -0.00000000000E+00 -0.16800492409E+03  0.16800492409E+03  0.00000000000E+00 0.  1.
         24    1    1    2    0    0  0.37040130956E+02  0.31332463272E+02 -0.11144219612E+03  0.14574043223E+03  0.80419002446E+02 0.  1.
          1    1    1    2  501    0 -0.14133394592E+02  0.18924562739E+02 -0.21190590541E+02  0.31732208323E+02  0.00000000000E+00 0. -1.
         -2    1    1    2    0  502 -0.22906736364E+02 -0.50257026011E+02  0.45927454081E+02  0.71831875047E+02  0.00000000000E+00 0.  1.
<mgrwt>
<rscale>  2 0.86385327E+02</rscale>
<asrwt>0</asrwt>
<pdfrwt beam="1">  1       21 0.12507630E-01 0.86385327E+02</pdfrwt>
<pdfrwt beam="2">  1       21 0.25846911E-01 0.86385327E+02</pdfrwt>
<totfact> 0.77476693E+05</totfact>
</mgrwt>
</event>
<event>
 5    1  0.1855960E+000  0.8127486E+02  0.7546771E-02  0.1325472E+00
         21   -1    0    0  503  502  0.00000000000E+00  0.00000000000E+00  0.49518244258E+02  0.49518244258E+02  0.00000000000E+00 0.  1.
         21   -1    0    0  501  503 -0.00000000000E+00 -0.00000000000E+00 -0.43705346134E+03  0.43705346134E+03  0.00000000000E+00 0. -1.
         24    1    1    2    0    0 -0.21466077193E+01 -0.34742005163E+02 -0.40972908774E+02  0.96734740684E+02  0.80419002446E+02 0. -1.
          1    1    1    2  501    0 -0.19483679654E+02  0.46417322605E+02 -0.35884501863E+03  0.36235884012E+03  0.00000000000E+00 0. -1.
         -2    1    1    2    0  502  0.21630287373E+02 -0.11675317442E+02  0.12282710330E+02  0.27478124795E+02  0.00000000000E+00 0.  1.
<mgrwt>
<rscale>  2 0.81274858E+02</rscale>
<asrwt>0</asrwt>
<pdfrwt beam="1">  1       21 0.76181913E-02 0.81274858E+02</pdfrwt>
<pdfrwt beam="2">  1       21 0.67238995E-01 0.81274858E+02</pdfrwt>
<totfact> 0.27160820E+05</totfact>
</mgrwt>
</event>
<event>
 5    1  0.1855960E+000  0.1067776E+03  0.7546771E-02  0.1266656E+00
         21   -1    0    0  501  502  0.00000000000E+00  0.00000000000E+00  0.85669417290E+03  0.85669417290E+03  0.00000000000E+00 0.  1.
         21   -1    0    0  502  503 -0.00000000000E+00 -0.00000000000E+00 -0.18123406697E+02  0.18123406697E+02  0.00000000000E+00 0. -1.
         24    1    1    2    0    0 -0.66088049027E+02  0.19712822194E+02  0.34781270169E+03  0.36358921462E+03  0.80419002446E+02 0.  1.
          1    1    1    2  501    0  0.73739501590E+02 -0.41435444573E+02  0.47691453056E+03  0.48435718186E+03  0.00000000000E+00 0. -1.
         -2    1    1    2    0  503 -0.76514525632E+01  0.21722622379E+02  0.13843533956E+02  0.26871183110E+02  0.00000000000E+00 0.  1.
<mgrwt>
<rscale>  2 0.10677764E+03</rscale>
<asrwt>0</asrwt>
<pdfrwt beam="1">  1       21 0.13179907E+00 0.10677764E+03</pdfrwt>
<pdfrwt beam="2">  1       21 0.27882171E-02 0.10677764E+03</pdfrwt>
<totfact> 0.30612504E+05</totfact>
</mgrwt>
</event>
<event>
 5    1  0.1855960E+000  0.8180654E+02  0.7546771E-02  0.1324002E+00
         21   -1    0    0  501  502  0.00000000000E+00  0.00000000000E+00  0.71431243713E+02  0.71431243713E+02  0.00000000000E+00 0. -1.
         21   -1    0    0  502  503 -0.00000000000E+00 -0.00000000000E+00 -0.11178877219E+03  0.11178877219E+03  0.00000000000E+00 0.  1.
         24    1    1    2    0    0 -0.14236025961E+02  0.42026268477E+02 -0.25712250934E+02  0.95379282236E+02  0.80419002446E+02 0.  1.
          1    1    1    2  501    0  0.24720730760E+02  0.35713551732E+01  0.18002173766E+02  0.30788753911E+02  0.00000000000E+00 0. -1.
         -2    1    1    2    0  503 -0.10484704800E+02 -0.45597623651E+02 -0.32647451313E+02  0.57051979760E+02  0.00000000000E+00 0.  1.
<mgrwt>
<rscale>  2 0.81806536E+02</rscale>
<asrwt>0</asrwt>
<pdfrwt beam="1">  1       21 0.10989422E-01 0.81806536E+02</pdfrwt>
<pdfrwt beam="2">  1       21 0.17198273E-01 0.81806536E+02</pdfrwt>
<totfact> 0.20495664E+06</totfact>
</mgrwt>
</event>
<event>
 5    1  0.1855960E+000  0.6170321E+02  0.7546771E-02  0.1390820E+00
         21   -1    0    0  503  502  0.00000000000E+00  0.00000000000E+00  0.66270732631E+02  0.66270732631E+02  0.00000000000E+00 0.  1.
         21   -1    0    0  501  503 -0.00000000000E+00 -0.00000000000E+00 -0.63517647097E+02  0.63517647097E+02  0.00000000000E+00 0.  1.
         24    1    1    2    0    0 -0.12780571668E+01  0.26544591175E+01  0.18599543432E+02  0.82594422049E+02  0.80419002446E+02 0.  1.
          1    1    1    2  501    0  0.20106452100E+02 -0.10325014928E+02 -0.14425134404E+02  0.26813426709E+02  0.00000000000E+00 0. -1.
         -2    1    1    2    0  502 -0.18828394933E+02  0.76705558106E+01 -0.14213234938E+01  0.20380530971E+02  0.00000000000E+00 0.  1.
<mgrwt>
<rscale>  2 0.61703205E+02</rscale>
<asrwt>0</asrwt>
<pdfrwt beam="1">  1       21 0.10195497E-01 0.61703205E+02</pdfrwt>
<pdfrwt beam="2">  1       21 0.97719457E-02 0.61703205E+02</pdfrwt>
<totfact> 0.61705025E+06</totfact>
</mgrwt>
</event>
<event>
 5    1  0.1855960E+000  0.1157060E+03  0.7546771E-02  0.1250354E+00
         21   -1    0    0  501  502  0.00000000000E+00  0.00000000000E+00  0.18376873194E+02  0.18376873194E+02  0.00000000000E+00 0. -1.
         21   -1    0    0  502  503 -0.00000000000E+00 -0.00000000000E+00 -0.75688487006E+03  0.75688487006E+03  0.00000000000E+00 0.  1.
         24    1    1    2    0    0  0.31691733152E+02 -0.48321922651E+02 -0.24643214089E+03  0.26558499614E+03  0.80419002446E+02 0. -1.
          1    1    1    2  501    0  0.37572801700E+02  0.50668582404E+02 -0.21477517963E+03  0.22384681917E+03  0.00000000000E+00 0. -1.
         -2    1    1    2    0  503 -0.69264534852E+02 -0.23466597526E+01 -0.27730067635E+03  0.28582992794E+03  0.00000000000E+00 0.  1.
<mgrwt>
<rscale>  2 0.11570599E+03</rscale>
<asrwt>0</asrwt>
<pdfrwt beam="1">  1       21 0.28272121E-02 0.11570599E+03</pdfrwt>
<pdfrwt beam="2">  1       21 0.11644379E+00 0.11570599E+03</pdfrwt>
<totfact> 0.40420042E+05</totfact>
</mgrwt>
</event>
<event>
 5    1  0.1855960E+000  0.9814878E+02  0.7546771E-02  0.1284238E+00
         21   -1    0    0  503  502  0.00000000000E+00  0.00000000000E+00  0.15411238012E+04  0.15411238012E+04  0.00000000000E+00 0.  1.
         21   -1    0    0  501  503 -0.00000000000E+00 -0.00000000000E+00 -0.85927926412E+01  0.85927926412E+01  0.00000000000E+00 0.  1.
         24    1    1    2    0    0 -0.69714251175E+02 -0.42529978809E+02  0.48036996918E+03  0.49385362118E+03  0.80419002446E+02 0.  1.
          1    1    1    2  501    0  0.21664335802E+02  0.14240206161E+02  0.17259104586E+03  0.17452735038E+03  0.00000000000E+00 0. -1.
         -2    1    1    2    0  502  0.48049915373E+02  0.28289772648E+02  0.87956999350E+03  0.88133562227E+03  0.00000000000E+00 0.  1.
<mgrwt>
<rscale>  2 0.98148778E+02</rscale>
<asrwt>0</asrwt>
<pdfrwt beam="1">  1       21 0.23709575E+00 0.98148778E+02</pdfrwt>
<pdfrwt beam="2">  1       21 0.13219693E-02 0.98148778E+02</pdfrwt>
<totfact> 0.20332947E+05</totfact>
</mgrwt>
</event>
<event>
 5    1  0.1855960E+000  0.6986745E+02  0.7546771E-02  0.1360544E+00
         21   -1    0    0  501  502  0.00000000000E+00  0.00000000000E+00  0.40251326774E+03  0.40251326774E+03  0.00000000000E+00 0. -1.
         21   -1    0    0  502  503 -0.00000000000E+00 -0.00000000000E+00 -0.22008856210E+02  0.22008856210E+02  0.00000000000E+00 0.  1.
         24    1    1    2    0    0 -0.12580061644E+02  0.22723157124E+02  0.99117560857E+02  0.13025400817E+03  0.80419002446E+02 0.  0.
          1    1    1    2  501    0  0.28149241589E+02 -0.57793995358E+00  0.25471212366E+03  0.25626349673E+03  0.00000000000E+00 0. -1.
         -2    1    1    2    0  503 -0.15569179945E+02 -0.22145217170E+02  0.26674727012E+02  0.38004619046E+02  0.00000000000E+00 0.  1.
<mgrwt>
<rscale>  2 0.69867451E+02</rscale>
<asrwt>0</asrwt>
<pdfrwt beam="1">  1       21 0.61925113E-01 0.69867451E+02</pdfrwt>
<pdfrwt beam="2">  1       21 0.33859782E-02 0.69867451E+02</pdfrwt>
<totfact> 0.12394291E+06</totfact>
</mgrwt>
</event>
<event>
 5    1  0.1855960E+000  0.8757726E+02  0.7546771E-02  0.1308827E+00
         21   -1    0    0  503  502  0.00000000000E+00  0.00000000000E+00  0.12230130819E+03  0.12230130819E+03  0.00000000000E+00 0. -1.
         21   -1    0    0  501  503 -0.00000000000E+00 -0.00000000000E+00 -0.66251373281E+02  0.66251373281E+02  0.00000000000E+00 0.  1.
         24    1    1    2    0    0  0.58407550783E+02  0.35476237699E+02  0.21593431635E+02  0.10771953246E+03  0.80419002446E+02 0.  0.
          1    1    1    2  501    0 -0.16895706672E+02 -0.17682422285E+02  0.73406598787E+00  0.24467770938E+02  0.00000000000E+00 0. -1.
         -2    1    1    2    0  502 -0.41511844111E+02 -0.17793815415E+02  0.33722437282E+02  0.56365378068E+02  0.00000000000E+00 0.  1.
<mgrwt>
<rscale>  2 0.87577262E+02</rscale>
<asrwt>0</asrwt>
<pdfrwt beam="1">  1       21 0.18815586E-01 0.87577262E+02</pdfrwt>
<pdfrwt beam="2">  1       21 0.10192519E-01 0.87577262E+02</pdfrwt>
<totfact> 0.19909993E+06</totfact>
</mgrwt>
</event>
