<event>
 5    1  0.1854763E+000  0.8801476E+02  0.7546771E-02  0.1307732E+00
         21   -1    0    0  503  502  0.00000000000E+00  0.00000000000E+00  0.38930487464E+03  0.38930487464E+03  0.00000000000E+00 0.  1.
         21   -1    0    0  501  503 -0.00000000000E+00 -0.00000000000E+00 -0.31437295797E+02  0.31437295797E+02  0.00000000000E+00 0.  1.
         24    1    1    2    0    0  0.56715040733E+02 -0.36248425372E+02  0.78957237089E+02  0.13127073334E+03  0.80419002446E+02 0.  1.
          1    1    1    2  501    0 -0.32257287373E+02  0.69560135496E+01  0.73801913067E+02  0.80843311940E+02  0.00000000000E+00 0. -1.
         -2    1    1    2    0  502 -0.24457753360E+02  0.29292411823E+02  0.20510842869E+03  0.20862812517E+03  0.00000000000E+00 0.  1.
<mgrwt>
<rscale>  2 0.88014759E+02</rscale>
<asrwt>0</asrwt>
<pdfrwt beam="1">  1       21 0.59893054E-01 0.88014759E+02</pdfrwt>
<pdfrwt beam="2">  1       21 0.48365073E-02 0.88014759E+02</pdfrwt>
<totfact> 0.74364261E+05</totfact>
</mgrwt>
</event>
<event>
 5    1  0.1854763E+000  0.1092290E+03  0.7546771E-02  0.1262004E+00
         21   -1    0    0  503  502  0.00000000000E+00  0.00000000000E+00  0.31729386478E+03  0.31729386478E+03  0.00000000000E+00 0.  1.
         21   -1    0    0  501  503 -0.00000000000E+00 -0.00000000000E+00 -0.41395054498E+02  0.41395054498E+02  0.00000000000E+00 0.  1.
         24    1    1    2    0    0 -0.31339516984E+02 -0.87919966536E+02  0.13577909140E+03  0.18334465756E+03  0.80419002446E+02 0.  1.
          1    1    1    2  501    0  0.19882479750E+02  0.28567032839E+02  0.18233704459E+02  0.39291937398E+02  0.00000000000E+00 0. -1.
         -2    1    1    2    0  502  0.11457037234E+02  0.59352933697E+02  0.12188601442E+03  0.13605232432E+03  0.00000000000E+00 0.  1.
<mgrwt>
<rscale>  2 0.10922896E+03</rscale>
<asrwt>0</asrwt>
<pdfrwt beam="1">  1       21 0.48814439E-01 0.10922896E+03</pdfrwt>
<pdfrwt beam="2">  1       21 0.63684701E-02 0.10922896E+03</pdfrwt>
<totfact> 0.71691380E+05</totfact>
</mgrwt>
</event>
<event>
 5    1  0.1854763E+000  0.7725315E+02  0.7546771E-02  0.1337032E+00
         21   -1    0    0  501  502  0.00000000000E+00  0.00000000000E+00  0.14659912961E+04  0.14659912961E+04  0.00000000000E+00 0.  1.
         21   -1    0    0  502  503 -0.00000000000E+00 -0.00000000000E+00 -0.74306968027E+01  0.74306968027E+01  0.00000000000E+00 0.  1.
         24    1    1    2    0    0  0.55140029832E+02  0.57707895255E+01  0.59467883309E+03  0.60264737233E+03  0.80419002446E+02 0.  1.
          1    1    1    2  501    0 -0.33499648727E+02 -0.96088148456E+01  0.82775103690E+03  0.82848436007E+03  0.00000000000E+00 0. -1.
         -2    1    1    2    0  503 -0.21640381104E+02  0.38380253201E+01  0.36130729285E+02  0.42290260479E+02  0.00000000000E+00 0.  1.
<mgrwt>
<rscale>  2 0.77253155E+02</rscale>
<asrwt>0</asrwt>
<pdfrwt beam="1">  1       21 0.22553689E+00 0.77253155E+02</pdfrwt>
<pdfrwt beam="2">  1       21 0.11431853E-02 0.77253155E+02</pdfrwt>
<totfact> 0.30325188E+05</totfact>
</mgrwt>
</event>
<event>
 5    1  0.1854763E+000  0.8150889E+02  0.7546771E-02  0.1324823E+00
         21   -1    0    0  503  502  0.00000000000E+00  0.00000000000E+00  0.21140758743E+03  0.21140758743E+03  0.00000000000E+00 0.  1.
         21   -1    0    0  501  503 -0.00000000000E+00 -0.00000000000E+00 -0.14033027284E+03  0.14033027284E+03  0.00000000000E+00 0. -1.
         24    1    1    2    0    0  0.52253694404E+01  0.31378878418E+02  0.13184199356E+03  0.15767519056E+03  0.80419002446E+02 0.  0.
          1    1    1    2  501    0 -0.55731448844E+01  0.22233917735E+02 -0.11531798900E+03  0.11757400065E+03  0.00000000000E+00 0. -1.
         -2    1    1    2    0  502  0.34777544402E+00 -0.53612796153E+02  0.54553310034E+02  0.76488669061E+02  0.00000000000E+00 0.  1.
<mgrwt>
<rscale>  2 0.81508894E+02</rscale>
<asrwt>0</asrwt>
<pdfrwt beam="1">  1       21 0.32524244E-01 0.81508894E+02</pdfrwt>
<pdfrwt beam="2">  1       21 0.21589273E-01 0.81508894E+02</pdfrwt>
<totfact> 0.18797615E+05</totfact>
</mgrwt>
</event>
<event>
 5    1  0.1854763E+000  0.8736839E+02  0.7546771E-02  0.1309353E+00
         21   -1    0    0  503  502  0.00000000000E+00  0.00000000000E+00  0.25112856106E+04  0.25112856106E+04  0.00000000000E+00 0.  1.
         21   -1    0    0  501  503 -0.00000000000E+00 -0.00000000000E+00 -0.13579530898E+02  0.13579530898E+02  0.00000000000E+00 0. -1.
         24    1    1    2    0    0  0.35531963705E+02 -0.36468119663E+02  0.17368257519E+04  0.17394319052E+04  0.80419002446E+02 0.  0.
          1    1    1    2  501    0 -0.21862135551E+02  0.53453602762E+02  0.56758317297E+02  0.80973743902E+02  0.00000000000E+00 0. -1.
         -2    1    1    2    0  502 -0.13669828154E+02 -0.16985483099E+02  0.70412201043E+03  0.70445949239E+03  0.00000000000E+00 0.  1.
<mgrwt>
<rscale>  2 0.87368395E+02</rscale>
<asrwt>0</asrwt>
<pdfrwt beam="1">  1       21 0.38635126E+00 0.87368395E+02</pdfrwt>
<pdfrwt beam="2">  1       21 0.20891606E-02 0.87368395E+02</pdfrwt>
<totfact> 0.14586373E+04</totfact>
</mgrwt>
</event>
<event>
 5    1  0.1854763E+000  0.6826507E+02  0.7546771E-02  0.1366094E+00
         21   -1    0    0  501  502  0.00000000000E+00  0.00000000000E+00  0.38780161947E+03  0.38780161947E+03  0.00000000000E+00 0. -1.
         21   -1    0    0  502  503 -0.00000000000E+00 -0.00000000000E+00 -0.20239040356E+02  0.20239040356E+02  0.00000000000E+00 0. -1.
         24    1    1    2    0    0 -0.92840733111E+01 -0.45179401686E+01  0.93521428779E+02  0.12377430830E+03  0.80419002446E+02 0. -1.
          1    1    1    2  501    0  0.10764743399E+02 -0.24309123341E+02  0.23048837379E+03  0.23201660205E+03  0.00000000000E+00 0. -1.
         -2    1    1    2    0  503 -0.14806700879E+01  0.28827063510E+02  0.43552776545E+02  0.52249749466E+02  0.00000000000E+00 0.  1.
<mgrwt>
<rscale>  2 0.68265066E+02</rscale>
<asrwt>0</asrwt>
<pdfrwt beam="1">  1       21 0.59661782E-01 0.68265066E+02</pdfrwt>
<pdfrwt beam="2">  1       21 0.31136988E-02 0.68265066E+02</pdfrwt>
<totfact> 0.15332505E+06</totfact>
</mgrwt>
</event>
<event>
 5    1  0.1854763E+000  0.8630732E+02  0.7546771E-02  0.1312049E+00
         21   -1    0    0  501  502  0.00000000000E+00  0.00000000000E+00  0.40800185995E+02  0.40800185995E+02  0.00000000000E+00 0. -1.
         21   -1    0    0  502  503 -0.00000000000E+00 -0.00000000000E+00 -0.21985864469E+03  0.21985864469E+03  0.00000000000E+00 0. -1.
         24    1    1    2    0    0 -0.22041203377E+00 -0.52321384654E+02 -0.13458174675E+03  0.16527866888E+03  0.80419002446E+02 0. -1.
          1    1    1    2  501    0  0.21221581493E+02  0.51448857084E+02 -0.12381110238E+02  0.57014316685E+02  0.00000000000E+00 0. -1.
         -2    1    1    2    0  503 -0.21001169459E+02  0.87252757040E+00 -0.32095601712E+02  0.38365845126E+02  0.00000000000E+00 0.  1.
<mgrwt>
<rscale>  2 0.86307324E+02</rscale>
<asrwt>0</asrwt>
<pdfrwt beam="1">  1       21 0.62769516E-02 0.86307324E+02</pdfrwt>
<pdfrwt beam="2">  1       21 0.33824407E-01 0.86307324E+02</pdfrwt>
<totfact> 0.15174527E+06</totfact>
</mgrwt>
</event>
<event>
 5    1  0.1854763E+000  0.7497980E+02  0.7546771E-02  0.1343934E+00
         21   -1    0    0  503  502  0.00000000000E+00  0.00000000000E+00  0.83625486397E+02  0.83625486397E+02  0.00000000000E+00 0.  1.
         21   -1    0    0  501  503 -0.00000000000E+00 -0.00000000000E+00 -0.18262374881E+03  0.18262374881E+03  0.00000000000E+00 0.  1.
         24    1    1    2    0    0  0.18021111666E+02 -0.44677689849E+02  0.50394039651E+02  0.10643134699E+03  0.80419002446E+02 0.  1.
          1    1    1    2  501    0  0.59424364591E+01  0.23483056691E+02 -0.75694450271E+02  0.79475885050E+02  0.00000000000E+00 0. -1.
         -2    1    1    2    0  502 -0.23963548125E+02  0.21194633158E+02 -0.73697851790E+02  0.80342003161E+02  0.00000000000E+00 0.  1.
<mgrwt>
<rscale>  2 0.74979804E+02</rscale>
<asrwt>0</asrwt>
<pdfrwt beam="1">  1       21 0.12865460E-01 0.74979804E+02</pdfrwt>
<pdfrwt beam="2">  1       21 0.28095961E-01 0.74979804E+02</pdfrwt>
<totfact> 0.62922599E+05</totfact>
</mgrwt>
</event>
<event>
 5    1  0.1854763E+000  0.6963758E+02  0.7546771E-02  0.1361330E+00
         21   -1    0    0  501  502  0.00000000000E+00  0.00000000000E+00  0.10218237035E+03  0.10218237035E+03  0.00000000000E+00 0.  1.
         21   -1    0    0  502  503 -0.00000000000E+00 -0.00000000000E+00 -0.59406335928E+02  0.59406335928E+02  0.00000000000E+00 0. -1.
         24    1    1    2    0    0  0.11496301684E+02 -0.26225917776E+02  0.27117435694E+02  0.89568604927E+02  0.80419002446E+02 0.  1.
          1    1    1    2  501    0  0.16851917109E+02  0.17392744396E+02  0.30402008614E+02  0.38868712297E+02  0.00000000000E+00 0. -1.
         -2    1    1    2    0  503 -0.28348218793E+02  0.88331733802E+01 -0.14743409890E+02  0.33151389049E+02  0.00000000000E+00 0.  1.
<mgrwt>
<rscale>  2 0.69637582E+02</rscale>
<asrwt>0</asrwt>
<pdfrwt beam="1">  1       21 0.15720365E-01 0.69637582E+02</pdfrwt>
<pdfrwt beam="2">  1       21 0.91394363E-02 0.69637582E+02</pdfrwt>
<totfact> 0.32789139E+06</totfact>
</mgrwt>
</event>
<event>
 5    1  0.1854763E+000  0.9475410E+02  0.7546771E-02  0.1291731E+00
         21   -1    0    0  501  502  0.00000000000E+00  0.00000000000E+00  0.55291784095E+03  0.55291784095E+03  0.00000000000E+00 0.  1.
         21   -1    0    0  502  503 -0.00000000000E+00 -0.00000000000E+00 -0.29635393632E+02  0.29635393632E+02  0.00000000000E+00 0. -1.
         24    1    1    2    0    0 -0.62583786392E+01 -0.46450983899E+02  0.23264668980E+03  0.25057645427E+03  0.80419002446E+02 0.  1.
          1    1    1    2  501    0  0.45354736914E+02  0.23283770990E+02  0.28091498900E+03  0.28550379541E+03  0.00000000000E+00 0. -1.
         -2    1    1    2    0  503 -0.39096358275E+02  0.23167212909E+02  0.97207685234E+01  0.46472984894E+02  0.00000000000E+00 0.  1.
<mgrwt>
<rscale>  2 0.94754103E+02</rscale>
<asrwt>0</asrwt>
<pdfrwt beam="1">  1       21 0.85064275E-01 0.94754103E+02</pdfrwt>
<pdfrwt beam="2">  1       21 0.45592918E-02 0.94754103E+02</pdfrwt>
<totfact> 0.38342762E+05</totfact>
</mgrwt>
</event>
<event>
 5    1  0.1854763E+000  0.7354978E+02  0.7546771E-02  0.1348422E+00
         21   -1    0    0  503  502  0.00000000000E+00  0.00000000000E+00  0.12912855117E+04  0.12912855117E+04  0.00000000000E+00 0.  1.
         21   -1    0    0  501  503 -0.00000000000E+00 -0.00000000000E+00 -0.18204995285E+02  0.18204995285E+02  0.00000000000E+00 0.  1.
         24    1    1    2    0    0  0.39135748287E+01 -0.32468668420E+02  0.12110823775E+03  0.14900990471E+03  0.80419002446E+02 0.  1.
          1    1    1    2  501    0  0.20299696320E+02  0.29614815085E+02  0.74177023537E+02  0.82409621793E+02  0.00000000000E+00 0. -1.
         -2    1    1    2    0  502 -0.24213271148E+02  0.28538533348E+01  0.10777952551E+04  0.10780709805E+04  0.00000000000E+00 0.  1.
<mgrwt>
<rscale>  2 0.73549778E+02</rscale>
<asrwt>0</asrwt>
<pdfrwt beam="1">  1       21 0.19865924E+00 0.73549778E+02</pdfrwt>
<pdfrwt beam="2">  1       21 0.28007695E-02 0.73549778E+02</pdfrwt>
<totfact> 0.10589267E+05</totfact>
</mgrwt>
</event>
<event>
 5    1  0.1854763E+000  0.8945646E+02  0.7546771E-02  0.1304173E+00
         21   -1    0    0  501  502  0.00000000000E+00  0.00000000000E+00  0.25727267984E+03  0.25727267984E+03  0.00000000000E+00 0. -1.
         21   -1    0    0  502  503 -0.00000000000E+00 -0.00000000000E+00 -0.79345019916E+02  0.79345019916E+02  0.00000000000E+00 0. -1.
         24    1    1    2    0    0  0.55545458316E+02 -0.37180615927E+02  0.35294443363E+02  0.11036580008E+03  0.80419002446E+02 0.  0.
          1    1    1    2  501    0 -0.10862089019E+02  0.26152677872E+02  0.17024246770E+03  0.17258170629E+03  0.00000000000E+00 0. -1.
         -2    1    1    2    0  503 -0.44683369297E+02  0.11027938054E+02 -0.27609251141E+02  0.53670193386E+02  0.00000000000E+00 0.  1.
<mgrwt>
<rscale>  2 0.89456460E+02</rscale>
<asrwt>0</asrwt>
<pdfrwt beam="1">  1       21 0.39580412E-01 0.89456460E+02</pdfrwt>
<pdfrwt beam="2">  1       21 0.12206926E-01 0.89456460E+02</pdfrwt>
<totfact> 0.35632966E+05</totfact>
</mgrwt>
</event>
<event>
 5    1  0.1854763E+000  0.9504026E+02  0.7546771E-02  0.1291085E+00
         21   -1    0    0  501  502  0.00000000000E+00  0.00000000000E+00  0.32223214717E+03  0.32223214717E+03  0.00000000000E+00 0. -1.
         21   -1    0    0  502  503 -0.00000000000E+00 -0.00000000000E+00 -0.78050021992E+02  0.78050021992E+02  0.00000000000E+00 0. -1.
         24    1    1    2    0    0 -0.58973033551E+02  0.14266402955E+02  0.83836550631E+01  0.10108833051E+03  0.80419002446E+02 0. -1.
          1    1    1    2  501    0  0.67137905378E+02  0.60841796527E+01  0.25878776874E+03  0.26742405432E+03  0.00000000000E+00 0. -1.
         -2    1    1    2    0  503 -0.81648718265E+01 -0.20350582607E+02 -0.22989298630E+02  0.31769784322E+02  0.00000000000E+00 0.  1.
<mgrwt>
<rscale>  2 0.95040259E+02</rscale>
<asrwt>0</asrwt>
<pdfrwt beam="1">  1       21 0.49574176E-01 0.95040259E+02</pdfrwt>
<pdfrwt beam="2">  1       21 0.12007696E-01 0.95040259E+02</pdfrwt>
<totfact> 0.23310104E+05</totfact>
</mgrwt>
</event>
<event>
 5    1  0.1854763E+000  0.1001804E+03  0.7546771E-02  0.1279917E+00
         21   -1    0    0  501  502  0.00000000000E+00  0.00000000000E+00  0.26634537452E+03  0.26634537452E+03  0.00000000000E+00 0.  1.
         21   -1    0    0  502  503 -0.00000000000E+00 -0.00000000000E+00 -0.59638693082E+02  0.59638693082E+02  0.00000000000E+00 0.  1.
         24    1    1    2    0    0  0.43133498390E+02  0.69932606147E+02  0.23029014372E+02  0.11725450756E+03  0.80419002446E+02 0.  1.
          1    1    1    2  501    0 -0.21725645455E+02 -0.14910719252E+02  0.11583558704E+03  0.11879485025E+03  0.00000000000E+00 0. -1.
         -2    1    1    2    0  503 -0.21407852935E+02 -0.55021886894E+02  0.67842080024E+02  0.89934709799E+02  0.00000000000E+00 0.  1.
<mgrwt>
<rscale>  2 0.10018043E+03</rscale>
<asrwt>0</asrwt>
<pdfrwt beam="1">  1       21 0.40976211E-01 0.10018043E+03</pdfrwt>
<pdfrwt beam="2">  1       21 0.91751837E-02 0.10018043E+03</pdfrwt>
<totfact> 0.54654150E+05</totfact>
</mgrwt>
</event>
<event>
 5    1  0.1854763E+000  0.1308597E+03  0.7546771E-02  0.1226186E+00
         21   -1    0    0  503  502  0.00000000000E+00  0.00000000000E+00  0.58134041140E+02  0.58134041140E+02  0.00000000000E+00 0.  1.
         21   -1    0    0  501  503 -0.00000000000E+00 -0.00000000000E+00 -0.56530412301E+03  0.56530412301E+03  0.00000000000E+00 0. -1.
         24    1    1    2    0    0  0.10653418976E+03 -0.48197660758E+02 -0.44042992412E+03  0.46272916712E+03  0.80419002446E+02 0. -1.
          1    1    1    2  501    0 -0.76701457239E+02  0.46983016776E+02 -0.86591652294E+02  0.12485444187E+03  0.00000000000E+00 0. -1.
         -2    1    1    2    0  502 -0.29832732526E+02  0.12146439818E+01  0.19851494543E+02  0.35854555158E+02  0.00000000000E+00 0.  1.
<mgrwt>
<rscale>  2 0.13085969E+03</rscale>
<asrwt>0</asrwt>
<pdfrwt beam="1">  1       21 0.89436989E-02 0.13085969E+03</pdfrwt>
<pdfrwt beam="2">  1       21 0.86969862E-01 0.13085969E+03</pdfrwt>
<totfact> 0.11502630E+05</totfact>
</mgrwt>
</event>
<event>
 5    1  0.1854763E+000  0.9124350E+02  0.7546771E-02  0.1299868E+00
         21   -1    0    0  503  502  0.00000000000E+00  0.00000000000E+00  0.56508210409E+01  0.56508210409E+01  0.00000000000E+00 0. -1.
         21   -1    0    0  501  503 -0.00000000000E+00 -0.00000000000E+00 -0.21354984150E+04  0.21354984150E+04  0.00000000000E+00 0.  1.
         24    1    1    2    0    0  0.45570830509E+01  0.34392322682E+02 -0.11768567791E+04  0.11801113054E+04  0.80419002446E+02 0.  1.
          1    1    1    2  501    0 -0.32687567660E+02 -0.52214971105E+02 -0.86107091075E+03  0.86327168008E+03  0.00000000000E+00 0. -1.
         -2    1    1    2    0  502  0.28130484609E+02  0.17822648423E+02 -0.91919904135E+02  0.97766250502E+02  0.00000000000E+00 0.  1.
<mgrwt>
<rscale>  2 0.91243502E+02</rscale>
<asrwt>0</asrwt>
<pdfrwt beam="1">  1       21 0.86935713E-03 0.91243502E+02</pdfrwt>
<pdfrwt beam="2">  1       21 0.32853820E+00 0.91243502E+02</pdfrwt>
<totfact> 0.12301838E+05</totfact>
</mgrwt>
</event>
<event>
 5    1  0.1854763E+000  0.1212609E+03  0.7546771E-02  0.1241031E+00
         21   -1    0    0  501  502  0.00000000000E+00  0.00000000000E+00  0.35921815814E+03  0.35921815814E+03  0.00000000000E+00 0. -1.
         21   -1    0    0  502  503 -0.00000000000E+00 -0.00000000000E+00 -0.59217562147E+02  0.59217562147E+02  0.00000000000E+00 0.  1.
         24    1    1    2    0    0  0.42593670379E+02  0.10260531297E+02  0.19702978507E+03  0.21727275812E+03  0.80419002446E+02 0. -1.
          1    1    1    2  501    0 -0.86951473749E+02 -0.41837916420E+02  0.10992805613E+03  0.14627080215E+03  0.00000000000E+00 0. -1.
         -2    1    1    2    0  503  0.44357803370E+02  0.31577385123E+02 -0.69572452088E+01  0.54892160022E+02  0.00000000000E+00 0.  1.
<mgrwt>
<rscale>  2 0.12126093E+03</rscale>
<asrwt>0</asrwt>
<pdfrwt beam="1">  1       21 0.55264330E-01 0.12126093E+03</pdfrwt>
<pdfrwt beam="2">  1       21 0.91103944E-02 0.12126093E+03</pdfrwt>
<totfact> 0.29983002E+05</totfact>
</mgrwt>
</event>
<event>
 5    1  0.1854763E+000  0.1960424E+03  0.7546771E-02  0.1153122E+00
         21   -1    0    0  503  502  0.00000000000E+00  0.00000000000E+00  0.38874883553E+03  0.38874883553E+03  0.00000000000E+00 0.  1.
         21   -1    0    0  501  503 -0.00000000000E+00 -0.00000000000E+00 -0.10504512792E+03  0.10504512792E+03  0.00000000000E+00 0. -1.
         24    1    1    2    0    0  0.11660621980E+03 -0.38474176252E+02  0.12096800560E+03  0.19020448751E+03  0.80419002446E+02 0. -1.
          1    1    1    2  501    0 -0.29260601850E+02 -0.87357950897E+02  0.20119768878E+02  0.94299520175E+02  0.00000000000E+00 0. -1.
         -2    1    1    2    0  502 -0.87345617955E+02  0.12583212715E+03  0.14261593314E+03  0.20928995576E+03  0.00000000000E+00 0.  1.
<mgrwt>
<rscale>  2 0.19604243E+03</rscale>
<asrwt>0</asrwt>
<pdfrwt beam="1">  1       21 0.59807512E-01 0.19604243E+03</pdfrwt>
<pdfrwt beam="2">  1       21 0.16160789E-01 0.19604243E+03</pdfrwt>
<totfact> 0.89200358E+04</totfact>
</mgrwt>
</event>
<event>
 5    1  0.1854763E+000  0.1026525E+03  0.7546771E-02  0.1274815E+00
         21   -1    0    0  501  502  0.00000000000E+00  0.00000000000E+00  0.13753339079E+03  0.13753339079E+03  0.00000000000E+00 0. -1.
         21   -1    0    0  502  503 -0.00000000000E+00 -0.00000000000E+00 -0.13037675910E+03  0.13037675910E+03  0.00000000000E+00 0.  1.
         24    1    1    2    0    0  0.67948520611E+02  0.42428276704E+02 -0.26130138327E+01  0.11353943770E+03  0.80419002446E+02 0. -1.
          1    1    1    2  501    0 -0.16209624046E+02 -0.36224794357E+02  0.66436152912E+02  0.77387014748E+02  0.00000000000E+00 0. -1.
         -2    1    1    2    0  503 -0.51738896565E+02 -0.62034823463E+01 -0.56666507393E+02  0.76983697437E+02  0.00000000000E+00 0.  1.
<mgrwt>
<rscale>  2 0.10265247E+03</rscale>
<asrwt>0</asrwt>
<pdfrwt beam="1">  1       21 0.21158983E-01 0.10265247E+03</pdfrwt>
<pdfrwt beam="2">  1       21 0.20057963E-01 0.10265247E+03</pdfrwt>
<totfact> 0.48172697E+05</totfact>
</mgrwt>
</event>
<event>
 5    1  0.1854763E+000  0.7959609E+02  0.7546771E-02  0.1330202E+00
         21   -1    0    0  503  502  0.00000000000E+00  0.00000000000E+00  0.24118916379E+03  0.24118916379E+03  0.00000000000E+00 0. -1.
         21   -1    0    0  501  503 -0.00000000000E+00 -0.00000000000E+00 -0.42869064080E+02  0.42869064080E+02  0.00000000000E+00 0.  1.
         24    1    1    2    0    0  0.16178820501E+02 -0.32051743447E+02  0.73952251821E+02  0.11500095649E+03  0.80419002446E+02 0.  1.
          1    1    1    2  501    0 -0.39834480455E+02  0.20266274740E+02  0.29438629910E+01  0.44790334384E+02  0.00000000000E+00 0. -1.
         -2    1    1    2    0  502  0.23655659954E+02  0.11785468708E+02  0.12142398490E+03  0.12426693699E+03  0.00000000000E+00 0.  1.
<mgrwt>
<rscale>  2 0.79596086E+02</rscale>
<asrwt>0</asrwt>
<pdfrwt beam="1">  1       21 0.37106024E-01 0.79596086E+02</pdfrwt>
<pdfrwt beam="2">  1       21 0.65952408E-02 0.79596086E+02</pdfrwt>
<totfact> 0.11636526E+06</totfact>
</mgrwt>
</event>
<event>
 5    1  0.1854763E+000  0.1058356E+03  0.7546771E-02  0.1268482E+00
         21   -1    0    0  503  502  0.00000000000E+00  0.00000000000E+00  0.15490994827E+03  0.15490994827E+03  0.00000000000E+00 0.  1.
         21   -1    0    0  501  503 -0.00000000000E+00 -0.00000000000E+00 -0.73714841886E+02  0.73714841886E+02  0.00000000000E+00 0. -1.
         24    1    1    2    0    0 -0.28390351283E+02 -0.61175976484E+02  0.53944463233E+02  0.11800734389E+03  0.80419002446E+02 0.  0.
          1    1    1    2  501    0 -0.15661988876E+02  0.60671101349E+02  0.10761078435E+02  0.63577364239E+02  0.00000000000E+00 0. -1.
         -2    1    1    2    0  502  0.44052340159E+02  0.50487513537E+00  0.16489564716E+02  0.47040082025E+02  0.00000000000E+00 0.  1.
<mgrwt>
<rscale>  2 0.10583556E+03</rscale>
<asrwt>0</asrwt>
<pdfrwt beam="1">  1       21 0.23832300E-01 0.10583556E+03</pdfrwt>
<pdfrwt beam="2">  1       21 0.11340745E-01 0.10583556E+03</pdfrwt>
<totfact> 0.10744518E+06</totfact>
</mgrwt>
</event>
<event>
 5    1  0.1854763E+000  0.7833495E+02  0.7546771E-02  0.1333844E+00
         21   -1    0    0  503  502  0.00000000000E+00  0.00000000000E+00  0.19861938543E+03  0.19861938543E+03  0.00000000000E+00 0.  1.
         21   -1    0    0  501  503 -0.00000000000E+00 -0.00000000000E+00 -0.10371748895E+03  0.10371748895E+03  0.00000000000E+00 0. -1.
         24    1    1    2    0    0 -0.52201109828E+02  0.17665521169E+01 -0.48498528926E+02  0.10745882856E+03  0.80419002446E+02 0. -1.
          1    1    1    2  501    0  0.34004406499E+02 -0.16091031940E+02 -0.10649029809E+02  0.39097606143E+02  0.00000000000E+00 0. -1.
         -2    1    1    2    0  502  0.18196703329E+02  0.14324479823E+02  0.15404945521E+03  0.15578043968E+03  0.00000000000E+00 0.  1.
<mgrwt>
<rscale>  2 0.78334947E+02</rscale>
<asrwt>0</asrwt>
<pdfrwt beam="1">  1       21 0.30556829E-01 0.78334947E+02</pdfrwt>
<pdfrwt beam="2">  1       21 0.15956537E-01 0.78334947E+02</pdfrwt>
<totfact> 0.36656612E+05</totfact>
</mgrwt>
</event>
<event>
 5    1  0.1854763E+000  0.1033449E+03  0.7546771E-02  0.1273415E+00
         21   -1    0    0  501  502  0.00000000000E+00  0.00000000000E+00  0.39190391050E+03  0.39190391050E+03  0.00000000000E+00 0. -1.
         21   -1    0    0  502  503 -0.00000000000E+00 -0.00000000000E+00 -0.30004895208E+02  0.30004895208E+02  0.00000000000E+00 0.  1.
         24    1    1    2    0    0  0.23405894967E+02  0.53843954777E+02  0.23753271235E+03  0.25755778532E+03  0.80419002446E+02 0. -1.
          1    1    1    2  501    0 -0.40801587139E+01  0.25311973287E+02  0.35415681323E+02  0.43722010137E+02  0.00000000000E+00 0. -1.
         -2    1    1    2    0  503 -0.19325736253E+02 -0.79155928065E+02  0.88950621621E+02  0.12062901026E+03  0.00000000000E+00 0.  1.
<mgrwt>
<rscale>  2 0.10334493E+03</rscale>
<asrwt>0</asrwt>
<pdfrwt beam="1">  1       21 0.60292906E-01 0.10334493E+03</pdfrwt>
<pdfrwt beam="2">  1       21 0.46161380E-02 0.10334493E+03</pdfrwt>
<totfact> 0.79315617E+05</totfact>
</mgrwt>
</event>
<event>
 5    1  0.1854763E+000  0.6493926E+02  0.7546771E-02  0.1378200E+00
         21   -1    0    0  501  502  0.00000000000E+00  0.00000000000E+00  0.10999488329E+04  0.10999488329E+04  0.00000000000E+00 0.  1.
         21   -1    0    0  502  503 -0.00000000000E+00 -0.00000000000E+00 -0.10240035265E+02  0.10240035265E+02  0.00000000000E+00 0. -1.
         24    1    1    2    0    0  0.10436543054E+02 -0.14105385857E+02  0.99020054356E+03  0.99361572842E+03  0.80419002446E+02 0.  1.
          1    1    1    2  501    0  0.16568104506E+02  0.12046247812E+02  0.81535014499E+02  0.84068857270E+02  0.00000000000E+00 0. -1.
         -2    1    1    2    0  503 -0.27004647559E+02  0.20591380449E+01  0.17973239607E+02  0.32504282506E+02  0.00000000000E+00 0.  1.
<mgrwt>
<rscale>  2 0.64939259E+02</rscale>
<asrwt>0</asrwt>
<pdfrwt beam="1">  1       21 0.16922280E+00 0.64939259E+02</pdfrwt>
<pdfrwt beam="2">  1       21 0.15753909E-02 0.64939259E+02</pdfrwt>
<totfact> 0.41051581E+05</totfact>
</mgrwt>
</event>
<event>
 5    1  0.1854763E+000  0.1138031E+03  0.7546771E-02  0.1253685E+00
         21   -1    0    0  503  502  0.00000000000E+00  0.00000000000E+00  0.14929675884E+03  0.14929675884E+03  0.00000000000E+00 0. -1.
         21   -1    0    0  501  503 -0.00000000000E+00 -0.00000000000E+00 -0.37475231224E+03  0.37475231224E+03  0.00000000000E+00 0. -1.
         24    1    1    2    0    0  0.53663476751E+02 -0.50803071884E+02 -0.17627968300E+02  0.11062857710E+03  0.80419002446E+02 0. -1.
          1    1    1    2  501    0 -0.71411100011E+02  0.64300420621E+02 -0.30185709636E+03  0.31678351586E+03  0.00000000000E+00 0. -1.
         -2    1    1    2    0  502  0.17747623260E+02 -0.13497348737E+02  0.94029511252E+02  0.96636978122E+02  0.00000000000E+00 0.  1.
<mgrwt>
<rscale>  2 0.11380314E+03</rscale>
<asrwt>0</asrwt>
<pdfrwt beam="1">  1       21 0.22968732E-01 0.11380314E+03</pdfrwt>
<pdfrwt beam="2">  1       21 0.57654201E-01 0.11380314E+03</pdfrwt>
<totfact> 0.52289930E+04</totfact>
</mgrwt>
</event>
<event>
 5    1  0.1854763E+000  0.9213128E+02  0.7546771E-02  0.1297771E+00
         21   -1    0    0  503  502  0.00000000000E+00  0.00000000000E+00  0.36789212670E+03  0.36789212670E+03  0.00000000000E+00 0.  1.
         21   -1    0    0  501  503 -0.00000000000E+00 -0.00000000000E+00 -0.91132455355E+02  0.91132455355E+02  0.00000000000E+00 0. -1.
         24    1    1    2    0    0  0.52517530945E+02  0.42457898690E+02  0.11507759410E+03  0.15579099087E+03  0.80419002446E+02 0.  1.
          1    1    1    2  501    0 -0.84669302390E+00 -0.24546540680E+02 -0.65294849193E+02  0.69761499981E+02  0.00000000000E+00 0. -1.
         -2    1    1    2    0  502 -0.51670837921E+02 -0.17911358010E+02  0.22697692643E+03  0.23347209120E+03  0.00000000000E+00 0.  1.
<mgrwt>
<rscale>  2 0.92131276E+02</rscale>
<asrwt>0</asrwt>
<pdfrwt beam="1">  1       21 0.56598788E-01 0.92131276E+02</pdfrwt>
<pdfrwt beam="2">  1       21 0.14020378E-01 0.92131276E+02</pdfrwt>
<totfact> 0.13502592E+05</totfact>
</mgrwt>
</event>
<event>
 5    1  0.1854763E+000  0.1317978E+03  0.7546771E-02  0.1224812E+00
         21   -1    0    0  501  502  0.00000000000E+00  0.00000000000E+00  0.14496104830E+03  0.14496104830E+03  0.00000000000E+00 0.  1.
         21   -1    0    0  502  503 -0.00000000000E+00 -0.00000000000E+00 -0.23191336591E+03  0.23191336591E+03  0.00000000000E+00 0.  1.
         24    1    1    2    0    0 -0.98086432211E+02  0.52748637447E+02  0.46119348353E+02  0.14490540771E+03  0.80419002446E+02 0.  1.
          1    1    1    2  501    0  0.17682022552E+02  0.13336720729E+02  0.30741851677E+02  0.37889094550E+02  0.00000000000E+00 0. -1.
         -2    1    1    2    0  503  0.80404409659E+02 -0.66085358176E+02 -0.16381351765E+03  0.19407991195E+03  0.00000000000E+00 0.  1.
<mgrwt>
<rscale>  2 0.13179778E+03</rscale>
<asrwt>0</asrwt>
<pdfrwt beam="1">  1       21 0.22301700E-01 0.13179778E+03</pdfrwt>
<pdfrwt beam="2">  1       21 0.35678979E-01 0.13179778E+03</pdfrwt>
<totfact> 0.14535383E+05</totfact>
</mgrwt>
</event>
<event>
 5    1  0.1854763E+000  0.1111131E+03  0.7546771E-02  0.1258522E+00
         21   -1    0    0  503  502  0.00000000000E+00  0.00000000000E+00  0.10098369291E+02  0.10098369291E+02  0.00000000000E+00 0.  1.
         21   -1    0    0  501  503 -0.00000000000E+00 -0.00000000000E+00 -0.33037680783E+04  0.33037680783E+04  0.00000000000E+00 0. -1.
         24    1    1    2    0    0 -0.25335144559E+02 -0.46983321211E+01 -0.56199173431E+03  0.56830086157E+03  0.80419002446E+02 0.  1.
          1    1    1    2  501    0 -0.25131734101E+02  0.58708195690E+02 -0.25293762865E+04  0.25301823364E+04  0.00000000000E+00 0. -1.
         -2    1    1    2    0  502  0.50466878660E+02 -0.54009863569E+02 -0.20230168818E+03  0.21538324968E+03  0.00000000000E+00 0.  1.
<mgrwt>
<rscale>  2 0.11111305E+03</rscale>
<asrwt>0</asrwt>
<pdfrwt beam="1">  1       21 0.15535910E-02 0.11111305E+03</pdfrwt>
<pdfrwt beam="2">  1       21 0.50827343E+00 0.11111305E+03</pdfrwt>
<totfact> 0.35813644E+03</totfact>
</mgrwt>
</event>
<event>
 5    1  0.1854763E+000  0.6908579E+02  0.7546771E-02  0.1363230E+00
         21   -1    0    0  503  502  0.00000000000E+00  0.00000000000E+00  0.22722819576E+03  0.22722819576E+03  0.00000000000E+00 0.  1.
         21   -1    0    0  501  503 -0.00000000000E+00 -0.00000000000E+00 -0.12960499296E+03  0.12960499296E+03  0.00000000000E+00 0. -1.
         24    1    1    2    0    0 -0.35310129281E-01 -0.70140122114E+01  0.22676643959E+02  0.83848934100E+02  0.80419002446E+02 0. -1.
          1    1    1    2  501    0 -0.17913948438E+02  0.25835870494E+02 -0.95511870962E+02  0.10055306682E+03  0.00000000000E+00 0. -1.
         -2    1    1    2    0  502  0.17949258567E+02 -0.18821858283E+02  0.17045842981E+03  0.17243118780E+03  0.00000000000E+00 0.  1.
<mgrwt>
<rscale>  2 0.69085795E+02</rscale>
<asrwt>0</asrwt>
<pdfrwt beam="1">  1       21 0.34958184E-01 0.69085795E+02</pdfrwt>
<pdfrwt beam="2">  1       21 0.19939230E-01 0.69085795E+02</pdfrwt>
<totfact> 0.18993377E+05</totfact>
</mgrwt>
</event>
<event>
 5    1  0.1854763E+000  0.8806738E+02  0.7546771E-02  0.1307600E+00
         21   -1    0    0  501  502  0.00000000000E+00  0.00000000000E+00  0.43872315831E+02  0.43872315831E+02  0.00000000000E+00 0.  1.
         21   -1    0    0  502  503 -0.00000000000E+00 -0.00000000000E+00 -0.18024839155E+03  0.18024839155E+03  0.00000000000E+00 0.  1.
         24    1    1    2    0    0 -0.28214863234E+02 -0.55011993928E+02 -0.64601500029E+02  0.12026207941E+03  0.80419002446E+02 0.  1.
          1    1    1    2  501    0  0.20502481856E+02  0.14185453851E+01 -0.15302357847E+02  0.25622767004E+02  0.00000000000E+00 0. -1.
         -2    1    1    2    0  503  0.77123813786E+01  0.53593448543E+02 -0.56472217840E+02  0.78235860965E+02  0.00000000000E+00 0.  1.
<mgrwt>
<rscale>  2 0.88067381E+02</rscale>
<asrwt>0</asrwt>
<pdfrwt beam="1">  1       21 0.67495870E-02 0.88067381E+02</pdfrwt>
<pdfrwt beam="2">  1       21 0.27730522E-01 0.88067381E+02</pdfrwt>
<totfact> 0.19645200E+06</totfact>
</mgrwt>
</event>
<event>
 5    1  0.1854763E+000  0.7888073E+02  0.7546771E-02  0.1332258E+00
         21   -1    0    0  503  502  0.00000000000E+00  0.00000000000E+00  0.82176112242E+03  0.82176112242E+03  0.00000000000E+00 0.  1.
         21   -1    0    0  501  503 -0.00000000000E+00 -0.00000000000E+00 -0.12170582352E+02  0.12170582352E+02  0.00000000000E+00 0. -1.
         24    1    1    2    0    0  0.17355948277E+02 -0.12988002699E+02  0.34971623509E+03  0.35949767482E+03  0.80419002446E+02 0. -1.
          1    1    1    2  501    0 -0.39231452072E+02  0.27774421770E+02  0.77820302395E+02  0.91468709411E+02  0.00000000000E+00 0. -1.
         -2    1    1    2    0  502  0.21875503795E+02 -0.14786419071E+02  0.38205400258E+03  0.38296532054E+03  0.00000000000E+00 0.  1.
<mgrwt>
<rscale>  2 0.78880733E+02</rscale>
<asrwt>0</asrwt>
<pdfrwt beam="1">  1       21 0.12642474E+00 0.78880733E+02</pdfrwt>
<pdfrwt beam="2">  1       21 0.18723979E-02 0.78880733E+02</pdfrwt>
<totfact> 0.64727323E+05</totfact>
</mgrwt>
</event>
<event>
 5    1  0.1854763E+000  0.1171054E+03  0.7546771E-02  0.1247950E+00
         21   -1    0    0  501  502  0.00000000000E+00  0.00000000000E+00  0.10888006728E+03  0.10888006728E+03  0.00000000000E+00 0. -1.
         21   -1    0    0  502  503 -0.00000000000E+00 -0.00000000000E+00 -0.20708748291E+03  0.20708748291E+03  0.00000000000E+00 0.  1.
         24    1    1    2    0    0 -0.52013096363E+02  0.89198408796E+02 -0.84679924700E+01  0.13115121492E+03  0.80419002446E+02 0.  1.
          1    1    1    2  501    0  0.10803660428E+02 -0.21905861005E+02  0.31683888508E+02  0.40005682296E+02  0.00000000000E+00 0. -1.
         -2    1    1    2    0  503  0.41209435935E+02 -0.67292547790E+02 -0.12142331167E+03  0.14481065297E+03  0.00000000000E+00 0.  1.
<mgrwt>
<rscale>  2 0.11710543E+03</rscale>
<asrwt>0</asrwt>
<pdfrwt beam="1">  1       21 0.16750780E-01 0.11710543E+03</pdfrwt>
<pdfrwt beam="2">  1       21 0.31859613E-01 0.11710543E+03</pdfrwt>
<totfact> 0.30829636E+05</totfact>
</mgrwt>
</event>
<event>
 5    1  0.1854763E+000  0.8571115E+02  0.7546771E-02  0.1313583E+00
         21   -1    0    0  503  502  0.00000000000E+00  0.00000000000E+00  0.40105347377E+02  0.40105347377E+02  0.00000000000E+00 0. -1.
         21   -1    0    0  501  503 -0.00000000000E+00 -0.00000000000E+00 -0.25567051725E+03  0.25567051725E+03  0.00000000000E+00 0.  1.
         24    1    1    2    0    0 -0.16218907054E+01  0.30887120595E+02 -0.15958057900E+03  0.18135551245E+03  0.80419002446E+02 0.  1.
          1    1    1    2  501    0  0.31521862796E+02 -0.42731484855E+02 -0.62075370518E+02  0.81688183093E+02  0.00000000000E+00 0. -1.
         -2    1    1    2    0  502 -0.29899972091E+02  0.11844364260E+02  0.60907796521E+01  0.32732169077E+02  0.00000000000E+00 0.  1.
<mgrwt>
<rscale>  2 0.85711150E+02</rscale>
<asrwt>0</asrwt>
<pdfrwt beam="1">  1       21 0.61700532E-02 0.85711150E+02</pdfrwt>
<pdfrwt beam="2">  1       21 0.39333927E-01 0.85711150E+02</pdfrwt>
<totfact> 0.11631790E+06</totfact>
</mgrwt>
</event>
<event>
 5    1  0.1854763E+000  0.8743284E+02  0.7546771E-02  0.1309190E+00
         21   -1    0    0  503  502  0.00000000000E+00  0.00000000000E+00  0.36928218200E+02  0.36928218200E+02  0.00000000000E+00 0. -1.
         21   -1    0    0  501  503 -0.00000000000E+00 -0.00000000000E+00 -0.26739284849E+03  0.26739284849E+03  0.00000000000E+00 0.  1.
         24    1    1    2    0    0 -0.50122936546E+02  0.15401074490E+02 -0.67374812240E+02  0.11728632973E+03  0.80419002446E+02 0.  1.
          1    1    1    2  501    0  0.43554394988E+02 -0.36461073697E+02 -0.15215737321E+03  0.16241385852E+03  0.00000000000E+00 0. -1.
         -2    1    1    2    0  502  0.65685415579E+01  0.21059999206E+02 -0.10932444843E+02  0.24620878437E+02  0.00000000000E+00 0.  1.
<mgrwt>
<rscale>  2 0.87432844E+02</rscale>
<asrwt>0</asrwt>
<pdfrwt beam="1">  1       21 0.56812641E-02 0.87432844E+02</pdfrwt>
<pdfrwt beam="2">  1       21 0.41137363E-01 0.87432844E+02</pdfrwt>
<totfact> 0.12230786E+06</totfact>
</mgrwt>
</event>
<event>
 5    1  0.1854763E+000  0.8387260E+02  0.7546771E-02  0.1318407E+00
         21   -1    0    0  503  502  0.00000000000E+00  0.00000000000E+00  0.89612128028E+02  0.89612128028E+02  0.00000000000E+00 0. -1.
         21   -1    0    0  501  503 -0.00000000000E+00 -0.00000000000E+00 -0.22128687945E+03  0.22128687945E+03  0.00000000000E+00 0. -1.
         24    1    1    2    0    0 -0.41624522922E+01 -0.25193467674E+02  0.14832010960E+02  0.85669372158E+02  0.80419002446E+02 0. -1.
          1    1    1    2  501    0 -0.28232625056E+02  0.39007131876E+02 -0.17400737225E+03  0.18054695525E+03  0.00000000000E+00 0. -1.
         -2    1    1    2    0  502  0.32395077348E+02 -0.13813664203E+02  0.27500609865E+02  0.44682680068E+02  0.00000000000E+00 0.  1.
<mgrwt>
<rscale>  2 0.83872599E+02</rscale>
<asrwt>0</asrwt>
<pdfrwt beam="1">  1       21 0.13786481E-01 0.83872599E+02</pdfrwt>
<pdfrwt beam="2">  1       21 0.34044135E-01 0.83872599E+02</pdfrwt>
<totfact> 0.38614734E+05</totfact>
</mgrwt>
</event>
<event>
 5    1  0.1854763E+000  0.8630006E+02  0.7546771E-02  0.1312067E+00
         21   -1    0    0  503  502  0.00000000000E+00  0.00000000000E+00  0.99157440107E+02  0.99157440107E+02  0.00000000000E+00 0.  1.
         21   -1    0    0  501  503 -0.00000000000E+00 -0.00000000000E+00 -0.16498729110E+03  0.16498729110E+03  0.00000000000E+00 0. -1.
         24    1    1    2    0    0 -0.34773701180E+02 -0.57728362102E+02  0.54911347117E+02  0.11842400973E+03  0.80419002446E+02 0.  1.
          1    1    1    2  501    0  0.26000104461E+02  0.37546758710E+02 -0.11383752915E+03  0.12265703227E+03  0.00000000000E+00 0. -1.
         -2    1    1    2    0  502  0.87735967190E+01  0.20181603392E+02 -0.69036689646E+01  0.23063689211E+02  0.00000000000E+00 0.  1.
<mgrwt>
<rscale>  2 0.86300056E+02</rscale>
<asrwt>0</asrwt>
<pdfrwt beam="1">  1       21 0.15254991E-01 0.86300056E+02</pdfrwt>
<pdfrwt beam="2">  1       21 0.25382660E-01 0.86300056E+02</pdfrwt>
<totfact> 0.56381824E+05</totfact>
</mgrwt>
</event>
<event>
 5    1  0.1854763E+000  0.7556921E+02  0.7546771E-02  0.1342117E+00
         21   -1    0    0  503  502  0.00000000000E+00  0.00000000000E+00  0.10040453394E+03  0.10040453394E+03  0.00000000000E+00 0.  1.
         21   -1    0    0  501  503 -0.00000000000E+00 -0.00000000000E+00 -0.59530477443E+02  0.59530477443E+02  0.00000000000E+00 0.  1.
         24    1    1    2    0    0 -0.21957649109E+02  0.39604121623E+02  0.29233186658E+02  0.96811259472E+02  0.80419002446E+02 0.  1.
          1    1    1    2  501    0  0.16120159969E+01 -0.38433173453E+02 -0.21333691152E+01  0.38526077935E+02  0.00000000000E+00 0. -1.
         -2    1    1    2    0  502  0.20345633112E+02 -0.11709481693E+01  0.13774238956E+02  0.24597673979E+02  0.00000000000E+00 0.  1.
<mgrwt>
<rscale>  2 0.75569208E+02</rscale>
<asrwt>0</asrwt>
<pdfrwt beam="1">  1       21 0.15446851E-01 0.75569208E+02</pdfrwt>
<pdfrwt beam="2">  1       21 0.91585350E-02 0.75569208E+02</pdfrwt>
<totfact> 0.33889914E+06</totfact>
</mgrwt>
</event>
<event>
 5    1  0.1854763E+000  0.3298576E+03  0.7546771E-02  0.1071200E+00
         21   -1    0    0  503  502  0.00000000000E+00  0.00000000000E+00  0.15619053938E+03  0.15619053938E+03  0.00000000000E+00 0. -1.
         21   -1    0    0  501  503 -0.00000000000E+00 -0.00000000000E+00 -0.11777298944E+04  0.11777298944E+04  0.00000000000E+00 0. -1.
         24    1    1    2    0    0  0.26141579973E+03 -0.13991232996E+03 -0.53220990160E+03  0.61451466682E+03  0.80419002446E+02 0. -1.
          1    1    1    2  501    0 -0.29248015447E+03  0.12657243278E+03 -0.55815214181E+03  0.64272780779E+03  0.00000000000E+00 0. -1.
         -2    1    1    2    0  502  0.31064354734E+02  0.13339897179E+02  0.68822688370E+02  0.76677959194E+02  0.00000000000E+00 0.  1.
<mgrwt>
<rscale>  2 0.32985761E+03</rscale>
<asrwt>0</asrwt>
<pdfrwt beam="1">  1       21 0.24029313E-01 0.32985761E+03</pdfrwt>
<pdfrwt beam="2">  1       21 0.18118922E+00 0.32985761E+03</pdfrwt>
<totfact> 0.26360225E+03</totfact>
</mgrwt>
</event>
<event>
 5    1  0.1854763E+000  0.6851543E+02  0.7546771E-02  0.1365215E+00
         21   -1    0    0  501  502  0.00000000000E+00  0.00000000000E+00  0.46395584364E+02  0.46395584364E+02  0.00000000000E+00 0. -1.
         21   -1    0    0  502  503 -0.00000000000E+00 -0.00000000000E+00 -0.66831104999E+03  0.66831104999E+03  0.00000000000E+00 0. -1.
         24    1    1    2    0    0 -0.44094648042E+02  0.85250268244E+01 -0.31351654638E+03  0.32676727939E+03  0.80419002446E+02 0. -1.
          1    1    1    2  501    0  0.20227092746E+02 -0.34345559551E+01  0.36664251699E+02  0.42014269103E+02  0.00000000000E+00 0. -1.
         -2    1    1    2    0  503  0.23867555296E+02 -0.50904708693E+01 -0.34506317094E+03  0.34592508586E+03  0.00000000000E+00 0.  1.
<mgrwt>
<rscale>  2 0.68515430E+02</rscale>
<asrwt>0</asrwt>
<pdfrwt beam="1">  1       21 0.71377823E-02 0.68515430E+02</pdfrwt>
<pdfrwt beam="2">  1       21 0.10281708E+00 0.68515430E+02</pdfrwt>
<totfact> 0.11902303E+05</totfact>
</mgrwt>
</event>
<event>
 5    1  0.1854763E+000  0.9492485E+02  0.7546771E-02  0.1291345E+00
         21   -1    0    0  501  502  0.00000000000E+00  0.00000000000E+00  0.37448415806E+02  0.37448415806E+02  0.00000000000E+00 0. -1.
         21   -1    0    0  502  503 -0.00000000000E+00 -0.00000000000E+00 -0.18154171120E+04  0.18154171120E+04  0.00000000000E+00 0.  1.
         24    1    1    2    0    0 -0.61734262571E+02  0.12190002637E+02 -0.82749637551E+03  0.83377286043E+03  0.80419002446E+02 0.  1.
          1    1    1    2  501    0  0.52315651832E+02  0.18611797187E+02  0.11396124953E+02  0.56685078152E+02  0.00000000000E+00 0. -1.
         -2    1    1    2    0  503  0.94186107386E+01 -0.30801799824E+02 -0.96186844566E+03  0.96240758925E+03  0.00000000000E+00 0.  1.
<mgrwt>
<rscale>  2 0.94924849E+02</rscale>
<asrwt>0</asrwt>
<pdfrwt beam="1">  1       21 0.57612920E-02 0.94924849E+02</pdfrwt>
<pdfrwt beam="2">  1       21 0.27929507E+00 0.94924849E+02</pdfrwt>
<totfact> 0.10843654E+04</totfact>
</mgrwt>
</event>
<event>
 5    1  0.1854763E+000  0.7614945E+02  0.7546771E-02  0.1340348E+00
         21   -1    0    0  503  502  0.00000000000E+00  0.00000000000E+00  0.69127038581E+02  0.69127038581E+02  0.00000000000E+00 0.  1.
         21   -1    0    0  501  503 -0.00000000000E+00 -0.00000000000E+00 -0.99561229100E+02  0.99561229100E+02  0.00000000000E+00 0.  1.
         24    1    1    2    0    0  0.44306183664E+02  0.10706843915E+00  0.60717055562E+01  0.92017014390E+02  0.80419002446E+02 0.  0.
          1    1    1    2  501    0 -0.32754743292E+02 -0.19346520743E+02 -0.38522403585E+02  0.54139972764E+02  0.00000000000E+00 0. -1.
         -2    1    1    2    0  502 -0.11551440372E+02  0.19239452304E+02  0.20165075087E+01  0.22531280527E+02  0.00000000000E+00 0.  1.
<mgrwt>
<rscale>  2 0.76149454E+02</rscale>
<asrwt>0</asrwt>
<pdfrwt beam="1">  1       21 0.10634929E-01 0.76149454E+02</pdfrwt>
<pdfrwt beam="2">  1       21 0.15317112E-01 0.76149454E+02</pdfrwt>
<totfact> 0.26603939E+06</totfact>
</mgrwt>
</event>
<event>
 5    1  0.1854763E+000  0.8224734E+02  0.7546771E-02  0.1322792E+00
         21   -1    0    0  503  502  0.00000000000E+00  0.00000000000E+00  0.68041173732E+02  0.68041173732E+02  0.00000000000E+00 0. -1.
         21   -1    0    0  501  503 -0.00000000000E+00 -0.00000000000E+00 -0.14594926752E+03  0.14594926752E+03  0.00000000000E+00 0. -1.
         24    1    1    2    0    0 -0.10781719545E+02  0.20070721892E+02 -0.66252040854E+02  0.10665659016E+03  0.80419002446E+02 0. -1.
          1    1    1    2  501    0  0.28499210874E+02 -0.43213193543E+02 -0.40955124452E+02  0.66006873396E+02  0.00000000000E+00 0. -1.
         -2    1    1    2    0  502 -0.17717491329E+02  0.23142471651E+02  0.29299071520E+02  0.41326977691E+02  0.00000000000E+00 0.  1.
<mgrwt>
<rscale>  2 0.82247335E+02</rscale>
<asrwt>0</asrwt>
<pdfrwt beam="1">  1       21 0.10467873E-01 0.82247335E+02</pdfrwt>
<pdfrwt beam="2">  1       21 0.22453733E-01 0.82247335E+02</pdfrwt>
<totfact> 0.13719310E+06</totfact>
</mgrwt>
</event>
<event>
 5    1  0.1854763E+000  0.7077072E+02  0.7546771E-02  0.1357492E+00
         21   -1    0    0  501  502  0.00000000000E+00  0.00000000000E+00  0.15606819482E+03  0.15606819482E+03  0.00000000000E+00 0. -1.
         21   -1    0    0  502  503 -0.00000000000E+00 -0.00000000000E+00 -0.40619171278E+02  0.40619171278E+02  0.00000000000E+00 0. -1.
         24    1    1    2    0    0 -0.17077301563E+02  0.14800080806E+02  0.50479542139E+02  0.97601622679E+02  0.80419002446E+02 0. -1.
          1    1    1    2  501    0 -0.34609775640E+01 -0.31405902025E+02  0.65441610686E+02  0.72669893745E+02  0.00000000000E+00 0. -1.
         -2    1    1    2    0  503  0.20538279127E+02  0.16605821219E+02 -0.47212928467E+00  0.26415849673E+02  0.00000000000E+00 0.  1.
<mgrwt>
<rscale>  2 0.70770720E+02</rscale>
<asrwt>0</asrwt>
<pdfrwt beam="1">  1       21 0.24010491E-01 0.70770720E+02</pdfrwt>
<pdfrwt beam="2">  1       21 0.62491034E-02 0.70770720E+02</pdfrwt>
<totfact> 0.28963678E+06</totfact>
</mgrwt>
</event>
<event>
 5    1  0.1854763E+000  0.1604627E+03  0.7546771E-02  0.1188175E+00
         21   -1    0    0  501  502  0.00000000000E+00  0.00000000000E+00  0.53844472937E+03  0.53844472937E+03  0.00000000000E+00 0. -1.
         21   -1    0    0  502  503 -0.00000000000E+00 -0.00000000000E+00 -0.19503629968E+03  0.19503629968E+03  0.00000000000E+00 0.  1.
         24    1    1    2    0    0  0.60606982835E+02  0.67034429915E+02 -0.76586434888E+00  0.12097364864E+03  0.80419002446E+02 0.  1.
          1    1    1    2  501    0 -0.12192245440E+03 -0.22033812545E+02  0.45863834437E+03  0.47507863002E+03  0.00000000000E+00 0. -1.
         -2    1    1    2    0  503  0.61315471564E+02 -0.45000617371E+02 -0.11446405032E+03  0.13742875039E+03  0.00000000000E+00 0.  1.
<mgrwt>
<rscale>  2 0.16046275E+03</rscale>
<asrwt>0</asrwt>
<pdfrwt beam="1">  1       21 0.82837650E-01 0.16046275E+03</pdfrwt>
<pdfrwt beam="2">  1       21 0.30005585E-01 0.16046275E+03</pdfrwt>
<totfact> 0.13841419E+04</totfact>
</mgrwt>
</event>
<event>
 5    1  0.1854763E+000  0.7388653E+02  0.7546771E-02  0.1347354E+00
         21   -1    0    0  503  502  0.00000000000E+00  0.00000000000E+00  0.28446171847E+02  0.28446171847E+02  0.00000000000E+00 0.  1.
         21   -1    0    0  501  503 -0.00000000000E+00 -0.00000000000E+00 -0.88615021666E+03  0.88615021666E+03  0.00000000000E+00 0. -1.
         24    1    1    2    0    0  0.30176269034E+02  0.42277505606E+02 -0.17258234999E+03  0.19735723492E+03  0.80419002446E+02 0.  0.
          1    1    1    2  501    0 -0.16704184083E+02 -0.20688314506E+02 -0.69067980031E+03  0.69119145153E+03  0.00000000000E+00 0. -1.
         -2    1    1    2    0  502 -0.13472084952E+02 -0.21589191100E+02  0.55581054882E+01  0.26047702046E+02  0.00000000000E+00 0.  1.
<mgrwt>
<rscale>  2 0.73886526E+02</rscale>
<asrwt>0</asrwt>
<pdfrwt beam="1">  1       21 0.43763342E-02 0.73886526E+02</pdfrwt>
<pdfrwt beam="2">  1       21 0.13633080E+00 0.73886526E+02</pdfrwt>
<totfact> 0.13680836E+05</totfact>
</mgrwt>
</event>
<event>
 5    1  0.1854763E+000  0.8710744E+02  0.7546771E-02  0.1310012E+00
         21   -1    0    0  503  502  0.00000000000E+00  0.00000000000E+00  0.45952566174E+01  0.45952566174E+01  0.00000000000E+00 0.  1.
         21   -1    0    0  501  503 -0.00000000000E+00 -0.00000000000E+00 -0.25299901202E+04  0.25299901202E+04  0.00000000000E+00 0. -1.
         24    1    1    2    0    0 -0.39031751156E+02 -0.33178900638E+02 -0.10561111958E+04  0.10604067102E+04  0.80419002446E+02 0.  1.
          1    1    1    2  501    0  0.10511640255E+02  0.46295309073E+02 -0.13499701254E+04  0.13508046082E+04  0.00000000000E+00 0. -1.
         -2    1    1    2    0  502  0.28520110901E+02 -0.13116408435E+02 -0.11931354233E+03  0.12337405837E+03  0.00000000000E+00 0.  1.
<mgrwt>
<rscale>  2 0.87107440E+02</rscale>
<asrwt>0</asrwt>
<pdfrwt beam="1">  1       21 0.70696028E-03 0.87107440E+02</pdfrwt>
<pdfrwt beam="2">  1       21 0.38923050E+00 0.87107440E+02</pdfrwt>
<totfact> 0.77085603E+04</totfact>
</mgrwt>
</event>
<event>
 5    1  0.1854763E+000  0.1143632E+03  0.7546771E-02  0.1252697E+00
         21   -1    0    0  503  502  0.00000000000E+00  0.00000000000E+00  0.58159145815E+03  0.58159145815E+03  0.00000000000E+00 0.  1.
         21   -1    0    0  501  503 -0.00000000000E+00 -0.00000000000E+00 -0.64940440384E+02  0.64940440384E+02  0.00000000000E+00 0. -1.
         24    1    1    2    0    0 -0.90802596111E+00 -0.43043902581E+02  0.51517163201E+02  0.10476085204E+03  0.80419002446E+02 0.  1.
          1    1    1    2  501    0  0.20296383104E+02 -0.43933823350E+02 -0.17134176001E+02  0.51339107789E+02  0.00000000000E+00 0. -1.
         -2    1    1    2    0  502 -0.19388357143E+02  0.86977725931E+02  0.48226803056E+03  0.49043193871E+03  0.00000000000E+00 0.  1.
<mgrwt>
<rscale>  2 0.11436324E+03</rscale>
<asrwt>0</asrwt>
<pdfrwt beam="1">  1       21 0.89475605E-01 0.11436324E+03</pdfrwt>
<pdfrwt beam="2">  1       21 0.99908374E-02 0.11436324E+03</pdfrwt>
<totfact> 0.89601524E+04</totfact>
</mgrwt>
</event>
<event>
 5    1  0.1854763E+000  0.9619345E+02  0.7546771E-02  0.1288511E+00
         21   -1    0    0  503  502  0.00000000000E+00  0.00000000000E+00  0.17576599110E+02  0.17576599110E+02  0.00000000000E+00 0. -1.
         21   -1    0    0  501  503 -0.00000000000E+00 -0.00000000000E+00 -0.56089742355E+03  0.56089742355E+03  0.00000000000E+00 0. -1.
         24    1    1    2    0    0 -0.60676173758E+02 -0.24642657583E+02 -0.32649691251E+03  0.34257307026E+03  0.80419002446E+02 0. -1.
          1    1    1    2  501    0  0.51135748348E+02  0.43763824318E+02 -0.19022596380E+03  0.20178219541E+03  0.00000000000E+00 0. -1.
         -2    1    1    2    0  502  0.95404254099E+01 -0.19121166736E+02 -0.26597948130E+02  0.34118756998E+02  0.00000000000E+00 0.  1.
<mgrwt>
<rscale>  2 0.96193448E+02</rscale>
<asrwt>0</asrwt>
<pdfrwt beam="1">  1       21 0.27040926E-02 0.96193448E+02</pdfrwt>
<pdfrwt beam="2">  1       21 0.86291898E-01 0.96193448E+02</pdfrwt>
<totfact> 0.87420670E+05</totfact>
</mgrwt>
</event>
<event>
 5    1  0.1854763E+000  0.9625519E+02  0.7546771E-02  0.1288374E+00
         21   -1    0    0  501  502  0.00000000000E+00  0.00000000000E+00  0.20540205310E+03  0.20540205310E+03  0.00000000000E+00 0. -1.
         21   -1    0    0  502  503 -0.00000000000E+00 -0.00000000000E+00 -0.81941116992E+02  0.81941116992E+02  0.00000000000E+00 0.  1.
         24    1    1    2    0    0  0.87885687737E+01 -0.44257687698E+02  0.24763130571E+02  0.95479895536E+02  0.80419002446E+02 0. -1.
          1    1    1    2  501    0 -0.47954128801E+02  0.36755689183E+02  0.12855581666E+03  0.14204639085E+03  0.00000000000E+00 0. -1.
         -2    1    1    2    0  503  0.39165560027E+02  0.75019985157E+01 -0.29858011123E+02  0.49816883706E+02  0.00000000000E+00 0.  1.
<mgrwt>
<rscale>  2 0.96255192E+02</rscale>
<asrwt>0</asrwt>
<pdfrwt beam="1">  1       21 0.31600316E-01 0.96255192E+02</pdfrwt>
<pdfrwt beam="2">  1       21 0.12606326E-01 0.96255192E+02</pdfrwt>
<totfact> 0.52194457E+05</totfact>
</mgrwt>
</event>
<event>
 5    1  0.1854763E+000  0.8642711E+02  0.7546771E-02  0.1311742E+00
         21   -1    0    0  503  502  0.00000000000E+00  0.00000000000E+00  0.52515329769E+01  0.52515329769E+01  0.00000000000E+00 0. -1.
         21   -1    0    0  501  503 -0.00000000000E+00 -0.00000000000E+00 -0.21317306561E+04  0.21317306561E+04  0.00000000000E+00 0.  1.
         24    1    1    2    0    0 -0.14912823574E+01 -0.34138021357E+02 -0.15043980374E+04  0.15069334091E+04  0.80419002446E+02 0.  1.
          1    1    1    2  501    0  0.32444468784E+02  0.42448062952E+02 -0.52721495429E+03  0.52991517211E+03  0.00000000000E+00 0. -1.
         -2    1    1    2    0  502 -0.30953186427E+02 -0.83100415950E+01 -0.94866131392E+02  0.10013360788E+03  0.00000000000E+00 0.  1.
<mgrwt>
<rscale>  2 0.86427114E+02</rscale>
<asrwt>0</asrwt>
<pdfrwt beam="1">  1       21 0.80792812E-03 0.86427114E+02</pdfrwt>
<pdfrwt beam="2">  1       21 0.32795858E+00 0.86427114E+02</pdfrwt>
<totfact> 0.14008627E+05</totfact>
</mgrwt>
</event>
<event>
 5    1  0.1854763E+000  0.6285150E+02  0.7546771E-02  0.1386240E+00
         21   -1    0    0  501  502  0.00000000000E+00  0.00000000000E+00  0.11691703851E+04  0.11691703851E+04  0.00000000000E+00 0. -1.
         21   -1    0    0  502  503 -0.00000000000E+00 -0.00000000000E+00 -0.43761517072E+02  0.43761517072E+02  0.00000000000E+00 0.  1.
         24    1    1    2    0    0  0.16361671803E+02 -0.43093478594E+01  0.28531882052E+03  0.29691803596E+03  0.80419002446E+02 0.  1.
          1    1    1    2  501    0  0.45432887748E+00  0.20307784309E+02  0.87437512248E+03  0.87461103773E+03  0.00000000000E+00 0. -1.
         -2    1    1    2    0  503 -0.16816000680E+02 -0.15998436450E+02 -0.34285074919E+02  0.41402828525E+02  0.00000000000E+00 0.  1.
<mgrwt>
<rscale>  2 0.62851501E+02</rscale>
<asrwt>0</asrwt>
<pdfrwt beam="1">  1       21 0.17987234E+00 0.62851501E+02</pdfrwt>
<pdfrwt beam="2">  1       21 0.67325420E-02 0.62851501E+02</pdfrwt>
<totfact> 0.33385850E+04</totfact>
</mgrwt>
</event>
<event>
 5    1  0.1854763E+000  0.9543490E+02  0.7546771E-02  0.1290200E+00
         21   -1    0    0  501  502  0.00000000000E+00  0.00000000000E+00  0.42861274345E+02  0.42861274345E+02  0.00000000000E+00 0. -1.
         21   -1    0    0  502  503 -0.00000000000E+00 -0.00000000000E+00 -0.90470695086E+03  0.90470695086E+03  0.00000000000E+00 0.  1.
         24    1    1    2    0    0 -0.36707984330E+01 -0.50715140580E+02 -0.13163658500E+03  0.16242200193E+03  0.80419002446E+02 0. -1.
          1    1    1    2  501    0 -0.38681350882E+02  0.21289817759E+02  0.82256600301E+01  0.44912857059E+02  0.00000000000E+00 0. -1.
         -2    1    1    2    0  503  0.42352149315E+02  0.29425322822E+02 -0.73843475154E+03  0.74023336622E+03  0.00000000000E+00 0.  1.
<mgrwt>
<rscale>  2 0.95434904E+02</rscale>
<asrwt>0</asrwt>
<pdfrwt beam="1">  1       21 0.65940420E-02 0.95434904E+02</pdfrwt>
<pdfrwt beam="2">  1       21 0.13918569E+00 0.95434904E+02</pdfrwt>
<totfact> 0.64561826E+04</totfact>
</mgrwt>
</event>
<event>
 5    1  0.1854763E+000  0.1198755E+03  0.7546771E-02  0.1243303E+00
         21   -1    0    0  503  502  0.00000000000E+00  0.00000000000E+00  0.82277268697E+02  0.82277268697E+02  0.00000000000E+00 0. -1.
         21   -1    0    0  501  503 -0.00000000000E+00 -0.00000000000E+00 -0.45510443280E+03  0.45510443280E+03  0.00000000000E+00 0. -1.
         24    1    1    2    0    0 -0.70651059919E+02 -0.54641662529E+02 -0.31428889643E+03  0.33648478409E+03  0.80419002446E+02 0. -1.
          1    1    1    2  501    0  0.65406827012E+02  0.74435255470E+02 -0.10847801959E+03  0.14692222777E+03  0.00000000000E+00 0. -1.
         -2    1    1    2    0  502  0.52442329064E+01 -0.19793592941E+02  0.49939751918E+02  0.53974689642E+02  0.00000000000E+00 0.  1.
<mgrwt>
<rscale>  2 0.11987548E+03</rscale>
<asrwt>0</asrwt>
<pdfrwt beam="1">  1       21 0.12658041E-01 0.11987548E+03</pdfrwt>
<pdfrwt beam="2">  1       21 0.70016066E-01 0.11987548E+03</pdfrwt>
<totfact> 0.10168612E+05</totfact>
</mgrwt>
</event>
<event>
 5    1  0.1854763E+000  0.8518905E+02  0.7546771E-02  0.1314939E+00
         21   -1    0    0  503  502  0.00000000000E+00  0.00000000000E+00  0.90955635152E+03  0.90955635152E+03  0.00000000000E+00 0. -1.
         21   -1    0    0  501  503 -0.00000000000E+00 -0.00000000000E+00 -0.12645926222E+02  0.12645926222E+02  0.00000000000E+00 0. -1.
         24    1    1    2    0    0  0.21516620447E+02 -0.46332769562E+01  0.49656373761E+03  0.50351483957E+03  0.80419002446E+02 0. -1.
          1    1    1    2  501    0 -0.41092095141E+02  0.32885019402E+02  0.75536786840E+02  0.92064058950E+02  0.00000000000E+00 0. -1.
         -2    1    1    2    0  502  0.19575474695E+02 -0.28251742446E+02  0.32480990085E+03  0.32662337922E+03  0.00000000000E+00 0.  1.
<mgrwt>
<rscale>  2 0.85189055E+02</rscale>
<asrwt>0</asrwt>
<pdfrwt beam="1">  1       21 0.13993170E+00 0.85189055E+02</pdfrwt>
<pdfrwt beam="2">  1       21 0.19455278E-02 0.85189055E+02</pdfrwt>
<totfact> 0.47404779E+05</totfact>
</mgrwt>
</event>
<event>
 5    1  0.1854763E+000  0.9608850E+02  0.7546771E-02  0.1288743E+00
         21   -1    0    0  501  502  0.00000000000E+00  0.00000000000E+00  0.64606351487E+02  0.64606351487E+02  0.00000000000E+00 0. -1.
         21   -1    0    0  502  503 -0.00000000000E+00 -0.00000000000E+00 -0.48942440738E+03  0.48942440738E+03  0.00000000000E+00 0.  1.
         24    1    1    2    0    0 -0.73704640793E+01  0.53966159187E+02 -0.10245886710E+03  0.14117969217E+03  0.80419002446E+02 0. -1.
          1    1    1    2  501    0  0.20347077242E+02  0.14741794647E+02  0.38118419603E+02  0.45654550427E+02  0.00000000000E+00 0. -1.
         -2    1    1    2    0  503 -0.12976613163E+02 -0.68707953834E+02 -0.36047760840E+03  0.36719651628E+03  0.00000000000E+00 0.  1.
<mgrwt>
<rscale>  2 0.96088498E+02</rscale>
<asrwt>0</asrwt>
<pdfrwt beam="1">  1       21 0.99394393E-02 0.96088498E+02</pdfrwt>
<pdfrwt beam="2">  1       21 0.75296058E-01 0.96088498E+02</pdfrwt>
<totfact> 0.13403656E+05</totfact>
</mgrwt>
</event>
<event>
 5    1  0.1854763E+000  0.6659746E+02  0.7546771E-02  0.1372061E+00
         21   -1    0    0  503  502  0.00000000000E+00  0.00000000000E+00  0.16846829447E+02  0.16846829447E+02  0.00000000000E+00 0.  1.
         21   -1    0    0  501  503 -0.00000000000E+00 -0.00000000000E+00 -0.35377099733E+03  0.35377099733E+03  0.00000000000E+00 0. -1.
         24    1    1    2    0    0 -0.72181788138E+01  0.26384164736E+01 -0.26416985652E+03  0.27624625318E+03  0.80419002446E+02 0. -1.
          1    1    1    2  501    0 -0.20441950209E+02  0.90820910459E+01 -0.55242014773E+02  0.59598975681E+02  0.00000000000E+00 0. -1.
         -2    1    1    2    0  502  0.27660129023E+02 -0.11720507519E+02 -0.17512296592E+02  0.34772597918E+02  0.00000000000E+00 0.  1.
<mgrwt>
<rscale>  2 0.66597462E+02</rscale>
<asrwt>0</asrwt>
<pdfrwt beam="1">  1       21 0.25918199E-02 0.66597462E+02</pdfrwt>
<pdfrwt beam="2">  1       21 0.54426308E-01 0.66597462E+02</pdfrwt>
<totfact> 0.24871374E+06</totfact>
</mgrwt>
</event>
<event>
 5    1  0.1854763E+000  0.6740773E+02  0.7546771E-02  0.1369137E+00
         21   -1    0    0  501  502  0.00000000000E+00  0.00000000000E+00  0.11332990646E+03  0.11332990646E+03  0.00000000000E+00 0. -1.
         21   -1    0    0  502  503 -0.00000000000E+00 -0.00000000000E+00 -0.47463417221E+02  0.47463417221E+02  0.00000000000E+00 0. -1.
         24    1    1    2    0    0  0.18876625167E+02  0.37450453977E+02  0.16597267857E+02  0.92203843388E+02  0.80419002446E+02 0. -1.
          1    1    1    2  501    0 -0.16335817811E+02 -0.17247963077E+02  0.39290849915E+02  0.45914290378E+02  0.00000000000E+00 0. -1.
         -2    1    1    2    0  503 -0.25408073567E+01 -0.20202490900E+02  0.99783714662E+01  0.22675189915E+02  0.00000000000E+00 0.  1.
<mgrwt>
<rscale>  2 0.67407726E+02</rscale>
<asrwt>0</asrwt>
<pdfrwt beam="1">  1       21 0.17435370E-01 0.67407726E+02</pdfrwt>
<pdfrwt beam="2">  1       21 0.73020642E-02 0.67407726E+02</pdfrwt>
<totfact> 0.39801134E+06</totfact>
</mgrwt>
</event>
<event>
 5    1  0.1854763E+000  0.6928188E+02  0.7546771E-02  0.1362552E+00
         21   -1    0    0  501  502  0.00000000000E+00  0.00000000000E+00  0.10829015591E+04  0.10829015591E+04  0.00000000000E+00 0.  1.
         21   -1    0    0  502  503 -0.00000000000E+00 -0.00000000000E+00 -0.81289791346E+01  0.81289791346E+01  0.00000000000E+00 0. -1.
         24    1    1    2    0    0 -0.18394992390E+01  0.68429794446E+01  0.45282265436E+03  0.45996280543E+03  0.80419002446E+02 0.  0.
          1    1    1    2  501    0 -0.23297304949E+02 -0.18857378555E+02  0.57960519647E+03  0.58037965929E+03  0.00000000000E+00 0. -1.
         -2    1    1    2    0  503  0.25136804188E+02  0.12014399110E+02  0.42344729139E+02  0.50688073515E+02  0.00000000000E+00 0.  1.
<mgrwt>
<rscale>  2 0.69281884E+02</rscale>
<asrwt>0</asrwt>
<pdfrwt beam="1">  1       21 0.16660013E+00 0.69281884E+02</pdfrwt>
<pdfrwt beam="2">  1       21 0.12506130E-02 0.69281884E+02</pdfrwt>
<totfact> 0.61318924E+05</totfact>
</mgrwt>
</event>
<event>
 5    1  0.1854763E+000  0.1199825E+03  0.7546771E-02  0.1243126E+00
         21   -1    0    0  503  502  0.00000000000E+00  0.00000000000E+00  0.28869428810E+02  0.28869428810E+02  0.00000000000E+00 0.  1.
         21   -1    0    0  501  503 -0.00000000000E+00 -0.00000000000E+00 -0.16561778050E+04  0.16561778050E+04  0.00000000000E+00 0. -1.
         24    1    1    2    0    0  0.36637967655E+02 -0.55577482880E+02 -0.12904041364E+03  0.16598144952E+03  0.80419002446E+02 0.  1.
          1    1    1    2  501    0 -0.39456030930E+02 -0.30236481985E+02 -0.13226389432E+04  0.13235727397E+04  0.00000000000E+00 0. -1.
         -2    1    1    2    0  502  0.28180632753E+01  0.85813964865E+02 -0.17562901941E+03  0.19549304465E+03  0.00000000000E+00 0.  1.
<mgrwt>
<rscale>  2 0.11998254E+03</rscale>
<asrwt>0</asrwt>
<pdfrwt beam="1">  1       21 0.44414491E-02 0.11998254E+03</pdfrwt>
<pdfrwt beam="2">  1       21 0.25479667E+00 0.11998254E+03</pdfrwt>
<totfact> 0.22075898E+04</totfact>
</mgrwt>
</event>
<event>
 5    1  0.1854763E+000  0.6744687E+02  0.7546771E-02  0.1368997E+00
         21   -1    0    0  503  502  0.00000000000E+00  0.00000000000E+00  0.55606741813E+02  0.55606741813E+02  0.00000000000E+00 0. -1.
         21   -1    0    0  501  503 -0.00000000000E+00 -0.00000000000E+00 -0.11434840695E+03  0.11434840695E+03  0.00000000000E+00 0. -1.
         24    1    1    2    0    0  0.33770957704E+02  0.16336514225E+02  0.61774848466E+01  0.88953564036E+02  0.80419002446E+02 0. -1.
          1    1    1    2  501    0 -0.25549068224E+02  0.24319811121E+01 -0.47993385993E+02  0.54424576419E+02  0.00000000000E+00 0. -1.
         -2    1    1    2    0  502 -0.82218894801E+01 -0.18768495337E+02 -0.16925763986E+02  0.26577008303E+02  0.00000000000E+00 0.  1.
<mgrwt>
<rscale>  2 0.67446872E+02</rscale>
<asrwt>0</asrwt>
<pdfrwt beam="1">  1       21 0.85548834E-02 0.67446872E+02</pdfrwt>
<pdfrwt beam="2">  1       21 0.17592062E-01 0.67446872E+02</pdfrwt>
<totfact> 0.29960273E+06</totfact>
</mgrwt>
</event>
<event>
 5    1  0.1854763E+000  0.1015152E+03  0.7546771E-02  0.1277142E+00
         21   -1    0    0  503  502  0.00000000000E+00  0.00000000000E+00  0.29296953364E+03  0.29296953364E+03  0.00000000000E+00 0.  1.
         21   -1    0    0  501  503 -0.00000000000E+00 -0.00000000000E+00 -0.39232329182E+02  0.39232329182E+02  0.00000000000E+00 0.  1.
         24    1    1    2    0    0  0.80500747157E+02  0.24561669639E+02  0.10042507466E+03  0.15374022728E+03  0.80419002446E+02 0.  1.
          1    1    1    2  501    0 -0.25669072344E+02 -0.18105192237E+02  0.30374288829E+02  0.43695499571E+02  0.00000000000E+00 0. -1.
         -2    1    1    2    0  502 -0.54831674813E+02 -0.64564774027E+01  0.12293784097E+03  0.13476613597E+03  0.00000000000E+00 0.  1.
<mgrwt>
<rscale>  2 0.10151522E+03</rscale>
<asrwt>0</asrwt>
<pdfrwt beam="1">  1       21 0.45072235E-01 0.10151522E+03</pdfrwt>
<pdfrwt beam="2">  1       21 0.60357431E-02 0.10151522E+03</pdfrwt>
<totfact> 0.92259333E+05</totfact>
</mgrwt>
</event>
<event>
 5    1  0.1854763E+000  0.1516904E+03  0.7546771E-02  0.1198411E+00
         21   -1    0    0  503  502  0.00000000000E+00  0.00000000000E+00  0.68347572733E+02  0.68347572733E+02  0.00000000000E+00 0. -1.
         21   -1    0    0  501  503 -0.00000000000E+00 -0.00000000000E+00 -0.99234734002E+03  0.99234734002E+03  0.00000000000E+00 0. -1.
         24    1    1    2    0    0  0.96323300048E+02 -0.48016631468E+02 -0.20222151034E+03  0.24278494646E+03  0.80419002446E+02 0. -1.
          1    1    1    2  501    0 -0.96822903889E+02  0.86923481944E+02 -0.75537668485E+03  0.76650133884E+03  0.00000000000E+00 0. -1.
         -2    1    1    2    0  502  0.49960384130E+00 -0.38906850475E+02  0.33598427908E+02  0.51408627445E+02  0.00000000000E+00 0.  1.
<mgrwt>
<rscale>  2 0.15169039E+03</rscale>
<asrwt>0</asrwt>
<pdfrwt beam="1">  1       21 0.10515012E-01 0.15169039E+03</pdfrwt>
<pdfrwt beam="2">  1       21 0.15266881E+00 0.15169039E+03</pdfrwt>
<totfact> 0.21805163E+04</totfact>
</mgrwt>
</event>
<event>
 5    1  0.1854763E+000  0.1070662E+03  0.7546771E-02  0.1266101E+00
         21   -1    0    0  503  502  0.00000000000E+00  0.00000000000E+00  0.51061933356E+03  0.51061933356E+03  0.00000000000E+00 0.  1.
         21   -1    0    0  501  503 -0.00000000000E+00 -0.00000000000E+00 -0.26347421087E+02  0.26347421087E+02  0.00000000000E+00 0. -1.
         24    1    1    2    0    0  0.31724533569E+02 -0.15576012543E+02  0.17217322248E+03  0.19328707326E+03  0.80419002446E+02 0. -1.
          1    1    1    2  501    0 -0.77720197263E+02 -0.26258600725E-01  0.10310547716E+03  0.12911688183E+03  0.00000000000E+00 0. -1.
         -2    1    1    2    0  502  0.45995663694E+02  0.15602271143E+02  0.20899321284E+03  0.21456279956E+03  0.00000000000E+00 0.  1.
<mgrwt>
<rscale>  2 0.10706620E+03</rscale>
<asrwt>0</asrwt>
<pdfrwt beam="1">  1       21 0.78556813E-01 0.10706620E+03</pdfrwt>
<pdfrwt beam="2">  1       21 0.40534498E-02 0.10706620E+03</pdfrwt>
<totfact> 0.55541645E+05</totfact>
</mgrwt>
</event>
<event>
 5    1  0.1854763E+000  0.1001972E+03  0.7546771E-02  0.1279882E+00
         21   -1    0    0  503  502  0.00000000000E+00  0.00000000000E+00  0.10063183558E+03  0.10063183558E+03  0.00000000000E+00 0. -1.
         21   -1    0    0  501  503 -0.00000000000E+00 -0.00000000000E+00 -0.11644545390E+03  0.11644545390E+03  0.00000000000E+00 0.  1.
         24    1    1    2    0    0  0.16421421961E+02  0.36335430998E+01  0.11940218052E+02  0.83021988028E+02  0.80419002446E+02 0. -1.
          1    1    1    2  501    0 -0.52118886548E+02  0.37173909684E+02 -0.43735649503E+02  0.77531186845E+02  0.00000000000E+00 0. -1.
         -2    1    1    2    0  502  0.35697464587E+02 -0.40807452783E+02  0.15981813132E+02  0.56524114602E+02  0.00000000000E+00 0.  1.
<mgrwt>
<rscale>  2 0.10019718E+03</rscale>
<asrwt>0</asrwt>
<pdfrwt beam="1">  1       21 0.15481821E-01 0.10019718E+03</pdfrwt>
<pdfrwt beam="2">  1       21 0.17914685E-01 0.10019718E+03</pdfrwt>
<totfact> 0.10456300E+06</totfact>
</mgrwt>
</event>
<event>
 5    1  0.1854763E+000  0.1229447E+03  0.7546771E-02  0.1238317E+00
         21   -1    0    0  501  502  0.00000000000E+00  0.00000000000E+00  0.16814348311E+03  0.16814348311E+03  0.00000000000E+00 0. -1.
         21   -1    0    0  502  503 -0.00000000000E+00 -0.00000000000E+00 -0.46806952775E+03  0.46806952775E+03  0.00000000000E+00 0.  1.
         24    1    1    2    0    0 -0.70412335770E+02 -0.21891567792E+02  0.23637234059E+02  0.11163813218E+03  0.80419002446E+02 0. -1.
          1    1    1    2  501    0  0.10214747288E+03  0.24161413518E+02  0.72286288038E+02  0.12744876444E+03  0.00000000000E+00 0. -1.
         -2    1    1    2    0  503 -0.31735137106E+02 -0.22698457258E+01 -0.39584956674E+03  0.39712611424E+03  0.00000000000E+00 0.  1.
<mgrwt>
<rscale>  2 0.12294469E+03</rscale>
<asrwt>0</asrwt>
<pdfrwt beam="1">  1       21 0.25868228E-01 0.12294469E+03</pdfrwt>
<pdfrwt beam="2">  1       21 0.72010696E-01 0.12294469E+03</pdfrwt>
<totfact> 0.25797077E+04</totfact>
</mgrwt>
</event>
<event>
 5    1  0.1854763E+000  0.8113307E+02  0.7546771E-02  0.1325866E+00
         21   -1    0    0  501  502  0.00000000000E+00  0.00000000000E+00  0.32921645561E+03  0.32921645561E+03  0.00000000000E+00 0. -1.
         21   -1    0    0  502  503 -0.00000000000E+00 -0.00000000000E+00 -0.52599185938E+02  0.52599185938E+02  0.00000000000E+00 0.  1.
         24    1    1    2    0    0 -0.38531983299E+02  0.43092207738E+02  0.67088234123E+02  0.11962315502E+03  0.80419002446E+02 0.  1.
          1    1    1    2  501    0  0.12114039790E+02 -0.32640705522E+02  0.22645943140E+03  0.22912014247E+03  0.00000000000E+00 0. -1.
         -2    1    1    2    0  503  0.26417943510E+02 -0.10451502215E+02 -0.16930395849E+02  0.33072344057E+02  0.00000000000E+00 0.  1.
<mgrwt>
<rscale>  2 0.81133068E+02</rscale>
<asrwt>0</asrwt>
<pdfrwt beam="1">  1       21 0.50648684E-01 0.81133068E+02</pdfrwt>
<pdfrwt beam="2">  1       21 0.80921826E-02 0.81133068E+02</pdfrwt>
<totfact> 0.44258623E+05</totfact>
</mgrwt>
</event>
<event>
 5    1  0.1854763E+000  0.6351314E+02  0.7546771E-02  0.1383653E+00
         21   -1    0    0  501  502  0.00000000000E+00  0.00000000000E+00  0.17812888121E+03  0.17812888121E+03  0.00000000000E+00 0.  1.
         21   -1    0    0  502  503 -0.00000000000E+00 -0.00000000000E+00 -0.26015985029E+02  0.26015985029E+02  0.00000000000E+00 0. -1.
         24    1    1    2    0    0 -0.22129167488E+01 -0.31292449041E+01  0.86529591835E+02  0.11819168918E+03  0.80419002446E+02 0. -1.
          1    1    1    2  501    0 -0.20319237049E+02  0.10417936631E+02  0.55871354116E+02  0.60357377417E+02  0.00000000000E+00 0. -1.
         -2    1    1    2    0  503  0.22532153797E+02 -0.72886917272E+01  0.97119502274E+01  0.25595799637E+02  0.00000000000E+00 0.  1.
<mgrwt>
<rscale>  2 0.63513136E+02</rscale>
<asrwt>0</asrwt>
<pdfrwt beam="1">  1       21 0.27404442E-01 0.63513136E+02</pdfrwt>
<pdfrwt beam="2">  1       21 0.40024594E-02 0.63513136E+02</pdfrwt>
<totfact> 0.46917525E+06</totfact>
</mgrwt>
</event>
<event>
 5    1  0.1854763E+000  0.1106884E+03  0.7546771E-02  0.1259300E+00
         21   -1    0    0  503  502  0.00000000000E+00  0.00000000000E+00  0.46508606433E+03  0.46508606433E+03  0.00000000000E+00 0. -1.
         21   -1    0    0  501  503 -0.00000000000E+00 -0.00000000000E+00 -0.11687098102E+03  0.11687098102E+03  0.00000000000E+00 0. -1.
         24    1    1    2    0    0 -0.81648879544E+02 -0.22124519076E+02  0.36228162201E+03  0.38061952587E+03  0.80419002446E+02 0. -1.
          1    1    1    2  501    0  0.13044148435E+02 -0.20201840339E+02 -0.88444440743E+02  0.91655241312E+02  0.00000000000E+00 0. -1.
         -2    1    1    2    0  502  0.68604731109E+02  0.42326359415E+02  0.74377902051E+02  0.10968227817E+03  0.00000000000E+00 0.  1.
<mgrwt>
<rscale>  2 0.11068839E+03</rscale>
<asrwt>0</asrwt>
<pdfrwt beam="1">  1       21 0.71551701E-01 0.11068839E+03</pdfrwt>
<pdfrwt beam="2">  1       21 0.17980151E-01 0.11068839E+03</pdfrwt>
<totfact> 0.51851065E+04</totfact>
</mgrwt>
</event>
<event>
 5    1  0.1854763E+000  0.9864280E+02  0.7546771E-02  0.1283176E+00
         21   -1    0    0  503  502  0.00000000000E+00  0.00000000000E+00  0.39492258620E+03  0.39492258620E+03  0.00000000000E+00 0.  1.
         21   -1    0    0  501  503 -0.00000000000E+00 -0.00000000000E+00 -0.33037613963E+02  0.33037613963E+02  0.00000000000E+00 0. -1.
         24    1    1    2    0    0  0.13805833106E+02  0.37327102324E+02  0.19243929441E+03  0.21232995922E+03  0.80419002446E+02 0.  1.
          1    1    1    2  501    0 -0.56879917102E+02 -0.14021077537E+02  0.26071339548E+02  0.64121995685E+02  0.00000000000E+00 0. -1.
         -2    1    1    2    0  502  0.43074083996E+02 -0.23306024786E+02  0.14337433829E+03  0.15150824526E+03  0.00000000000E+00 0.  1.
<mgrwt>
<rscale>  2 0.98642804E+02</rscale>
<asrwt>0</asrwt>
<pdfrwt beam="1">  1       21 0.60757318E-01 0.98642804E+02</pdfrwt>
<pdfrwt beam="2">  1       21 0.50827101E-02 0.98642804E+02</pdfrwt>
<totfact> 0.66461087E+05</totfact>
</mgrwt>
</event>
<event>
 5    1  0.1854763E+000  0.7641368E+02  0.7546771E-02  0.1339548E+00
         21   -1    0    0  501  502  0.00000000000E+00  0.00000000000E+00  0.14247569290E+02  0.14247569290E+02  0.00000000000E+00 0. -1.
         21   -1    0    0  502  503 -0.00000000000E+00 -0.00000000000E+00 -0.40996417507E+03  0.40996417507E+03  0.00000000000E+00 0.  1.
         24    1    1    2    0    0 -0.90824917560E+01  0.36754664327E+02 -0.23388015820E+03  0.25020100192E+03  0.80419002446E+02 0.  1.
          1    1    1    2  501    0 -0.11556012612E+02 -0.41234227560E+02 -0.10792873170E+03  0.11611379796E+03  0.00000000000E+00 0. -1.
         -2    1    1    2    0  503  0.20638504368E+02  0.44795632332E+01 -0.53907715877E+02  0.57896944482E+02  0.00000000000E+00 0.  1.
<mgrwt>
<rscale>  2 0.76413685E+02</rscale>
<asrwt>0</asrwt>
<pdfrwt beam="1">  1       21 0.21919337E-02 0.76413685E+02</pdfrwt>
<pdfrwt beam="2">  1       21 0.63071413E-01 0.76413685E+02</pdfrwt>
<totfact> 0.24102212E+06</totfact>
</mgrwt>
</event>
<event>
 5    1  0.2259878E+000  0.1162703E+03  0.7546771E-02  0.1249380E+00
         21   -1    0    0  503  502  0.00000000000E+00  0.00000000000E+00  0.36595291507E+03  0.36595291507E+03  0.00000000000E+00 0.  1.
         21   -1    0    0  501  503 -0.00000000000E+00 -0.00000000000E+00 -0.11358875323E+03  0.11358875323E+03  0.00000000000E+00 0. -1.
         24    1    1    2    0    0 -0.15245702603E+02 -0.61504513392E+02  0.21805586299E+03  0.24089585292E+03  0.80419002446E+02 0.  1.
          1    1    1    2  501    0  0.64446400235E+02  0.43554700533E+02 -0.80816542543E+02  0.11216801679E+03  0.00000000000E+00 0. -1.
         -2    1    1    2    0  502 -0.49200697632E+02  0.17949812859E+02  0.11512484140E+03  0.12647779859E+03  0.00000000000E+00 0.  1.
<mgrwt>
<rscale>  2 0.11627030E+03</rscale>
<asrwt>0</asrwt>
<pdfrwt beam="1">  1       21 0.56300448E-01 0.11627030E+03</pdfrwt>
<pdfrwt beam="2">  1       21 0.17475193E-01 0.11627030E+03</pdfrwt>
<totfact> 0.90856304E+04</totfact>
</mgrwt>
</event>
<event>
 5    1  0.1854763E+000  0.6949589E+02  0.7546771E-02  0.1361816E+00
         21   -1    0    0  503  502  0.00000000000E+00  0.00000000000E+00  0.98633274438E+01  0.98633274438E+01  0.00000000000E+00 0.  1.
         21   -1    0    0  501  503 -0.00000000000E+00 -0.00000000000E+00 -0.82371240279E+03  0.82371240279E+03  0.00000000000E+00 0.  1.
         24    1    1    2    0    0  0.20649440557E+02  0.48918318829E+01 -0.32831957476E+03  0.33869054982E+03  0.80419002446E+02 0. -1.
          1    1    1    2  501    0 -0.10645077344E+02  0.23456047953E+02 -0.43727390399E+03  0.43803192916E+03  0.00000000000E+00 0. -1.
         -2    1    1    2    0  502 -0.10004363213E+02 -0.28347879836E+02 -0.48255596603E+02  0.56853251253E+02  0.00000000000E+00 0.  1.
<mgrwt>
<rscale>  2 0.69495890E+02</rscale>
<asrwt>0</asrwt>
<pdfrwt beam="1">  1       21 0.15174352E-02 0.69495890E+02</pdfrwt>
<pdfrwt beam="2">  1       21 0.12672497E+00 0.69495890E+02</pdfrwt>
<totfact> 0.89737717E+05</totfact>
</mgrwt>
</event>
<event>
 5    1  0.1854763E+000  0.1060209E+03  0.7546771E-02  0.1268121E+00
         21   -1    0    0  501  502  0.00000000000E+00  0.00000000000E+00  0.65580766997E+03  0.65580766997E+03  0.00000000000E+00 0. -1.
         21   -1    0    0  502  503 -0.00000000000E+00 -0.00000000000E+00 -0.25500175933E+02  0.25500175933E+02  0.00000000000E+00 0. -1.
         24    1    1    2    0    0 -0.30056462107E+02 -0.84374499514E+02  0.16295987260E+03  0.20259709552E+03  0.80419002446E+02 0. -1.
          1    1    1    2  501    0  0.25385013156E+02  0.42275079346E+02  0.35911562750E+03  0.36248533093E+03  0.00000000000E+00 0. -1.
         -2    1    1    2    0  503  0.46714489503E+01  0.42099420168E+02  0.10823199394E+03  0.11622541945E+03  0.00000000000E+00 0.  1.
<mgrwt>
<rscale>  2 0.10602094E+03</rscale>
<asrwt>0</asrwt>
<pdfrwt beam="1">  1       21 0.10089347E+00 0.10602094E+03</pdfrwt>
<pdfrwt beam="2">  1       21 0.39231045E-02 0.10602094E+03</pdfrwt>
<totfact> 0.33232235E+05</totfact>
</mgrwt>
</event>
<event>
 5    1  0.1854763E+000  0.2204714E+03  0.7546771E-02  0.1133532E+00
         21   -1    0    0  501  502  0.00000000000E+00  0.00000000000E+00  0.14613526876E+03  0.14613526876E+03  0.00000000000E+00 0. -1.
         21   -1    0    0  502  503 -0.00000000000E+00 -0.00000000000E+00 -0.10922082050E+04  0.10922082050E+04  0.00000000000E+00 0.  1.
         24    1    1    2    0    0 -0.30039634138E+02  0.17969944088E+03 -0.51093076647E+03  0.54837189275E+03  0.80419002446E+02 0.  1.
          1    1    1    2  501    0 -0.61567939131E+02 -0.35838470372E+02  0.10312046011E+03  0.12533489690E+03  0.00000000000E+00 0. -1.
         -2    1    1    2    0  503  0.91607573269E+02 -0.14386097051E+03 -0.53826262992E+03  0.56463668414E+03  0.00000000000E+00 0.  1.
<mgrwt>
<rscale>  2 0.22047141E+03</rscale>
<asrwt>0</asrwt>
<pdfrwt beam="1">  1       21 0.22482348E-01 0.22047141E+03</pdfrwt>
<pdfrwt beam="2">  1       21 0.16803204E+00 0.22047141E+03</pdfrwt>
<totfact> 0.39856583E+03</totfact>
</mgrwt>
</event>
<event>
 5    1  0.1854763E+000  0.6160897E+02  0.7546771E-02  0.1391201E+00
         21   -1    0    0  501  502  0.00000000000E+00  0.00000000000E+00  0.54499098644E+02  0.54499098644E+02  0.00000000000E+00 0. -1.
         21   -1    0    0  502  503 -0.00000000000E+00 -0.00000000000E+00 -0.12923407070E+03  0.12923407070E+03  0.00000000000E+00 0. -1.
         24    1    1    2    0    0 -0.57564441879E+01 -0.70989242517E+01 -0.58565590095E+02  0.99903331640E+02  0.80419002446E+02 0. -1.
          1    1    1    2  501    0  0.20372903695E+02 -0.74173838346E+01  0.27811226012E+02  0.35263821123E+02  0.00000000000E+00 0. -1.
         -2    1    1    2    0  503 -0.14616459507E+02  0.14516308086E+02 -0.43980607973E+02  0.48566016582E+02  0.00000000000E+00 0.  1.
<mgrwt>
<rscale>  2 0.61608974E+02</rscale>
<asrwt>0</asrwt>
<pdfrwt beam="1">  1       21 0.83844768E-02 0.61608974E+02</pdfrwt>
<pdfrwt beam="2">  1       21 0.19882164E-01 0.61608974E+02</pdfrwt>
<totfact> 0.24731463E+06</totfact>
</mgrwt>
</event>
<event>
 5    1  0.1854763E+000  0.1034992E+03  0.7546771E-02  0.1273105E+00
         21   -1    0    0  503  502  0.00000000000E+00  0.00000000000E+00  0.45780918966E+02  0.45780918966E+02  0.00000000000E+00 0.  1.
         21   -1    0    0  501  503 -0.00000000000E+00 -0.00000000000E+00 -0.24964274052E+03  0.24964274052E+03  0.00000000000E+00 0.  1.
         24    1    1    2    0    0 -0.66258640691E+02 -0.36658863874E+02 -0.86748121760E+02  0.14045117426E+03  0.80419002446E+02 0.  1.
          1    1    1    2  501    0 -0.67277269299E+01  0.20784487333E+02 -0.49971063347E+02  0.54537733684E+02  0.00000000000E+00 0. -1.
         -2    1    1    2    0  502  0.72986367621E+02  0.15874376541E+02 -0.67142636448E+02  0.10043475155E+03  0.00000000000E+00 0.  1.
<mgrwt>
<rscale>  2 0.10349922E+03</rscale>
<asrwt>0</asrwt>
<pdfrwt beam="1">  1       21 0.70432182E-02 0.10349922E+03</pdfrwt>
<pdfrwt beam="2">  1       21 0.38406576E-01 0.10349922E+03</pdfrwt>
<totfact> 0.97806142E+05</totfact>
</mgrwt>
</event>
<event>
 5    1  0.1854763E+000  0.9645443E+02  0.7546771E-02  0.1287934E+00
         21   -1    0    0  503  502  0.00000000000E+00  0.00000000000E+00  0.58120022725E+03  0.58120022725E+03  0.00000000000E+00 0.  1.
         21   -1    0    0  501  503 -0.00000000000E+00 -0.00000000000E+00 -0.22566562627E+02  0.22566562627E+02  0.00000000000E+00 0. -1.
         24    1    1    2    0    0  0.79141920706E+02 -0.89106468963E+01  0.45587418398E+03  0.46971409476E+03  0.80419002446E+02 0.  1.
          1    1    1    2  501    0 -0.42972421260E+02  0.66863210869E+01  0.30198309597E+02  0.52945951508E+02  0.00000000000E+00 0. -1.
         -2    1    1    2    0  502 -0.36169499446E+02  0.22243258094E+01  0.72561171044E+02  0.81106743609E+02  0.00000000000E+00 0.  1.
<mgrwt>
<rscale>  2 0.96454427E+02</rscale>
<asrwt>0</asrwt>
<pdfrwt beam="1">  1       21 0.89415408E-01 0.96454427E+02</pdfrwt>
<pdfrwt beam="2">  1       21 0.34717793E-02 0.96454427E+02</pdfrwt>
<totfact> 0.53693219E+05</totfact>
</mgrwt>
</event>
<event>
 5    1  0.1854763E+000  0.9858129E+02  0.7546771E-02  0.1283308E+00
         21   -1    0    0  503  502  0.00000000000E+00  0.00000000000E+00  0.96983564253E+02  0.96983564253E+02  0.00000000000E+00 0. -1.
         21   -1    0    0  501  503 -0.00000000000E+00 -0.00000000000E+00 -0.27728216892E+03  0.27728216892E+03  0.00000000000E+00 0. -1.
         24    1    1    2    0    0  0.60518511277E+02  0.31106019381E+02 -0.24669513070E+02  0.10819369426E+03  0.80419002446E+02 0. -1.
          1    1    1    2  501    0 -0.12857508645E+02 -0.41149270611E+02 -0.19730995784E+03  0.20196484214E+03  0.00000000000E+00 0. -1.
         -2    1    1    2    0  502 -0.47661002632E+02  0.10043251230E+02  0.41680866237E+02  0.64107196768E+02  0.00000000000E+00 0.  1.
<mgrwt>
<rscale>  2 0.98581293E+02</rscale>
<asrwt>0</asrwt>
<pdfrwt beam="1">  1       21 0.14920549E-01 0.98581293E+02</pdfrwt>
<pdfrwt beam="2">  1       21 0.42658795E-01 0.98581293E+02</pdfrwt>
<totfact> 0.21468525E+05</totfact>
</mgrwt>
</event>
<event>
 5    1  0.1854763E+000  0.1186330E+03  0.7546771E-02  0.1245369E+00
         21   -1    0    0  503  502  0.00000000000E+00  0.00000000000E+00  0.63808286463E+02  0.63808286463E+02  0.00000000000E+00 0.  1.
         21   -1    0    0  501  503 -0.00000000000E+00 -0.00000000000E+00 -0.24490779517E+03  0.24490779517E+03  0.00000000000E+00 0.  1.
         24    1    1    2    0    0  0.58137201192E+02 -0.63225202088E+02 -0.13604359812E+03  0.17986783171E+03  0.80419002446E+02 0.  1.
          1    1    1    2  501    0  0.21561917382E+02  0.10020604763E+02 -0.16202171141E+02  0.28772194054E+02  0.00000000000E+00 0. -1.
         -2    1    1    2    0  502 -0.79699118574E+02  0.53204597325E+02 -0.28853739449E+02  0.10007605587E+03  0.00000000000E+00 0.  1.
<mgrwt>
<rscale>  2 0.11863296E+03</rscale>
<asrwt>0</asrwt>
<pdfrwt beam="1">  1       21 0.98166595E-02 0.11863296E+03</pdfrwt>
<pdfrwt beam="2">  1       21 0.37678122E-01 0.11863296E+03</pdfrwt>
<totfact> 0.57379399E+05</totfact>
</mgrwt>
</event>
<event>
 5    1  0.1954284E+000  0.9027001E+02  0.7546771E-02  0.1302199E+00
         21   -1    0    0  501  502  0.00000000000E+00  0.00000000000E+00  0.87468440466E+02  0.87468440466E+02  0.00000000000E+00 0. -1.
         21   -1    0    0  502  503 -0.00000000000E+00 -0.00000000000E+00 -0.43071404494E+03  0.43071404494E+03  0.00000000000E+00 0.  1.
         24    1    1    2    0    0 -0.34303449576E+02 -0.39386606825E+02  0.50445818504E+02  0.10835140981E+03  0.80419002446E+02 0. -1.
          1    1    1    2  501    0  0.30738972141E+02 -0.12102620487E+02 -0.37736461886E+02  0.50153747483E+02  0.00000000000E+00 0. -1.
         -2    1    1    2    0  503  0.35644774347E+01  0.51489227312E+02 -0.35595496110E+03  0.35967732811E+03  0.00000000000E+00 0.  1.
<mgrwt>
<rscale>  2 0.90270009E+02</rscale>
<asrwt>0</asrwt>
<pdfrwt beam="1">  1       21 0.13456683E-01 0.90270009E+02</pdfrwt>
<pdfrwt beam="2">  1       21 0.66263698E-01 0.90270009E+02</pdfrwt>
<totfact> 0.10422663E+05</totfact>
</mgrwt>
</event>
<event>
 5    1  0.1854763E+000  0.1020488E+03  0.7546771E-02  0.1276046E+00
         21   -1    0    0  503  502  0.00000000000E+00  0.00000000000E+00  0.74991482909E+02  0.74991482909E+02  0.00000000000E+00 0.  1.
         21   -1    0    0  501  503 -0.00000000000E+00 -0.00000000000E+00 -0.17862494317E+03  0.17862494317E+03  0.00000000000E+00 0.  1.
         24    1    1    2    0    0 -0.34005469434E+02  0.75072436784E+01  0.22331494672E+00  0.87635589135E+02  0.80419002446E+02 0.  1.
          1    1    1    2  501    0 -0.10039619525E+01 -0.56355223509E+02 -0.86825378482E+02  0.10351601569E+03  0.00000000000E+00 0. -1.
         -2    1    1    2    0  502  0.35009431386E+02  0.48847979831E+02 -0.17031396725E+02  0.62464821251E+02  0.00000000000E+00 0.  1.
<mgrwt>
<rscale>  2 0.10204880E+03</rscale>
<asrwt>0</asrwt>
<pdfrwt beam="1">  1       21 0.11537151E-01 0.10204880E+03</pdfrwt>
<pdfrwt beam="2">  1       21 0.27480760E-01 0.10204880E+03</pdfrwt>
<totfact> 0.79684521E+05</totfact>
</mgrwt>
</event>
<event>
 5    1  0.1854763E+000  0.6747727E+02  0.7546771E-02  0.1368888E+00
         21   -1    0    0  501  502  0.00000000000E+00  0.00000000000E+00  0.14266854618E+04  0.14266854618E+04  0.00000000000E+00 0. -1.
         21   -1    0    0  502  503 -0.00000000000E+00 -0.00000000000E+00 -0.34586877186E+01  0.34586877186E+01  0.00000000000E+00 0.  1.
         24    1    1    2    0    0  0.58214410305E+01  0.80675508088E+01  0.74041951313E+03  0.74484041642E+03  0.80419002446E+02 0.  1.
          1    1    1    2  501    0  0.47640966117E+01 -0.29572308837E+02  0.50509069235E+03  0.50597808803E+03  0.00000000000E+00 0. -1.
         -2    1    1    2    0  503 -0.10585537642E+02  0.21504758028E+02  0.17771656861E+03  0.17932564508E+03  0.00000000000E+00 0.  1.
<mgrwt>
<rscale>  2 0.67477267E+02</rscale>
<asrwt>0</asrwt>
<pdfrwt beam="1">  1       21 0.21948960E+00 0.67477267E+02</pdfrwt>
<pdfrwt beam="2">  1       21 0.53210694E-03 0.67477267E+02</pdfrwt>
<totfact> 0.10764591E+06</totfact>
</mgrwt>
</event>
<event>
 5    1  0.1854763E+000  0.6456135E+02  0.7546771E-02  0.1379629E+00
         21   -1    0    0  503  502  0.00000000000E+00  0.00000000000E+00  0.42426150917E+03  0.42426150917E+03  0.00000000000E+00 0. -1.
         21   -1    0    0  501  503 -0.00000000000E+00 -0.00000000000E+00 -0.75257463762E+02  0.75257463762E+02  0.00000000000E+00 0. -1.
         24    1    1    2    0    0 -0.49389395059E+01 -0.52644529556E+01  0.28083525185E+03  0.29221184477E+03  0.80419002446E+02 0. -1.
          1    1    1    2  501    0  0.21891476610E+02 -0.11336951380E+02 -0.66313466788E+02  0.70747714396E+02  0.00000000000E+00 0. -1.
         -2    1    1    2    0  502 -0.16952537104E+02  0.16601404336E+02  0.13448226035E+03  0.13655941377E+03  0.00000000000E+00 0.  1.
<mgrwt>
<rscale>  2 0.64561350E+02</rscale>
<asrwt>0</asrwt>
<pdfrwt beam="1">  1       21 0.65271000E-01 0.64561350E+02</pdfrwt>
<pdfrwt beam="2">  1       21 0.11578072E-01 0.64561350E+02</pdfrwt>
<totfact> 0.14191966E+05</totfact>
</mgrwt>
</event>
<event>
 5    1  0.1854763E+000  0.6494630E+02  0.7546771E-02  0.1378174E+00
         21   -1    0    0  503  502  0.00000000000E+00  0.00000000000E+00  0.17175239916E+02  0.17175239916E+02  0.00000000000E+00 0.  1.
         21   -1    0    0  501  503 -0.00000000000E+00 -0.00000000000E+00 -0.27021727182E+03  0.27021727182E+03  0.00000000000E+00 0. -1.
         24    1    1    2    0    0  0.59501777643E+01  0.11173716740E+02 -0.15145602521E+03  0.17194882986E+03  0.80419002446E+02 0.  1.
          1    1    1    2  501    0 -0.24567367634E+02  0.34513152416E+01 -0.78692081119E+02  0.82510064600E+02  0.00000000000E+00 0. -1.
         -2    1    1    2    0  502  0.18617189870E+02 -0.14625031982E+02 -0.22893925577E+02  0.32933617285E+02  0.00000000000E+00 0.  1.
<mgrwt>
<rscale>  2 0.64946299E+02</rscale>
<asrwt>0</asrwt>
<pdfrwt beam="1">  1       21 0.26423447E-02 0.64946299E+02</pdfrwt>
<pdfrwt beam="2">  1       21 0.41571886E-01 0.64946299E+02</pdfrwt>
<totfact> 0.41355713E+06</totfact>
</mgrwt>
</event>
<event>
 5    1  0.1854763E+000  0.8569368E+02  0.7546771E-02  0.1313628E+00
         21   -1    0    0  501  502  0.00000000000E+00  0.00000000000E+00  0.24176750496E+03  0.24176750496E+03  0.00000000000E+00 0. -1.
         21   -1    0    0  502  503 -0.00000000000E+00 -0.00000000000E+00 -0.33948972350E+02  0.33948972350E+02  0.00000000000E+00 0. -1.
         24    1    1    2    0    0  0.79513413503E+01  0.39851385771E+02  0.90136548194E+02  0.12744869576E+03  0.80419002446E+02 0. -1.
          1    1    1    2  501    0 -0.18939815167E+02 -0.57475179473E+02  0.11104569111E+03  0.12646445496E+03  0.00000000000E+00 0. -1.
         -2    1    1    2    0  503  0.10988473817E+02  0.17623793703E+02  0.66362933026E+01  0.21803326583E+02  0.00000000000E+00 0.  1.
<mgrwt>
<rscale>  2 0.85693678E+02</rscale>
<asrwt>0</asrwt>
<pdfrwt beam="1">  1       21 0.37195000E-01 0.85693678E+02</pdfrwt>
<pdfrwt beam="2">  1       21 0.52229190E-02 0.85693678E+02</pdfrwt>
<totfact> 0.17154775E+06</totfact>
</mgrwt>
</event>
<event>
 5    1  0.1854763E+000  0.6495464E+02  0.7546771E-02  0.1378142E+00
         21   -1    0    0  503  502  0.00000000000E+00  0.00000000000E+00  0.92581841252E+03  0.92581841252E+03  0.00000000000E+00 0.  1.
         21   -1    0    0  501  503 -0.00000000000E+00 -0.00000000000E+00 -0.56871073310E+01  0.56871073310E+01  0.00000000000E+00 0. -1.
         24    1    1    2    0    0 -0.28840659776E+01 -0.28671410210E+02  0.74998879029E+03  0.75483824037E+03  0.80419002446E+02 0.  1.
          1    1    1    2  501    0  0.18443129215E+02  0.15058131615E+02  0.59085248702E+02  0.63702142484E+02  0.00000000000E+00 0. -1.
         -2    1    1    2    0  502 -0.15559063237E+02  0.13613278595E+02  0.11105726620E+03  0.11296513700E+03  0.00000000000E+00 0.  1.
<mgrwt>
<rscale>  2 0.64954638E+02</rscale>
<asrwt>0</asrwt>
<pdfrwt beam="1">  1       21 0.14243348E+00 0.64954638E+02</pdfrwt>
<pdfrwt beam="2">  1       21 0.87494032E-03 0.64954638E+02</pdfrwt>
<totfact> 0.15894793E+06</totfact>
</mgrwt>
</event>
<event>
 5    1  0.1854763E+000  0.8207276E+02  0.7546771E-02  0.1323270E+00
         21   -1    0    0  503  502  0.00000000000E+00  0.00000000000E+00  0.16681097949E+03  0.16681097949E+03  0.00000000000E+00 0.  1.
         21   -1    0    0  501  503 -0.00000000000E+00 -0.00000000000E+00 -0.51299573806E+02  0.51299573806E+02  0.00000000000E+00 0. -1.
         24    1    1    2    0    0 -0.79875880640E+01 -0.60880082570E+02  0.11614687613E+03  0.15403732926E+03  0.80419002446E+02 0.  1.
          1    1    1    2  501    0  0.11449134364E+02  0.34286695897E+02 -0.62232423750E+01  0.36679543875E+02  0.00000000000E+00 0. -1.
         -2    1    1    2    0  502 -0.34615462996E+01  0.26593386673E+02  0.55877719288E+01  0.27393680159E+02  0.00000000000E+00 0.  1.
<mgrwt>
<rscale>  2 0.82072765E+02</rscale>
<asrwt>0</asrwt>
<pdfrwt beam="1">  1       21 0.25663227E-01 0.82072765E+02</pdfrwt>
<pdfrwt beam="2">  1       21 0.78922422E-02 0.82072765E+02</pdfrwt>
<totfact> 0.17383611E+06</totfact>
</mgrwt>
</event>
<event>
 5    1  0.2295131E+000  0.1757304E+03  0.7546771E-02  0.1172000E+00
         21   -1    0    0  501  502  0.00000000000E+00  0.00000000000E+00  0.71654157846E+03  0.71654157846E+03  0.00000000000E+00 0. -1.
         21   -1    0    0  502  503 -0.00000000000E+00 -0.00000000000E+00 -0.85934018644E+02  0.85934018644E+02  0.00000000000E+00 0.  1.
         24    1    1    2    0    0 -0.84072953833E+02  0.31843394780E+01  0.18856801725E+03  0.22159312866E+03  0.80419002446E+02 0. -1.
          1    1    1    2  501    0  0.43765217109E+02 -0.11135061489E+03  0.44955728710E+03  0.46520544714E+03  0.00000000000E+00 0. -1.
         -2    1    1    2    0  503  0.40307736724E+02  0.10816627542E+03 -0.75177445261E+01  0.11567702131E+03  0.00000000000E+00 0.  1.
<mgrwt>
<rscale>  2 0.17573036E+03</rscale>
<asrwt>0</asrwt>
<pdfrwt beam="1">  1       21 0.11023716E+00 0.17573036E+03</pdfrwt>
<pdfrwt beam="2">  1       21 0.13220619E-01 0.17573036E+03</pdfrwt>
<totfact> 0.32349923E+04</totfact>
</mgrwt>
</event>
<event>
 5    1  0.1854763E+000  0.7412889E+02  0.7546771E-02  0.1346590E+00
         21   -1    0    0  501  502  0.00000000000E+00  0.00000000000E+00  0.29219512834E+02  0.29219512834E+02  0.00000000000E+00 0.  1.
         21   -1    0    0  502  503 -0.00000000000E+00 -0.00000000000E+00 -0.21004583464E+03  0.21004583464E+03  0.00000000000E+00 0. -1.
         24    1    1    2    0    0 -0.14716958743E+02  0.43266218814E+02 -0.77067707555E+02  0.12039602181E+03  0.80419002446E+02 0.  1.
          1    1    1    2  501    0  0.23099626126E+02 -0.18440120327E+02 -0.38432304033E+02  0.48483737048E+02  0.00000000000E+00 0. -1.
         -2    1    1    2    0  503 -0.83826673823E+01 -0.24826098487E+02 -0.65326310222E+02  0.70385588623E+02  0.00000000000E+00 0.  1.
<mgrwt>
<rscale>  2 0.74128894E+02</rscale>
<asrwt>0</asrwt>
<pdfrwt beam="1">  1       21 0.44953096E-02 0.74128894E+02</pdfrwt>
<pdfrwt beam="2">  1       21 0.32314744E-01 0.74128894E+02</pdfrwt>
<totfact> 0.28689279E+06</totfact>
</mgrwt>
</event>
<event>
 5    1  0.1854763E+000  0.1004686E+03  0.7546771E-02  0.1279314E+00
         21   -1    0    0  501  502  0.00000000000E+00  0.00000000000E+00  0.13262521091E+04  0.13262521091E+04  0.00000000000E+00 0. -1.
         21   -1    0    0  502  503 -0.00000000000E+00 -0.00000000000E+00 -0.24687305470E+02  0.24687305470E+02  0.00000000000E+00 0.  1.
         24    1    1    2    0    0 -0.34789763076E+02 -0.46677537239E+02  0.72847216870E+03  0.73520611846E+03  0.80419002446E+02 0. -1.
          1    1    1    2  501    0  0.32192177288E+02  0.70601029997E+02  0.58412826076E+03  0.58925942227E+03  0.00000000000E+00 0. -1.
         -2    1    1    2    0  503  0.25975857878E+01 -0.23923492758E+02 -0.11035625842E+02  0.26473873827E+02  0.00000000000E+00 0.  1.
<mgrwt>
<rscale>  2 0.10046863E+03</rscale>
<asrwt>0</asrwt>
<pdfrwt beam="1">  1       21 0.20403873E+00 0.10046863E+03</pdfrwt>
<pdfrwt beam="2">  1       21 0.37980480E-02 0.10046863E+03</pdfrwt>
<totfact> 0.58074929E+04</totfact>
</mgrwt>
</event>
<event>
 5    1  0.1854763E+000  0.7265494E+02  0.7546771E-02  0.1351291E+00
         21   -1    0    0  503  502  0.00000000000E+00  0.00000000000E+00  0.21270903382E+02  0.21270903382E+02  0.00000000000E+00 0.  1.
         21   -1    0    0  501  503 -0.00000000000E+00 -0.00000000000E+00 -0.31139551334E+03  0.31139551334E+03  0.00000000000E+00 0. -1.
         24    1    1    2    0    0 -0.23179821236E+02 -0.51446166457E+01 -0.19402148318E+03  0.21136537815E+03  0.80419002446E+02 0.  1.
          1    1    1    2  501    0 -0.17235924633E+02  0.11253011899E+02 -0.69614133118E+02  0.72593628539E+02  0.00000000000E+00 0. -1.
         -2    1    1    2    0  502  0.40415745868E+02 -0.61083952536E+01 -0.26488993666E+02  0.48707410033E+02  0.00000000000E+00 0.  1.
<mgrwt>
<rscale>  2 0.72654942E+02</rscale>
<asrwt>0</asrwt>
<pdfrwt beam="1">  1       21 0.32724469E-02 0.72654942E+02</pdfrwt>
<pdfrwt beam="2">  1       21 0.47906998E-01 0.72654942E+02</pdfrwt>
<totfact> 0.22227763E+06</totfact>
</mgrwt>
</event>
<event>
 5    1  0.1854763E+000  0.8667533E+02  0.7546771E-02  0.1311109E+00
         21   -1    0    0  503  502  0.00000000000E+00  0.00000000000E+00  0.56409223373E+03  0.56409223373E+03  0.00000000000E+00 0.  1.
         21   -1    0    0  501  503 -0.00000000000E+00 -0.00000000000E+00 -0.25289142133E+02  0.25289142133E+02  0.00000000000E+00 0.  1.
         24    1    1    2    0    0  0.18101199425E+02 -0.16288259958E+01  0.82954646412E+02  0.11695723924E+03  0.80419002446E+02 0.  1.
          1    1    1    2  501    0 -0.51397926031E+02  0.17127371947E+02  0.92299305100E+02  0.10702455509E+03  0.00000000000E+00 0. -1.
         -2    1    1    2    0  502  0.33296726605E+02 -0.15498545951E+02  0.36354914008E+03  0.36539958153E+03  0.00000000000E+00 0.  1.
<mgrwt>
<rscale>  2 0.86675327E+02</rscale>
<asrwt>0</asrwt>
<pdfrwt beam="1">  1       21 0.86783411E-01 0.86675327E+02</pdfrwt>
<pdfrwt beam="2">  1       21 0.38906377E-02 0.86675327E+02</pdfrwt>
<totfact> 0.47681941E+05</totfact>
</mgrwt>
</event>
<event>
 5    1  0.1854763E+000  0.7458161E+02  0.7546771E-02  0.1345172E+00
         21   -1    0    0  503  502  0.00000000000E+00  0.00000000000E+00  0.10106899372E+03  0.10106899372E+03  0.00000000000E+00 0.  1.
         21   -1    0    0  501  503 -0.00000000000E+00 -0.00000000000E+00 -0.56628077388E+02  0.56628077388E+02  0.00000000000E+00 0.  1.
         24    1    1    2    0    0 -0.14802297528E+02 -0.27404914416E+02  0.36772569012E+02  0.93752733999E+02  0.80419002446E+02 0.  1.
          1    1    1    2  501    0 -0.20178490188E+02  0.33128534592E+01 -0.14575986613E+01  0.20500513607E+02  0.00000000000E+00 0. -1.
         -2    1    1    2    0  502  0.34980787716E+02  0.24092060957E+02  0.91259459804E+01  0.43443823501E+02  0.00000000000E+00 0.  1.
<mgrwt>
<rscale>  2 0.74581609E+02</rscale>
<asrwt>0</asrwt>
<pdfrwt beam="1">  1       21 0.15549076E-01 0.74581609E+02</pdfrwt>
<pdfrwt beam="2">  1       21 0.87120119E-02 0.74581609E+02</pdfrwt>
<totfact> 0.36453064E+06</totfact>
</mgrwt>
</event>
<event>
 5    1  0.1854763E+000  0.1042139E+03  0.7546771E-02  0.1271676E+00
         21   -1    0    0  501  502  0.00000000000E+00  0.00000000000E+00  0.24606308356E+03  0.24606308356E+03  0.00000000000E+00 0. -1.
         21   -1    0    0  502  503 -0.00000000000E+00 -0.00000000000E+00 -0.14438305319E+03  0.14438305319E+03  0.00000000000E+00 0.  1.
         24    1    1    2    0    0  0.71442692479E+02 -0.49755210567E+02 -0.96042278735E+01  0.11890793260E+03  0.80419002446E+02 0. -1.
          1    1    1    2  501    0 -0.42588144184E+02  0.42476569117E+02  0.18367307175E+03  0.19327132802E+03  0.00000000000E+00 0. -1.
         -2    1    1    2    0  503 -0.28854548296E+02  0.72786414495E+01 -0.72388813510E+02  0.78266876136E+02  0.00000000000E+00 0.  1.
<mgrwt>
<rscale>  2 0.10421387E+03</rscale>
<asrwt>0</asrwt>
<pdfrwt beam="1">  1       21 0.37855859E-01 0.10421387E+03</pdfrwt>
<pdfrwt beam="2">  1       21 0.22212778E-01 0.10421387E+03</pdfrwt>
<totfact> 0.13160301E+05</totfact>
</mgrwt>
</event>
<event>
 5    1  0.1854763E+000  0.1515583E+03  0.7546771E-02  0.1198571E+00
         21   -1    0    0  503  502  0.00000000000E+00  0.00000000000E+00  0.93069035720E+02  0.93069035720E+02  0.00000000000E+00 0.  1.
         21   -1    0    0  501  503 -0.00000000000E+00 -0.00000000000E+00 -0.61824022994E+03  0.61824022994E+03  0.00000000000E+00 0. -1.
         24    1    1    2    0    0  0.39539358360E+02  0.89302460876E+02 -0.79018053754E+02  0.14916219076E+03  0.80419002446E+02 0.  0.
          1    1    1    2  501    0  0.36402566737E+02 -0.93711802090E+02 -0.47139692991E+03  0.48199804382E+03  0.00000000000E+00 0. -1.
         -2    1    1    2    0  502 -0.75941925097E+02  0.44093412138E+01  0.25243789448E+02  0.80149031080E+02  0.00000000000E+00 0.  1.
<mgrwt>
<rscale>  2 0.15155826E+03</rscale>
<asrwt>0</asrwt>
<pdfrwt beam="1">  1       21 0.14318313E-01 0.15155826E+03</pdfrwt>
<pdfrwt beam="2">  1       21 0.95113881E-01 0.15155826E+03</pdfrwt>
<totfact> 0.40328590E+04</totfact>
</mgrwt>
</event>
<event>
 5    1  0.1854763E+000  0.7708917E+02  0.7546771E-02  0.1337521E+00
         21   -1    0    0  503  502  0.00000000000E+00  0.00000000000E+00  0.77705546754E+02  0.77705546754E+02  0.00000000000E+00 0.  1.
         21   -1    0    0  501  503 -0.00000000000E+00 -0.00000000000E+00 -0.96638983813E+02  0.96638983813E+02  0.00000000000E+00 0.  1.
         24    1    1    2    0    0  0.73064799729E+00 -0.38503436035E+02  0.15743256742E+02  0.90543439962E+02  0.80419002446E+02 0.  1.
          1    1    1    2  501    0  0.24072943417E+02  0.30698276382E+02 -0.41459984799E+02  0.56928210204E+02  0.00000000000E+00 0. -1.
         -2    1    1    2    0  502 -0.24803591414E+02  0.78051596534E+01  0.67832909976E+01  0.26872880400E+02  0.00000000000E+00 0.  1.
<mgrwt>
<rscale>  2 0.77089170E+02</rscale>
<asrwt>0</asrwt>
<pdfrwt beam="1">  1       21 0.11954700E-01 0.77089170E+02</pdfrwt>
<pdfrwt beam="2">  1       21 0.14867536E-01 0.77089170E+02</pdfrwt>
<totfact> 0.22901740E+06</totfact>
</mgrwt>
</event>
<event>
 5    1  0.1854763E+000  0.7072552E+02  0.7546771E-02  0.1357643E+00
         21   -1    0    0  503  502  0.00000000000E+00  0.00000000000E+00  0.38502181873E+03  0.38502181873E+03  0.00000000000E+00 0.  1.
         21   -1    0    0  501  503 -0.00000000000E+00 -0.00000000000E+00 -0.60664467680E+02  0.60664467680E+02  0.00000000000E+00 0. -1.
         24    1    1    2    0    0 -0.11078503760E+02  0.44701097630E+02  0.10555146021E+03  0.14046084181E+03  0.80419002446E+02 0. -1.
          1    1    1    2  501    0  0.13705386764E+02 -0.21955684299E+02 -0.38780072529E+02  0.46623853603E+02  0.00000000000E+00 0. -1.
         -2    1    1    2    0  502 -0.26268830036E+01 -0.22745413331E+02  0.25758596337E+03  0.25860159100E+03  0.00000000000E+00 0.  1.
<mgrwt>
<rscale>  2 0.70725516E+02</rscale>
<asrwt>0</asrwt>
<pdfrwt beam="1">  1       21 0.59234124E-01 0.70725516E+02</pdfrwt>
<pdfrwt beam="2">  1       21 0.93329953E-02 0.70725516E+02</pdfrwt>
<totfact> 0.25157362E+05</totfact>
</mgrwt>
</event>
<event>
 5    1  0.1854763E+000  0.1046327E+03  0.7546771E-02  0.1270845E+00
         21   -1    0    0  503  502  0.00000000000E+00  0.00000000000E+00  0.36013738428E+02  0.36013738428E+02  0.00000000000E+00 0. -1.
         21   -1    0    0  501  503 -0.00000000000E+00 -0.00000000000E+00 -0.59891501359E+03  0.59891501359E+03  0.00000000000E+00 0. -1.
         24    1    1    2    0    0 -0.11808894076E+02 -0.61915012021E+02 -0.92887037251E+02  0.13808742280E+03  0.80419002446E+02 0. -1.
          1    1    1    2  501    0  0.22181024998E+02  0.81749721157E+02 -0.46656777973E+03  0.47419458860E+03  0.00000000000E+00 0. -1.
         -2    1    1    2    0  502 -0.10372130922E+02 -0.19834709137E+02 -0.34464581847E+01  0.22646740614E+02  0.00000000000E+00 0.  1.
<mgrwt>
<rscale>  2 0.10463270E+03</rscale>
<asrwt>0</asrwt>
<pdfrwt beam="1">  1       21 0.55405759E-02 0.10463270E+03</pdfrwt>
<pdfrwt beam="2">  1       21 0.92140758E-01 0.10463270E+03</pdfrwt>
<totfact> 0.23062284E+05</totfact>
</mgrwt>
</event>
<event>
 5    1  0.1854763E+000  0.8964261E+02  0.7546771E-02  0.1303719E+00
         21   -1    0    0  503  502  0.00000000000E+00  0.00000000000E+00  0.17857049527E+03  0.17857049527E+03  0.00000000000E+00 0.  1.
         21   -1    0    0  501  503 -0.00000000000E+00 -0.00000000000E+00 -0.89453869335E+02  0.89453869335E+02  0.00000000000E+00 0. -1.
         24    1    1    2    0    0 -0.79935428530E+01 -0.44410416380E+02  0.85965289111E+02  0.12606914252E+03  0.80419002446E+02 0.  1.
          1    1    1    2  501    0  0.41433853965E+02  0.25574439171E+02 -0.54255354402E+02  0.72900340703E+02  0.00000000000E+00 0. -1.
         -2    1    1    2    0  502 -0.33440311112E+02  0.18835977210E+02  0.57406691222E+02  0.69054881376E+02  0.00000000000E+00 0.  1.
<mgrwt>
<rscale>  2 0.89642605E+02</rscale>
<asrwt>0</asrwt>
<pdfrwt beam="1">  1       21 0.27472384E-01 0.89642605E+02</pdfrwt>
<pdfrwt beam="2">  1       21 0.13762134E-01 0.89642605E+02</pdfrwt>
<totfact> 0.58370938E+05</totfact>
</mgrwt>
</event>
<event>
 5    1  0.1854763E+000  0.8371920E+02  0.7546771E-02  0.1318816E+00
         21   -1    0    0  501  502  0.00000000000E+00  0.00000000000E+00  0.13494571384E+02  0.13494571384E+02  0.00000000000E+00 0. -1.
         21   -1    0    0  502  503 -0.00000000000E+00 -0.00000000000E+00 -0.11373077786E+04  0.11373077786E+04  0.00000000000E+00 0.  1.
         24    1    1    2    0    0 -0.34363603253E+02  0.44634737805E+02 -0.35161611224E+03  0.36506742307E+03  0.80419002446E+02 0. -1.
          1    1    1    2  501    0  0.34723978593E+02 -0.12182597738E+02 -0.46439150574E+02  0.59251709536E+02  0.00000000000E+00 0. -1.
         -2    1    1    2    0  503 -0.36037534037E+00 -0.32452140067E+02 -0.72575794439E+03  0.72648321736E+03  0.00000000000E+00 0.  1.
<mgrwt>
<rscale>  2 0.83719196E+02</rscale>
<asrwt>0</asrwt>
<pdfrwt beam="1">  1       21 0.20760882E-02 0.83719196E+02</pdfrwt>
<pdfrwt beam="2">  1       21 0.17497040E+00 0.83719196E+02</pdfrwt>
<totfact> 0.24026426E+05</totfact>
</mgrwt>
</event>
<event>
 5    1  0.1854763E+000  0.7146778E+02  0.7546771E-02  0.1355172E+00
         21   -1    0    0  503  502  0.00000000000E+00  0.00000000000E+00  0.37408864082E+02  0.37408864082E+02  0.00000000000E+00 0.  1.
         21   -1    0    0  501  503 -0.00000000000E+00 -0.00000000000E+00 -0.57831009192E+03  0.57831009192E+03  0.00000000000E+00 0. -1.
         24    1    1    2    0    0  0.60757682098E+01 -0.20882593586E+02 -0.19167427883E+03  0.20899579612E+03  0.80419002446E+02 0.  1.
          1    1    1    2  501    0 -0.22894561656E+02 -0.95898187477E+01 -0.36686476257E+03  0.36770352132E+03  0.00000000000E+00 0. -1.
         -2    1    1    2    0  502  0.16818793447E+02  0.30472412333E+02  0.17637813563E+02  0.39019638564E+02  0.00000000000E+00 0.  1.
<mgrwt>
<rscale>  2 0.71467782E+02</rscale>
<asrwt>0</asrwt>
<pdfrwt beam="1">  1       21 0.57552099E-02 0.71467782E+02</pdfrwt>
<pdfrwt beam="2">  1       21 0.88970783E-01 0.71467782E+02</pdfrwt>
<totfact> 0.23669309E+05</totfact>
</mgrwt>
</event>
<event>
 5    1  0.1854763E+000  0.1022285E+03  0.7546771E-02  0.1275678E+00
         21   -1    0    0  503  502  0.00000000000E+00  0.00000000000E+00  0.14123352393E+02  0.14123352393E+02  0.00000000000E+00 0. -1.
         21   -1    0    0  501  503 -0.00000000000E+00 -0.00000000000E+00 -0.14119246107E+04  0.14119246107E+04  0.00000000000E+00 0.  1.
         24    1    1    2    0    0  0.24385279043E+02 -0.75195399751E+02 -0.27076520484E+03  0.29330871464E+03  0.80419002446E+02 0. -1.
          1    1    1    2  501    0 -0.32680980369E+02  0.25892828195E+02 -0.86329786806E+03  0.86430416754E+03  0.00000000000E+00 0. -1.
         -2    1    1    2    0  502  0.82957013266E+01  0.49302571556E+02 -0.26373818536E+03  0.26843508086E+03  0.00000000000E+00 0.  1.
<mgrwt>
<rscale>  2 0.10222846E+03</rscale>
<asrwt>0</asrwt>
<pdfrwt beam="1">  1       21 0.21728233E-02 0.10222846E+03</pdfrwt>
<pdfrwt beam="2">  1       21 0.21721918E+00 0.10222846E+03</pdfrwt>
<totfact> 0.11979774E+05</totfact>
</mgrwt>
</event>
<event>
 5    1  0.1854763E+000  0.7854807E+02  0.7546771E-02  0.1333223E+00
         21   -1    0    0  501  502  0.00000000000E+00  0.00000000000E+00  0.13883286884E+03  0.13883286884E+03  0.00000000000E+00 0.  1.
         21   -1    0    0  502  503 -0.00000000000E+00 -0.00000000000E+00 -0.49456149949E+02  0.49456149949E+02  0.00000000000E+00 0. -1.
         24    1    1    2    0    0 -0.17076051428E+01 -0.52031052705E+02  0.28888729822E+02  0.10005958738E+03  0.80419002446E+02 0.  0.
          1    1    1    2  501    0  0.16069884735E+02  0.16783893190E+02  0.36406415005E+02  0.43189898350E+02  0.00000000000E+00 0. -1.
         -2    1    1    2    0  503 -0.14362279592E+02  0.35247159514E+02  0.24081574059E+02  0.45039533058E+02  0.00000000000E+00 0.  1.
<mgrwt>
<rscale>  2 0.78548067E+02</rscale>
<asrwt>0</asrwt>
<pdfrwt beam="1">  1       21 0.21358903E-01 0.78548067E+02</pdfrwt>
<pdfrwt beam="2">  1       21 0.76086385E-02 0.78548067E+02</pdfrwt>
<totfact> 0.25942486E+06</totfact>
</mgrwt>
</event>
<event>
 5    1  0.1854763E+000  0.9191087E+02  0.7546771E-02  0.1298289E+00
         21   -1    0    0  501  502  0.00000000000E+00  0.00000000000E+00  0.13878954129E+02  0.13878954129E+02  0.00000000000E+00 0.  1.
         21   -1    0    0  502  503 -0.00000000000E+00 -0.00000000000E+00 -0.77445686950E+03  0.77445686950E+03  0.00000000000E+00 0. -1.
         24    1    1    2    0    0 -0.69116903526E+02 -0.18232839796E+02 -0.25685933094E+03  0.27848431669E+03  0.80419002446E+02 0.  0.
          1    1    1    2  501    0  0.30675044194E+02  0.21780318913E+02 -0.18369763457E+03  0.18751043058E+03  0.00000000000E+00 0. -1.
         -2    1    1    2    0  503  0.38441859332E+02 -0.35474791165E+01 -0.32002094987E+03  0.32234107636E+03  0.00000000000E+00 0.  1.
<mgrwt>
<rscale>  2 0.91910871E+02</rscale>
<asrwt>0</asrwt>
<pdfrwt beam="1">  1       21 0.21352234E-02 0.91910871E+02</pdfrwt>
<pdfrwt beam="2">  1       21 0.11914723E+00 0.91910871E+02</pdfrwt>
<totfact> 0.60493393E+05</totfact>
</mgrwt>
</event>
<event>
 5    1  0.1854763E+000  0.9122430E+02  0.7546771E-02  0.1299914E+00
         21   -1    0    0  503  502  0.00000000000E+00  0.00000000000E+00  0.87750239704E+02  0.87750239704E+02  0.00000000000E+00 0.  1.
         21   -1    0    0  501  503 -0.00000000000E+00 -0.00000000000E+00 -0.10741513035E+03  0.10741513035E+03  0.00000000000E+00 0.  1.
         24    1    1    2    0    0 -0.14765075183E+01  0.54918589939E+02  0.20489744626E+02  0.99525259028E+02  0.80419002446E+02 0.  1.
          1    1    1    2  501    0  0.33121213064E+02 -0.24892669038E+02 -0.29123503250E+02  0.50644231342E+02  0.00000000000E+00 0. -1.
         -2    1    1    2    0  502 -0.31644705546E+02 -0.30025920901E+02 -0.11031132024E+02  0.44995879687E+02  0.00000000000E+00 0.  1.
<mgrwt>
<rscale>  2 0.91224297E+02</rscale>
<asrwt>0</asrwt>
<pdfrwt beam="1">  1       21 0.13500037E-01 0.91224297E+02</pdfrwt>
<pdfrwt beam="2">  1       21 0.16525405E-01 0.91224297E+02</pdfrwt>
<totfact> 0.15414056E+06</totfact>
</mgrwt>
</event>
<event>
 5    1  0.1854763E+000  0.7922242E+02  0.7546771E-02  0.1331273E+00
         21   -1    0    0  503  502  0.00000000000E+00  0.00000000000E+00  0.10336519195E+03  0.10336519195E+03  0.00000000000E+00 0. -1.
         21   -1    0    0  501  503 -0.00000000000E+00 -0.00000000000E+00 -0.62731741827E+02  0.62731741827E+02  0.00000000000E+00 0.  1.
         24    1    1    2    0    0  0.26677126853E+02 -0.21231083192E+02  0.27578939966E+02  0.91598263491E+02  0.80419002446E+02 0. -1.
          1    1    1    2  501    0 -0.75354398478E+01 -0.22302420209E+02 -0.41931990840E+01  0.23911581283E+02  0.00000000000E+00 0. -1.
         -2    1    1    2    0  502 -0.19141687005E+02  0.43533503401E+02  0.17247709242E+02  0.50587089004E+02  0.00000000000E+00 0.  1.
<mgrwt>
<rscale>  2 0.79222423E+02</rscale>
<asrwt>0</asrwt>
<pdfrwt beam="1">  1       21 0.15902337E-01 0.79222423E+02</pdfrwt>
<pdfrwt beam="2">  1       21 0.96510372E-02 0.79222423E+02</pdfrwt>
<totfact> 0.29486082E+06</totfact>
</mgrwt>
</event>
<event>
 5    1  0.1854763E+000  0.6610782E+02  0.7546771E-02  0.1373852E+00
         21   -1    0    0  503  502  0.00000000000E+00  0.00000000000E+00  0.90584541613E+02  0.90584541613E+02  0.00000000000E+00 0. -1.
         21   -1    0    0  501  503 -0.00000000000E+00 -0.00000000000E+00 -0.50541557997E+02  0.50541557997E+02  0.00000000000E+00 0.  1.
         24    1    1    2    0    0  0.22963221678E+01 -0.14762462553E+02  0.17391850717E+02  0.83623536291E+02  0.80419002446E+02 0. -1.
          1    1    1    2  501    0  0.22957223192E+02  0.69328948061E+01  0.22101655855E+01  0.24082856122E+02  0.00000000000E+00 0. -1.
         -2    1    1    2    0  502 -0.25253545360E+02  0.78295677473E+01  0.20440967313E+02  0.33419707196E+02  0.00000000000E+00 0.  1.
<mgrwt>
<rscale>  2 0.66107821E+02</rscale>
<asrwt>0</asrwt>
<pdfrwt beam="1">  1       21 0.13936083E-01 0.66107821E+02</pdfrwt>
<pdfrwt beam="2">  1       21 0.77756243E-02 0.66107821E+02</pdfrwt>
<totfact> 0.53198512E+06</totfact>
</mgrwt>
</event>
<event>
 5    1  0.1854763E+000  0.1395237E+03  0.7546771E-02  0.1213971E+00
         21   -1    0    0  501  502  0.00000000000E+00  0.00000000000E+00  0.44274363155E+02  0.44274363155E+02  0.00000000000E+00 0. -1.
         21   -1    0    0  502  503 -0.00000000000E+00 -0.00000000000E+00 -0.48639903403E+03  0.48639903403E+03  0.00000000000E+00 0. -1.
         24    1    1    2    0    0  0.11807888751E+03  0.43563992830E+02 -0.23479176209E+03  0.27827114951E+03  0.80419002446E+02 0. -1.
          1    1    1    2  501    0 -0.97935929592E+02 -0.47996922709E+02 -0.11785041890E+03  0.16057357233E+03  0.00000000000E+00 0. -1.
         -2    1    1    2    0  503 -0.20142957923E+02  0.44329298789E+01 -0.89482489888E+02  0.91828675357E+02  0.00000000000E+00 0.  1.
<mgrwt>
<rscale>  2 0.13952368E+03</rscale>
<asrwt>0</asrwt>
<pdfrwt beam="1">  1       21 0.68114409E-02 0.13952368E+03</pdfrwt>
<pdfrwt beam="2">  1       21 0.74830616E-01 0.13952368E+03</pdfrwt>
<totfact> 0.25691673E+05</totfact>
</mgrwt>
</event>
<event>
 5    1  0.1854763E+000  0.7688184E+02  0.7546771E-02  0.1338141E+00
         21   -1    0    0  501  502  0.00000000000E+00  0.00000000000E+00  0.29027609257E+02  0.29027609257E+02  0.00000000000E+00 0.  1.
         21   -1    0    0  502  503 -0.00000000000E+00 -0.00000000000E+00 -0.26352469105E+03  0.26352469105E+03  0.00000000000E+00 0. -1.
         24    1    1    2    0    0 -0.10231390988E+02 -0.18662841462E+02 -0.80160660568E+02  0.11552458816E+03  0.80419002446E+02 0.  0.
          1    1    1    2  501    0  0.21382689011E+02 -0.20641567202E+02 -0.18102178378E+02  0.34799174529E+02  0.00000000000E+00 0. -1.
         -2    1    1    2    0  503 -0.11151298023E+02  0.39304408664E+02 -0.13623424285E+03  0.14222853762E+03  0.00000000000E+00 0.  1.
<mgrwt>
<rscale>  2 0.76881844E+02</rscale>
<asrwt>0</asrwt>
<pdfrwt beam="1">  1       21 0.44657860E-02 0.76881844E+02</pdfrwt>
<pdfrwt beam="2">  1       21 0.40542260E-01 0.76881844E+02</pdfrwt>
<totfact> 0.18698845E+06</totfact>
</mgrwt>
</event>
<event>
 5    1  0.1854763E+000  0.1087089E+03  0.7546771E-02  0.1262980E+00
         21   -1    0    0  501  502  0.00000000000E+00  0.00000000000E+00  0.87707769013E+03  0.87707769013E+03  0.00000000000E+00 0.  1.
         21   -1    0    0  502  503 -0.00000000000E+00 -0.00000000000E+00 -0.21740259962E+02  0.21740259962E+02  0.00000000000E+00 0.  1.
         24    1    1    2    0    0  0.82095740478E+02 -0.15827402643E+02  0.64380491436E+03  0.65417291368E+03  0.80419002446E+02 0.  1.
          1    1    1    2  501    0 -0.54463397413E+02  0.37642459009E+02  0.19464904191E+03  0.20560025752E+03  0.00000000000E+00 0. -1.
         -2    1    1    2    0  503 -0.27632343065E+02 -0.21815056367E+02  0.16883473893E+02  0.39044778886E+02  0.00000000000E+00 0.  1.
<mgrwt>
<rscale>  2 0.10870888E+03</rscale>
<asrwt>0</asrwt>
<pdfrwt beam="1">  1       21 0.13493500E+00 0.10870888E+03</pdfrwt>
<pdfrwt beam="2">  1       21 0.33446561E-02 0.10870888E+03</pdfrwt>
<totfact> 0.21433894E+05</totfact>
</mgrwt>
</event>
<event>
 5    1  0.1854763E+000  0.8591905E+02  0.7546771E-02  0.1313046E+00
         21   -1    0    0  503  502  0.00000000000E+00  0.00000000000E+00  0.13297244800E+03  0.13297244800E+03  0.00000000000E+00 0.  1.
         21   -1    0    0  501  503 -0.00000000000E+00 -0.00000000000E+00 -0.73860920631E+02  0.73860920631E+02  0.00000000000E+00 0.  1.
         24    1    1    2    0    0  0.59615196325E+02 -0.39160120706E+01  0.38155261140E+02  0.10720236327E+03  0.80419002446E+02 0.  0.
          1    1    1    2  501    0 -0.23691336456E+02 -0.17840298740E+02 -0.23968738880E+02  0.38132087875E+02  0.00000000000E+00 0. -1.
         -2    1    1    2    0  502 -0.35923859869E+02  0.21756310811E+02  0.44925005110E+02  0.61498917488E+02  0.00000000000E+00 0.  1.
<mgrwt>
<rscale>  2 0.85919047E+02</rscale>
<asrwt>0</asrwt>
<pdfrwt beam="1">  1       21 0.20457300E-01 0.85919047E+02</pdfrwt>
<pdfrwt beam="2">  1       21 0.11363219E-01 0.85919047E+02</pdfrwt>
<totfact> 0.14135324E+06</totfact>
</mgrwt>
</event>
<event>
 5    1  0.1854763E+000  0.8131219E+02  0.7546771E-02  0.1325368E+00
         21   -1    0    0  501  502  0.00000000000E+00  0.00000000000E+00  0.11360263731E+03  0.11360263731E+03  0.00000000000E+00 0.  1.
         21   -1    0    0  502  503 -0.00000000000E+00 -0.00000000000E+00 -0.11818367806E+03  0.11818367806E+03  0.00000000000E+00 0. -1.
         24    1    1    2    0    0  0.59073951060E+02 -0.12048309281E+02 -0.73147506388E+02  0.12430875711E+03  0.80419002446E+02 0. -1.
          1    1    1    2  501    0 -0.30821309085E+02  0.13881478335E+02  0.71426440816E+02  0.79021421033E+02  0.00000000000E+00 0. -1.
         -2    1    1    2    0  503 -0.28252641975E+02 -0.18331690540E+01 -0.28599751807E+01  0.28456137218E+02  0.00000000000E+00 0.  1.
<mgrwt>
<rscale>  2 0.81312194E+02</rscale>
<asrwt>0</asrwt>
<pdfrwt beam="1">  1       21 0.17477329E-01 0.81312194E+02</pdfrwt>
<pdfrwt beam="2">  1       21 0.18182104E-01 0.81312194E+02</pdfrwt>
<totfact> 0.81552788E+05</totfact>
</mgrwt>
</event>
<event>
 5    1  0.1854763E+000  0.7679572E+02  0.7546771E-02  0.1338399E+00
         21   -1    0    0  501  502  0.00000000000E+00  0.00000000000E+00  0.25799424038E+01  0.25799424038E+01  0.00000000000E+00 0. -1.
         21   -1    0    0  502  503 -0.00000000000E+00 -0.00000000000E+00 -0.23622949966E+04  0.23622949966E+04  0.00000000000E+00 0.  1.
         24    1    1    2    0    0 -0.70136988857E+01 -0.22270511752E+02 -0.14881192565E+04  0.14904735171E+04  0.80419002446E+02 0.  0.
          1    1    1    2  501    0  0.21530586437E+02  0.40907626891E+02 -0.55023455512E+03  0.55217303967E+03  0.00000000000E+00 0. -1.
         -2    1    1    2    0  503 -0.14516887551E+02 -0.18637115138E+02 -0.32136124254E+03  0.32222838220E+03  0.00000000000E+00 0.  1.
<mgrwt>
<rscale>  2 0.76795718E+02</rscale>
<asrwt>0</asrwt>
<pdfrwt beam="1">  1       21 0.39691454E-03 0.76795718E+02</pdfrwt>
<pdfrwt beam="2">  1       21 0.36342971E+00 0.76795718E+02</pdfrwt>
<totfact> 0.26893052E+05</totfact>
</mgrwt>
</event>
<event>
 5    1  0.1854763E+000  0.1009052E+03  0.7546771E-02  0.1278404E+00
         21   -1    0    0  501  502  0.00000000000E+00  0.00000000000E+00  0.16519718101E+03  0.16519718101E+03  0.00000000000E+00 0. -1.
         21   -1    0    0  502  503 -0.00000000000E+00 -0.00000000000E+00 -0.12003039655E+03  0.12003039655E+03  0.00000000000E+00 0. -1.
         24    1    1    2    0    0 -0.58082192787E+02  0.27208858986E+02 -0.15971332540E+01  0.10287677053E+03  0.80419002446E+02 0. -1.
          1    1    1    2  501    0  0.48386851367E+02 -0.52777208268E+02  0.99713083673E+02  0.12275756658E+03  0.00000000000E+00 0. -1.
         -2    1    1    2    0  503  0.96953414204E+01  0.25568349282E+02 -0.52949165958E+02  0.59593240438E+02  0.00000000000E+00 0.  1.
<mgrwt>
<rscale>  2 0.10090517E+03</rscale>
<asrwt>0</asrwt>
<pdfrwt beam="1">  1       21 0.25414951E-01 0.10090517E+03</pdfrwt>
<pdfrwt beam="2">  1       21 0.18466215E-01 0.10090517E+03</pdfrwt>
<totfact> 0.39834963E+05</totfact>
</mgrwt>
</event>
<event>
 5    1  0.1854763E+000  0.7156593E+02  0.7546771E-02  0.1354848E+00
         21   -1    0    0  501  502  0.00000000000E+00  0.00000000000E+00  0.25236306219E+02  0.25236306219E+02  0.00000000000E+00 0. -1.
         21   -1    0    0  502  503 -0.00000000000E+00 -0.00000000000E+00 -0.22039469670E+03  0.22039469670E+03  0.00000000000E+00 0.  1.
         24    1    1    2    0    0  0.55130845735E+01 -0.71599688274E-01 -0.10608860835E+03  0.13323816272E+03  0.80419002446E+02 0.  0.
          1    1    1    2  501    0 -0.95048172774E+01 -0.30369621176E+02 -0.22167104231E+02  0.38781902375E+02  0.00000000000E+00 0. -1.
         -2    1    1    2    0  503  0.39917327039E+01  0.30441220864E+02 -0.66902677902E+02  0.73610937830E+02  0.00000000000E+00 0.  1.
<mgrwt>
<rscale>  2 0.71565928E+02</rscale>
<asrwt>0</asrwt>
<pdfrwt beam="1">  1       21 0.38825086E-02 0.71565928E+02</pdfrwt>
<pdfrwt beam="2">  1       21 0.33906877E-01 0.71565928E+02</pdfrwt>
<totfact> 0.33197111E+06</totfact>
</mgrwt>
</event>
<event>
 5    1  0.1854763E+000  0.9641973E+02  0.7546771E-02  0.1288010E+00
         21   -1    0    0  501  502  0.00000000000E+00  0.00000000000E+00  0.94913106026E+02  0.94913106026E+02  0.00000000000E+00 0. -1.
         21   -1    0    0  502  503 -0.00000000000E+00 -0.00000000000E+00 -0.19892715622E+03  0.19892715622E+03  0.00000000000E+00 0.  1.
         24    1    1    2    0    0  0.72455252354E+02  0.15106587122E+02 -0.12899376385E+03  0.16906974784E+03  0.80419002446E+02 0.  1.
          1    1    1    2  501    0 -0.48662330526E+02  0.92084692982E+01  0.58747016693E+02  0.76837687950E+02  0.00000000000E+00 0. -1.
         -2    1    1    2    0  503 -0.23792921827E+02 -0.24315056420E+02 -0.33767303040E+02  0.47932826459E+02  0.00000000000E+00 0.  1.
<mgrwt>
<rscale>  2 0.96419732E+02</rscale>
<asrwt>0</asrwt>
<pdfrwt beam="1">  1       21 0.14602016E-01 0.96419732E+02</pdfrwt>
<pdfrwt beam="2">  1       21 0.30604178E-01 0.96419732E+02</pdfrwt>
<totfact> 0.42764764E+05</totfact>
</mgrwt>
</event>
<event>
 5    1  0.1854763E+000  0.6357660E+02  0.7546771E-02  0.1383407E+00
         21   -1    0    0  501  502  0.00000000000E+00  0.00000000000E+00  0.46476784051E+03  0.46476784051E+03  0.00000000000E+00 0. -1.
         21   -1    0    0  502  503 -0.00000000000E+00 -0.00000000000E+00 -0.10337919103E+03  0.10337919103E+03  0.00000000000E+00 0.  1.
         24    1    1    2    0    0 -0.10936215721E+02  0.81739679531E+01  0.84924958811E+02  0.11775346768E+03  0.80419002446E+02 0.  0.
          1    1    1    2  501    0  0.23615072911E+02  0.80890740330E+01  0.36177002182E+03  0.36263018831E+03  0.00000000000E+00 0. -1.
         -2    1    1    2    0  503 -0.12678857190E+02 -0.16263041986E+02 -0.85306331154E+02  0.87763375558E+02  0.00000000000E+00 0.  1.
<mgrwt>
<rscale>  2 0.63576602E+02</rscale>
<asrwt>0</asrwt>
<pdfrwt beam="1">  1       21 0.71502744E-01 0.63576602E+02</pdfrwt>
<pdfrwt beam="2">  1       21 0.15904491E-01 0.63576602E+02</pdfrwt>
<totfact> 0.67054054E+04</totfact>
</mgrwt>
</event>
<event>
 5    1  0.1854763E+000  0.8878075E+02  0.7546771E-02  0.1305831E+00
         21   -1    0    0  503  502  0.00000000000E+00  0.00000000000E+00  0.38169916835E+03  0.38169916835E+03  0.00000000000E+00 0. -1.
         21   -1    0    0  501  503 -0.00000000000E+00 -0.00000000000E+00 -0.34481744341E+02  0.34481744341E+02  0.00000000000E+00 0. -1.
         24    1    1    2    0    0  0.39429407078E+02 -0.34177981295E+02  0.14365910859E+03  0.17270775311E+03  0.80419002446E+02 0. -1.
          1    1    1    2  501    0 -0.31982609699E+02  0.52749536260E+02  0.29696446987E+02  0.68463712012E+02  0.00000000000E+00 0. -1.
         -2    1    1    2    0  502 -0.74467973796E+01 -0.18571554966E+02  0.17386186843E+03  0.17500944757E+03  0.00000000000E+00 0.  1.
<mgrwt>
<rscale>  2 0.88780751E+02</rscale>
<asrwt>0</asrwt>
<pdfrwt beam="1">  1       21 0.58722946E-01 0.88780751E+02</pdfrwt>
<pdfrwt beam="2">  1       21 0.53048840E-02 0.88780751E+02</pdfrwt>
<totfact> 0.66456740E+05</totfact>
</mgrwt>
</event>
<event>
 5    1  0.1854763E+000  0.1105453E+03  0.7546771E-02  0.1259563E+00
         21   -1    0    0  503  502  0.00000000000E+00  0.00000000000E+00  0.29762288894E+03  0.29762288894E+03  0.00000000000E+00 0. -1.
         21   -1    0    0  501  503 -0.00000000000E+00 -0.00000000000E+00 -0.55335725577E+02  0.55335725577E+02  0.00000000000E+00 0. -1.
         24    1    1    2    0    0  0.20574630345E+02  0.79963432895E+02  0.11411407320E+03  0.16219341439E+03  0.80419002446E+02 0. -1.
          1    1    1    2  501    0  0.14381070894E+02 -0.67036885865E+02  0.13093525219E+02  0.69801143753E+02  0.00000000000E+00 0. -1.
         -2    1    1    2    0  502 -0.34955701239E+02 -0.12926547030E+02  0.11507956494E+03  0.12096405637E+03  0.00000000000E+00 0.  1.
<mgrwt>
<rscale>  2 0.11054526E+03</rscale>
<asrwt>0</asrwt>
<pdfrwt beam="1">  1       21 0.45788136E-01 0.11054526E+03</pdfrwt>
<pdfrwt beam="2">  1       21 0.85131887E-02 0.11054526E+03</pdfrwt>
<totfact> 0.49735717E+05</totfact>
</mgrwt>
</event>
<event>
 5    1  0.1854763E+000  0.9024927E+02  0.7546771E-02  0.1302249E+00
         21   -1    0    0  501  502  0.00000000000E+00  0.00000000000E+00  0.16258884337E+02  0.16258884337E+02  0.00000000000E+00 0. -1.
         21   -1    0    0  502  503 -0.00000000000E+00 -0.00000000000E+00 -0.68978038978E+03  0.68978038978E+03  0.00000000000E+00 0.  1.
         24    1    1    2    0    0  0.27916534622E+02 -0.24585311349E+02 -0.25875400915E+03  0.27350433935E+03  0.80419002446E+02 0. -1.
          1    1    1    2  501    0 -0.57717052099E+02  0.95071547494E+01 -0.98877386820E+02  0.11488421005E+03  0.00000000000E+00 0. -1.
         -2    1    1    2    0  503  0.29800517477E+02  0.15078156600E+02 -0.31589010948E+03  0.31765072472E+03  0.00000000000E+00 0.  1.
<mgrwt>
<rscale>  2 0.90249271E+02</rscale>
<asrwt>0</asrwt>
<pdfrwt beam="1">  1       21 0.25013671E-02 0.90249271E+02</pdfrwt>
<pdfrwt beam="2">  1       21 0.10612005E+00 0.90249271E+02</pdfrwt>
<totfact> 0.61703544E+05</totfact>
</mgrwt>
</event>
<event>
 5    1  0.1854763E+000  0.8654274E+02  0.7546771E-02  0.1311447E+00
         21   -1    0    0  503  502  0.00000000000E+00  0.00000000000E+00  0.76868746978E+03  0.76868746978E+03  0.00000000000E+00 0.  1.
         21   -1    0    0  501  503 -0.00000000000E+00 -0.00000000000E+00 -0.16097050959E+02  0.16097050959E+02  0.00000000000E+00 0. -1.
         24    1    1    2    0    0  0.29985628376E+02 -0.38144555907E+02  0.16962326636E+03  0.19389020991E+03  0.80419002446E+02 0. -1.
          1    1    1    2  501    0 -0.36029348346E+02 -0.43051002141E+01  0.10670325070E+03  0.11270417712E+03  0.00000000000E+00 0. -1.
         -2    1    1    2    0  502  0.60437199703E+01  0.42449656121E+02  0.47626390176E+03  0.47819013371E+03  0.00000000000E+00 0.  1.
<mgrwt>
<rscale>  2 0.86542737E+02</rscale>
<asrwt>0</asrwt>
<pdfrwt beam="1">  1       21 0.11825958E+00 0.86542737E+02</pdfrwt>
<pdfrwt beam="2">  1       21 0.24764700E-02 0.86542737E+02</pdfrwt>
<totfact> 0.48562771E+05</totfact>
</mgrwt>
</event>
<event>
 5    1  0.1854763E+000  0.1197151E+03  0.7546771E-02  0.1243568E+00
         21   -1    0    0  501  502  0.00000000000E+00  0.00000000000E+00  0.78899417203E+03  0.78899417203E+03  0.00000000000E+00 0. -1.
         21   -1    0    0  502  503 -0.00000000000E+00 -0.00000000000E+00 -0.64722461937E+02  0.64722461937E+02  0.00000000000E+00 0.  1.
         24    1    1    2    0    0 -0.74976293547E+02 -0.73407118597E+02  0.77537130553E+02  0.15326210302E+03  0.80419002446E+02 0. -1.
          1    1    1    2  501    0  0.50836780645E+02  0.62969190869E+02  0.66405213359E+03  0.66896542018E+03  0.00000000000E+00 0. -1.
         -2    1    1    2    0  503  0.24139512901E+02  0.10437927728E+02 -0.17317554053E+02  0.31489110764E+02  0.00000000000E+00 0.  1.
<mgrwt>
<rscale>  2 0.11971506E+03</rscale>
<asrwt>0</asrwt>
<pdfrwt beam="1">  1       21 0.12138371E+00 0.11971506E+03</pdfrwt>
<pdfrwt beam="2">  1       21 0.99573024E-02 0.11971506E+03</pdfrwt>
<totfact> 0.43813900E+04</totfact>
</mgrwt>
</event>
<event>
 5    1  0.1854763E+000  0.1478975E+03  0.7546771E-02  0.1203081E+00
         21   -1    0    0  503  502  0.00000000000E+00  0.00000000000E+00  0.17794575308E+03  0.17794575308E+03  0.00000000000E+00 0.  1.
         21   -1    0    0  501  503 -0.00000000000E+00 -0.00000000000E+00 -0.18400211102E+03  0.18400211102E+03  0.00000000000E+00 0.  1.
         24    1    1    2    0    0 -0.10561849143E+03 -0.76811267665E+02 -0.34656900167E+02  0.15723725149E+03  0.80419002446E+02 0.  1.
          1    1    1    2  501    0  0.52368961369E+02  0.44158893565E+01 -0.59136347202E+02  0.79114573589E+02  0.00000000000E+00 0. -1.
         -2    1    1    2    0  502  0.53249530059E+02  0.72395378308E+02  0.87736889429E+02  0.12559603902E+03  0.00000000000E+00 0.  1.
<mgrwt>
<rscale>  2 0.14789752E+03</rscale>
<asrwt>0</asrwt>
<pdfrwt beam="1">  1       21 0.27376270E-01 0.14789752E+03</pdfrwt>
<pdfrwt beam="2">  1       21 0.28308017E-01 0.14789752E+03</pdfrwt>
<totfact> 0.15396818E+05</totfact>
</mgrwt>
</event>
<event>
 5    1  0.1854763E+000  0.7612293E+02  0.7546771E-02  0.1340429E+00
         21   -1    0    0  501  502  0.00000000000E+00  0.00000000000E+00  0.63329815072E+02  0.63329815072E+02  0.00000000000E+00 0. -1.
         21   -1    0    0  502  503 -0.00000000000E+00 -0.00000000000E+00 -0.23600687520E+03  0.23600687520E+03  0.00000000000E+00 0.  1.
         24    1    1    2    0    0 -0.20452575322E+02  0.30465193967E+02 -0.35523428038E+02  0.95265763917E+02  0.80419002446E+02 0.  0.
          1    1    1    2  501    0  0.30859407795E+02  0.83026098115E+00  0.24297533203E+02  0.39285652629E+02  0.00000000000E+00 0. -1.
         -2    1    1    2    0  503 -0.10406832473E+02 -0.31295454948E+02 -0.16145116530E+03  0.16478527373E+03  0.00000000000E+00 0.  1.
<mgrwt>
<rscale>  2 0.76122926E+02</rscale>
<asrwt>0</asrwt>
<pdfrwt beam="1">  1       21 0.97430484E-02 0.76122926E+02</pdfrwt>
<pdfrwt beam="2">  1       21 0.36308750E-01 0.76122926E+02</pdfrwt>
<totfact> 0.62447456E+05</totfact>
</mgrwt>
</event>
<event>
 5    1  0.1854763E+000  0.2170239E+03  0.7546771E-02  0.1136121E+00
         21   -1    0    0  503  502  0.00000000000E+00  0.00000000000E+00  0.32996574036E+03  0.32996574036E+03  0.00000000000E+00 0. -1.
         21   -1    0    0  501  503 -0.00000000000E+00 -0.00000000000E+00 -0.24434973852E+03  0.24434973852E+03  0.00000000000E+00 0. -1.
         24    1    1    2    0    0  0.20751698616E+03  0.29202146436E+02  0.22134474787E+03  0.31524082582E+03  0.80419002446E+02 0. -1.
          1    1    1    2  501    0 -0.14392755117E+03 -0.18774812519E+02 -0.12917523448E+03  0.19430356346E+03  0.00000000000E+00 0. -1.
         -2    1    1    2    0  502 -0.63589434986E+02 -0.10427333917E+02 -0.65535115448E+01  0.64771089601E+02  0.00000000000E+00 0.  1.
<mgrwt>
<rscale>  2 0.21702392E+03</rscale>
<asrwt>0</asrwt>
<pdfrwt beam="1">  1       21 0.50763960E-01 0.21702392E+03</pdfrwt>
<pdfrwt beam="2">  1       21 0.37592267E-01 0.21702392E+03</pdfrwt>
<totfact> 0.24852685E+04</totfact>
</mgrwt>
</event>
<event>
 5    1  0.1854763E+000  0.7237106E+02  0.7546771E-02  0.1352211E+00
         21   -1    0    0  501  502  0.00000000000E+00  0.00000000000E+00  0.21310429008E+03  0.21310429008E+03  0.00000000000E+00 0.  1.
         21   -1    0    0  502  503 -0.00000000000E+00 -0.00000000000E+00 -0.60686169861E+02  0.60686169861E+02  0.00000000000E+00 0.  1.
         24    1    1    2    0    0  0.15296178166E+02  0.17700621135E+02  0.13840790549E+03  0.16177530501E+03  0.80419002446E+02 0.  1.
          1    1    1    2  501    0 -0.12448534308E+02 -0.38259801291E+02  0.53774441408E+02  0.67160024940E+02  0.00000000000E+00 0. -1.
         -2    1    1    2    0  503 -0.28476438580E+01  0.20559180156E+02 -0.39764226672E+02  0.44855129997E+02  0.00000000000E+00 0.  1.
<mgrwt>
<rscale>  2 0.72371060E+02</rscale>
<asrwt>0</asrwt>
<pdfrwt beam="1">  1       21 0.32785275E-01 0.72371060E+02</pdfrwt>
<pdfrwt beam="2">  1       21 0.93363339E-02 0.72371060E+02</pdfrwt>
<totfact> 0.81754980E+05</totfact>
</mgrwt>
</event>
<event>
 5    1  0.1854763E+000  0.7066196E+02  0.7546771E-02  0.1357856E+00
         21   -1    0    0  503  502  0.00000000000E+00  0.00000000000E+00  0.45956978584E+02  0.45956978584E+02  0.00000000000E+00 0.  1.
         21   -1    0    0  501  503 -0.00000000000E+00 -0.00000000000E+00 -0.14028553563E+03  0.14028553563E+03  0.00000000000E+00 0.  1.
         24    1    1    2    0    0 -0.42821220415E+02  0.21086220331E+02 -0.97018192174E+02  0.13475173903E+03  0.80419002446E+02 0.  1.
          1    1    1    2  501    0  0.23824857815E+02 -0.10244154050E+02 -0.80081533239E+01  0.27142163911E+02  0.00000000000E+00 0. -1.
         -2    1    1    2    0  502  0.18996362600E+02 -0.10842066281E+02  0.10697788448E+02  0.24348611273E+02  0.00000000000E+00 0.  1.
<mgrwt>
<rscale>  2 0.70661955E+02</rscale>
<asrwt>0</asrwt>
<pdfrwt beam="1">  1       21 0.70703044E-02 0.70661955E+02</pdfrwt>
<pdfrwt beam="2">  1       21 0.21582390E-01 0.70661955E+02</pdfrwt>
<totfact> 0.28642929E+06</totfact>
</mgrwt>
</event>
<event>
 5    1  0.1854763E+000  0.7425697E+02  0.7546771E-02  0.1346187E+00
         21   -1    0    0  501  502  0.00000000000E+00  0.00000000000E+00  0.43786750409E+02  0.43786750409E+02  0.00000000000E+00 0.  1.
         21   -1    0    0  502  503 -0.00000000000E+00 -0.00000000000E+00 -0.41687864959E+03  0.41687864959E+03  0.00000000000E+00 0.  1.
         24    1    1    2    0    0  0.15835917025E+02  0.38240720999E+02 -0.41671983750E+02  0.99583629150E+02  0.80419002446E+02 0.  1.
          1    1    1    2  501    0  0.10683259979E+02 -0.27418499088E+02 -0.10213342842E+01  0.29444002101E+02  0.00000000000E+00 0. -1.
         -2    1    1    2    0  503 -0.26519177003E+02 -0.10822221911E+02 -0.33039858115E+03  0.33163776875E+03  0.00000000000E+00 0.  1.
<mgrwt>
<rscale>  2 0.74256973E+02</rscale>
<asrwt>0</asrwt>
<pdfrwt beam="1">  1       21 0.67364229E-02 0.74256973E+02</pdfrwt>
<pdfrwt beam="2">  1       21 0.64135179E-01 0.74256973E+02</pdfrwt>
<totfact> 0.37010888E+05</totfact>
</mgrwt>
</event>
<event>
 5    1  0.1854763E+000  0.8825098E+02  0.7546771E-02  0.1307143E+00
         21   -1    0    0  503  502  0.00000000000E+00  0.00000000000E+00  0.48173104548E+02  0.48173104548E+02  0.00000000000E+00 0. -1.
         21   -1    0    0  501  503 -0.00000000000E+00 -0.00000000000E+00 -0.18872037208E+03  0.18872037208E+03  0.00000000000E+00 0.  1.
         24    1    1    2    0    0  0.46166468902E+02 -0.10775167211E+02 -0.11316672449E+03  0.14670163791E+03  0.80419002446E+02 0.  1.
          1    1    1    2  501    0  0.53688150791E+01 -0.21621017260E+02 -0.17916910439E+02  0.28588603366E+02  0.00000000000E+00 0. -1.
         -2    1    1    2    0  502 -0.51535283982E+02  0.32396184471E+02 -0.94636325965E+01  0.61603235347E+02  0.00000000000E+00 0.  1.
<mgrwt>
<rscale>  2 0.88250983E+02</rscale>
<asrwt>0</asrwt>
<pdfrwt beam="1">  1       21 0.74112468E-02 0.88250983E+02</pdfrwt>
<pdfrwt beam="2">  1       21 0.29033904E-01 0.88250983E+02</pdfrwt>
<totfact> 0.15368510E+06</totfact>
</mgrwt>
</event>
<event>
 5    1  0.1854763E+000  0.9832132E+02  0.7546771E-02  0.1283866E+00
         21   -1    0    0  503  502  0.00000000000E+00  0.00000000000E+00  0.39462982458E+02  0.39462982458E+02  0.00000000000E+00 0.  1.
         21   -1    0    0  501  503 -0.00000000000E+00 -0.00000000000E+00 -0.54012585814E+03  0.54012585814E+03  0.00000000000E+00 0.  1.
         24    1    1    2    0    0  0.18866544036E+02  0.43680543927E+02 -0.11559005578E+03  0.14863449583E+03  0.80419002446E+02 0.  0.
          1    1    1    2  501    0 -0.55650326653E+02 -0.33814076686E+02 -0.38736614171E+03  0.39280132176E+03  0.00000000000E+00 0. -1.
         -2    1    1    2    0  502  0.36783782617E+02 -0.98664672410E+01  0.22933218026E+01  0.38153023003E+02  0.00000000000E+00 0.  1.
<mgrwt>
<rscale>  2 0.98321323E+02</rscale>
<asrwt>0</asrwt>
<pdfrwt beam="1">  1       21 0.60712286E-02 0.98321323E+02</pdfrwt>
<pdfrwt beam="2">  1       21 0.83096278E-01 0.98321323E+02</pdfrwt>
<totfact> 0.25011367E+05</totfact>
</mgrwt>
</event>
<event>
 5    1  0.1854763E+000  0.1181939E+03  0.7546771E-02  0.1246107E+00
         21   -1    0    0  501  502  0.00000000000E+00  0.00000000000E+00  0.42002029307E+02  0.42002029307E+02  0.00000000000E+00 0.  1.
         21   -1    0    0  502  503 -0.00000000000E+00 -0.00000000000E+00 -0.91924004461E+03  0.91924004461E+03  0.00000000000E+00 0.  1.
         24    1    1    2    0    0 -0.31353901996E+02  0.75409647123E+02 -0.12031564371E+03  0.16617085221E+03  0.80419002446E+02 0.  1.
          1    1    1    2  501    0  0.97792313724E+01  0.20900077983E+02  0.75312082127E+01  0.24272736209E+02  0.00000000000E+00 0. -1.
         -2    1    1    2    0  503  0.21574670624E+02 -0.96309725106E+02 -0.76445357981E+03  0.77079848550E+03  0.00000000000E+00 0.  1.
<mgrwt>
<rscale>  2 0.11819388E+03</rscale>
<asrwt>0</asrwt>
<pdfrwt beam="1">  1       21 0.64618509E-02 0.11819388E+03</pdfrwt>
<pdfrwt beam="2">  1       21 0.14142154E+00 0.11819388E+03</pdfrwt>
<totfact> 0.63136233E+04</totfact>
</mgrwt>
</event>
<event>
 5    1  0.1854763E+000  0.1071852E+03  0.7546771E-02  0.1265873E+00
         21   -1    0    0  501  502  0.00000000000E+00  0.00000000000E+00  0.19876599205E+03  0.19876599205E+03  0.00000000000E+00 0.  1.
         21   -1    0    0  502  503 -0.00000000000E+00 -0.00000000000E+00 -0.28601830333E+03  0.28601830333E+03  0.00000000000E+00 0.  1.
         24    1    1    2    0    0  0.60882856626E+02 -0.53384774834E+02  0.41654137026E+02  0.12148637578E+03  0.80419002446E+02 0.  1.
          1    1    1    2  501    0 -0.26748971141E+02 -0.97552761799E+01  0.11011278723E+03  0.11373433423E+03  0.00000000000E+00 0. -1.
         -2    1    1    2    0  503 -0.34133885485E+02  0.63140051014E+02 -0.23901923555E+03  0.24956358537E+03  0.00000000000E+00 0.  1.
<mgrwt>
<rscale>  2 0.10718523E+03</rscale>
<asrwt>0</asrwt>
<pdfrwt beam="1">  1       21 0.30579383E-01 0.10718523E+03</pdfrwt>
<pdfrwt beam="2">  1       21 0.44002816E-01 0.10718523E+03</pdfrwt>
<totfact> 0.53227382E+04</totfact>
</mgrwt>
</event>
<event>
 5    1  0.1854763E+000  0.7338228E+02  0.7546771E-02  0.1348955E+00
         21   -1    0    0  501  502  0.00000000000E+00  0.00000000000E+00  0.18530655530E+04  0.18530655530E+04  0.00000000000E+00 0.  1.
         21   -1    0    0  502  503 -0.00000000000E+00 -0.00000000000E+00 -0.92816071687E+01  0.92816071687E+01  0.00000000000E+00 0.  1.
         24    1    1    2    0    0 -0.21464970821E+02  0.36160636153E+02  0.48409511683E+03  0.49252780091E+03  0.80419002446E+02 0.  0.
          1    1    1    2  501    0  0.29181261965E+02 -0.13645748281E+02  0.13354868743E+04  0.13358753475E+04  0.00000000000E+00 0. -1.
         -2    1    1    2    0  503 -0.77162911441E+01 -0.22514887872E+02  0.24201954640E+02  0.33944011744E+02  0.00000000000E+00 0.  1.
<mgrwt>
<rscale>  2 0.73382280E+02</rscale>
<asrwt>0</asrwt>
<pdfrwt beam="1">  1       21 0.28508671E+00 0.73382280E+02</pdfrwt>
<pdfrwt beam="2">  1       21 0.14279410E-02 0.73382280E+02</pdfrwt>
<totfact> 0.10083539E+05</totfact>
</mgrwt>
</event>
<event>
 5    1  0.1854763E+000  0.8332812E+02  0.7546771E-02  0.1319863E+00
         21   -1    0    0  503  502  0.00000000000E+00  0.00000000000E+00  0.34017842855E+01  0.34017842855E+01  0.00000000000E+00 0. -1.
         21   -1    0    0  501  503 -0.00000000000E+00 -0.00000000000E+00 -0.26131106312E+04  0.26131106312E+04  0.00000000000E+00 0. -1.
         24    1    1    2    0    0  0.48722821063E+02 -0.41220470481E+02 -0.14885298093E+04  0.14920661010E+04  0.80419002446E+02 0. -1.
          1    1    1    2  501    0 -0.25612571350E+02  0.18615063638E+02 -0.93106957164E+03  0.93160778853E+03  0.00000000000E+00 0. -1.
         -2    1    1    2    0  502 -0.23110249713E+02  0.22605406843E+02 -0.19010946594E+03  0.19283852598E+03  0.00000000000E+00 0.  1.
<mgrwt>
<rscale>  2 0.83328119E+02</rscale>
<asrwt>0</asrwt>
<pdfrwt beam="1">  1       21 0.52335010E-03 0.83328119E+02</pdfrwt>
<pdfrwt beam="2">  1       21 0.40201804E+00 0.83328119E+02</pdfrwt>
<totfact> 0.10370987E+05</totfact>
</mgrwt>
</event>
<event>
 5    1  0.1854763E+000  0.1138909E+03  0.7546771E-02  0.1253530E+00
         21   -1    0    0  501  502  0.00000000000E+00  0.00000000000E+00  0.67783172946E+02  0.67783172946E+02  0.00000000000E+00 0.  1.
         21   -1    0    0  502  503 -0.00000000000E+00 -0.00000000000E+00 -0.28609863109E+03  0.28609863109E+03  0.00000000000E+00 0.  1.
         24    1    1    2    0    0 -0.57015373979E+02 -0.73401052396E+02 -0.24804873382E+02  0.12538327265E+03  0.80419002446E+02 0.  1.
          1    1    1    2  501    0  0.36526792686E+02  0.75904164246E+02 -0.91293198931E+02  0.12421794116E+03  0.00000000000E+00 0. -1.
         -2    1    1    2    0  503  0.20488581293E+02 -0.25031118504E+01 -0.10221738583E+03  0.10428059023E+03  0.00000000000E+00 0.  1.
<mgrwt>
<rscale>  2 0.11389089E+03</rscale>
<asrwt>0</asrwt>
<pdfrwt beam="1">  1       21 0.10428181E-01 0.11389089E+03</pdfrwt>
<pdfrwt beam="2">  1       21 0.44015174E-01 0.11389089E+03</pdfrwt>
<totfact> 0.37862994E+05</totfact>
</mgrwt>
</event>
<event>
 5    1  0.1854763E+000  0.8799865E+02  0.7546771E-02  0.1307772E+00
         21   -1    0    0  503  502  0.00000000000E+00  0.00000000000E+00  0.10295040036E+04  0.10295040036E+04  0.00000000000E+00 0.  1.
         21   -1    0    0  501  503 -0.00000000000E+00 -0.00000000000E+00 -0.89591377541E+01  0.89591377541E+01  0.00000000000E+00 0. -1.
         24    1    1    2    0    0  0.40733937353E+01 -0.89631914434E+01  0.32129311746E+03  0.33135089349E+03  0.80419002446E+02 0. -1.
          1    1    1    2  501    0 -0.10655503136E+02 -0.42132979948E+02  0.17421094049E+03  0.17954993604E+03  0.00000000000E+00 0. -1.
         -2    1    1    2    0  502  0.65821094006E+01  0.51096171392E+02  0.52504080789E+03  0.52756231181E+03  0.00000000000E+00 0.  1.
<mgrwt>
<rscale>  2 0.87998648E+02</rscale>
<asrwt>0</asrwt>
<pdfrwt beam="1">  1       21 0.15838514E+00 0.87998648E+02</pdfrwt>
<pdfrwt beam="2">  1       21 0.13783297E-02 0.87998648E+02</pdfrwt>
<totfact> 0.59742094E+05</totfact>
</mgrwt>
</event>
<event>
 5    1  0.1854763E+000  0.8767138E+02  0.7546771E-02  0.1308591E+00
         21   -1    0    0  501  502  0.00000000000E+00  0.00000000000E+00  0.12300594478E+03  0.12300594478E+03  0.00000000000E+00 0. -1.
         21   -1    0    0  502  503 -0.00000000000E+00 -0.00000000000E+00 -0.79106526741E+02  0.79106526741E+02  0.00000000000E+00 0. -1.
         24    1    1    2    0    0  0.11308979526E+02 -0.67191772772E+02  0.43840702950E+02  0.11415713090E+03  0.80419002446E+02 0. -1.
          1    1    1    2  501    0 -0.13008620779E+02  0.29878441912E+02  0.26656345813E+02  0.42101143426E+02  0.00000000000E+00 0. -1.
         -2    1    1    2    0  503  0.16996412533E+01  0.37313330860E+02 -0.26597630722E+02  0.45854197194E+02  0.00000000000E+00 0.  1.
<mgrwt>
<rscale>  2 0.87671384E+02</rscale>
<asrwt>0</asrwt>
<pdfrwt beam="1">  1       21 0.18923991E-01 0.87671384E+02</pdfrwt>
<pdfrwt beam="2">  1       21 0.12170235E-01 0.87671384E+02</pdfrwt>
<totfact> 0.14461960E+06</totfact>
</mgrwt>
</event>
<event>
 5    1  0.1854763E+000  0.1037169E+03  0.7546771E-02  0.1272668E+00
         21   -1    0    0  501  502  0.00000000000E+00  0.00000000000E+00  0.27715467531E+03  0.27715467531E+03  0.00000000000E+00 0.  1.
         21   -1    0    0  502  503 -0.00000000000E+00 -0.00000000000E+00 -0.41238124782E+02  0.41238124782E+02  0.00000000000E+00 0. -1.
         24    1    1    2    0    0  0.18504024787E+02 -0.34618204164E+02  0.83265578675E+02  0.12223416682E+03  0.80419002446E+02 0. -1.
          1    1    1    2  501    0 -0.60249751061E+02  0.44675395207E+02  0.12268311787E+03  0.14379523932E+03  0.00000000000E+00 0. -1.
         -2    1    1    2    0  503  0.41745726274E+02 -0.10057191043E+02  0.29967853987E+02  0.52363393954E+02  0.00000000000E+00 0.  1.
<mgrwt>
<rscale>  2 0.10371694E+03</rscale>
<asrwt>0</asrwt>
<pdfrwt beam="1">  1       21 0.42639180E-01 0.10371694E+03</pdfrwt>
<pdfrwt beam="2">  1       21 0.63443271E-02 0.10371694E+03</pdfrwt>
<totfact> 0.94848000E+05</totfact>
</mgrwt>
</event>
<event>
 5    1  0.1854763E+000  0.1110242E+03  0.7546771E-02  0.1258685E+00
         21   -1    0    0  501  502  0.00000000000E+00  0.00000000000E+00  0.28168066193E+03  0.28168066193E+03  0.00000000000E+00 0.  1.
         21   -1    0    0  502  503 -0.00000000000E+00 -0.00000000000E+00 -0.52333747555E+02  0.52333747555E+02  0.00000000000E+00 0. -1.
         24    1    1    2    0    0 -0.52579819893E+02 -0.49554327631E+02  0.56512337744E+02  0.12198823353E+03  0.80419002446E+02 0.  0.
          1    1    1    2  501    0  0.11591765114E+02 -0.25730097176E+02  0.83844763479E+02  0.88466667632E+02  0.00000000000E+00 0. -1.
         -2    1    1    2    0  503  0.40988054780E+02  0.75284424807E+02  0.88989813149E+02  0.12355950832E+03  0.00000000000E+00 0.  1.
<mgrwt>
<rscale>  2 0.11102423E+03</rscale>
<asrwt>0</asrwt>
<pdfrwt beam="1">  1       21 0.43335486E-01 0.11102423E+03</pdfrwt>
<pdfrwt beam="2">  1       21 0.80513459E-02 0.11102423E+03</pdfrwt>
<totfact> 0.61185951E+05</totfact>
</mgrwt>
</event>
<event>
 5    1  0.1854763E+000  0.6604235E+02  0.7546771E-02  0.1374093E+00
         21   -1    0    0  503  502  0.00000000000E+00  0.00000000000E+00  0.26583787693E+03  0.26583787693E+03  0.00000000000E+00 0. -1.
         21   -1    0    0  501  503 -0.00000000000E+00 -0.00000000000E+00 -0.12454471395E+03  0.12454471395E+03  0.00000000000E+00 0. -1.
         24    1    1    2    0    0 -0.12647456168E+02  0.17515195946E+01  0.20423850138E+03  0.21987179758E+03  0.80419002446E+02 0. -1.
          1    1    1    2  501    0 -0.85792450278E+01 -0.20572285141E+02 -0.11180895148E+03  0.11400905224E+03  0.00000000000E+00 0. -1.
         -2    1    1    2    0  502  0.21226701196E+02  0.18820765547E+02  0.48863613080E+02  0.56501741059E+02  0.00000000000E+00 0.  1.
<mgrwt>
<rscale>  2 0.66042351E+02</rscale>
<asrwt>0</asrwt>
<pdfrwt beam="1">  1       21 0.40898135E-01 0.66042351E+02</pdfrwt>
<pdfrwt beam="2">  1       21 0.19160725E-01 0.66042351E+02</pdfrwt>
<totfact> 0.15057734E+05</totfact>
</mgrwt>
</event>
<event>
 5    1  0.1854763E+000  0.1438963E+03  0.7546771E-02  0.1208180E+00
         21   -1    0    0  503  502  0.00000000000E+00  0.00000000000E+00  0.19179074524E+03  0.19179074524E+03  0.00000000000E+00 0.  1.
         21   -1    0    0  501  503 -0.00000000000E+00 -0.00000000000E+00 -0.14622821642E+03  0.14622821642E+03  0.00000000000E+00 0.  1.
         24    1    1    2    0    0 -0.44915095397E+02 -0.40260316705E+02 -0.65285217084E+02  0.11986506755E+03  0.80419002446E+02 0.  1.
          1    1    1    2  501    0  0.79930305017E+02 -0.47360810239E+02  0.46095593093E+02  0.10371452988E+03  0.00000000000E+00 0. -1.
         -2    1    1    2    0  502 -0.35015209619E+02  0.87621126944E+02  0.64752152812E+02  0.11443936423E+03  0.00000000000E+00 0.  1.
<mgrwt>
<rscale>  2 0.14389626E+03</rscale>
<asrwt>0</asrwt>
<pdfrwt beam="1">  1       21 0.29506268E-01 0.14389626E+03</pdfrwt>
<pdfrwt beam="2">  1       21 0.22496649E-01 0.14389626E+03</pdfrwt>
<totfact> 0.20640764E+05</totfact>
</mgrwt>
</event>
<event>
 5    1  0.1854763E+000  0.6907219E+02  0.7546771E-02  0.1363277E+00
         21   -1    0    0  501  502  0.00000000000E+00  0.00000000000E+00  0.12168718559E+03  0.12168718559E+03  0.00000000000E+00 0. -1.
         21   -1    0    0  502  503 -0.00000000000E+00 -0.00000000000E+00 -0.51297973948E+02  0.51297973948E+02  0.00000000000E+00 0. -1.
         24    1    1    2    0    0 -0.72971212694E+01  0.27194024607E+02  0.80005560628E+02  0.11687971868E+03  0.80419002446E+02 0. -1.
          1    1    1    2  501    0  0.25476295299E+02 -0.84846068166E+01  0.31969133575E+01  0.27041642517E+02  0.00000000000E+00 0. -1.
         -2    1    1    2    0  503 -0.18179174029E+02 -0.18709417790E+02 -0.12813262340E+02  0.29063798345E+02  0.00000000000E+00 0.  1.
<mgrwt>
<rscale>  2 0.69072191E+02</rscale>
<asrwt>0</asrwt>
<pdfrwt beam="1">  1       21 0.18721105E-01 0.69072191E+02</pdfrwt>
<pdfrwt beam="2">  1       21 0.78919960E-02 0.69072191E+02</pdfrwt>
<totfact> 0.30764321E+06</totfact>
</mgrwt>
</event>
<event>
 5    1  0.1854763E+000  0.8136800E+02  0.7546771E-02  0.1325213E+00
         21   -1    0    0  503  502  0.00000000000E+00  0.00000000000E+00  0.72124512218E+02  0.72124512218E+02  0.00000000000E+00 0.  1.
         21   -1    0    0  501  503 -0.00000000000E+00 -0.00000000000E+00 -0.16395229448E+03  0.16395229448E+03  0.00000000000E+00 0.  1.
         24    1    1    2    0    0 -0.97913149091E+01 -0.14163226439E+02 -0.55386602454E+02  0.99153207293E+02  0.80419002446E+02 0.  1.
          1    1    1    2  501    0 -0.32700452667E+02 -0.63483445418E+01 -0.71007966597E+02  0.78433107826E+02  0.00000000000E+00 0. -1.
         -2    1    1    2    0  502  0.42491767576E+02  0.20511570981E+02  0.34566786791E+02  0.58490491577E+02  0.00000000000E+00 0.  1.
<mgrwt>
<rscale>  2 0.81368002E+02</rscale>
<asrwt>0</asrwt>
<pdfrwt beam="1">  1       21 0.11096079E-01 0.81368002E+02</pdfrwt>
<pdfrwt beam="2">  1       21 0.25223430E-01 0.81368002E+02</pdfrwt>
<totfact> 0.99879143E+05</totfact>
</mgrwt>
</event>
<event>
 5    1  0.1854763E+000  0.8123666E+02  0.7546771E-02  0.1325578E+00
         21   -1    0    0  503  502  0.00000000000E+00  0.00000000000E+00  0.27816098164E+02  0.27816098164E+02  0.00000000000E+00 0. -1.
         21   -1    0    0  501  503 -0.00000000000E+00 -0.00000000000E+00 -0.27079995776E+03  0.27079995776E+03  0.00000000000E+00 0.  1.
         24    1    1    2    0    0 -0.13196768517E+02 -0.71029256612E+01 -0.15053065710E+03  0.17132221378E+03  0.80419002446E+02 0.  0.
          1    1    1    2  501    0 -0.31672126661E+02 -0.91185205573E+01 -0.63339541816E+02  0.71401460643E+02  0.00000000000E+00 0. -1.
         -2    1    1    2    0  502  0.44868895178E+02  0.16221446219E+02 -0.29113660676E+02  0.55892381501E+02  0.00000000000E+00 0.  1.
<mgrwt>
<rscale>  2 0.81236663E+02</rscale>
<asrwt>0</asrwt>
<pdfrwt beam="1">  1       21 0.42793997E-02 0.81236663E+02</pdfrwt>
<pdfrwt beam="2">  1       21 0.41661532E-01 0.81236663E+02</pdfrwt>
<totfact> 0.19047269E+06</totfact>
</mgrwt>
</event>
<event>
 5    1  0.1854763E+000  0.9563933E+02  0.7546771E-02  0.1289743E+00
         21   -1    0    0  501  502  0.00000000000E+00  0.00000000000E+00  0.84852940808E+03  0.84852940808E+03  0.00000000000E+00 0.  1.
         21   -1    0    0  502  503 -0.00000000000E+00 -0.00000000000E+00 -0.11140603076E+02  0.11140603076E+02  0.00000000000E+00 0. -1.
         24    1    1    2    0    0 -0.36704604068E+02 -0.10918455806E+02  0.32626302553E+03  0.33820292491E+03  0.80419002446E+02 0. -1.
          1    1    1    2  501    0 -0.24280970760E+02 -0.22121563730E+02  0.13029677199E+03  0.13437327828E+03  0.00000000000E+00 0. -1.
         -2    1    1    2    0  503  0.60985574828E+02  0.33040019535E+02  0.38082900748E+03  0.38709380797E+03  0.00000000000E+00 0.  1.
<mgrwt>
<rscale>  2 0.95639332E+02</rscale>
<asrwt>0</asrwt>
<pdfrwt beam="1">  1       21 0.13054293E+00 0.95639332E+02</pdfrwt>
<pdfrwt beam="2">  1       21 0.17139396E-02 0.95639332E+02</pdfrwt>
<totfact> 0.68781267E+05</totfact>
</mgrwt>
</event>
<event>
 5    1  0.1854763E+000  0.7361789E+02  0.7546771E-02  0.1348205E+00
         21   -1    0    0  503  502  0.00000000000E+00  0.00000000000E+00  0.30515251648E+03  0.30515251648E+03  0.00000000000E+00 0. -1.
         21   -1    0    0  501  503 -0.00000000000E+00 -0.00000000000E+00 -0.35475333312E+02  0.35475333312E+02  0.00000000000E+00 0.  1.
         24    1    1    2    0    0 -0.18365494332E+02  0.33153541228E+02  0.98434364867E+02  0.13263856460E+03  0.80419002446E+02 0.  1.
          1    1    1    2  501    0  0.32154487048E+02 -0.14852763081E+02  0.20129657418E+00  0.35419713843E+02  0.00000000000E+00 0. -1.
         -2    1    1    2    0  502 -0.13788992715E+02 -0.18300778148E+02  0.17104152172E+03  0.17256957135E+03  0.00000000000E+00 0.  1.
<mgrwt>
<rscale>  2 0.73617887E+02</rscale>
<asrwt>0</asrwt>
<pdfrwt beam="1">  1       21 0.46946539E-01 0.73617887E+02</pdfrwt>
<pdfrwt beam="2">  1       21 0.54577438E-02 0.73617887E+02</pdfrwt>
<totfact> 0.10003627E+06</totfact>
</mgrwt>
</event>
<event>
 5    1  0.1854763E+000  0.7056155E+02  0.7546771E-02  0.1358194E+00
         21   -1    0    0  503  502  0.00000000000E+00  0.00000000000E+00  0.49794399065E+02  0.49794399065E+02  0.00000000000E+00 0.  1.
         21   -1    0    0  501  503 -0.00000000000E+00 -0.00000000000E+00 -0.13685507197E+03  0.13685507197E+03  0.00000000000E+00 0.  1.
         24    1    1    2    0    0  0.35693933671E+02  0.24748470686E+01 -0.93266950352E+02  0.12824243350E+03  0.80419002446E+02 0.  1.
          1    1    1    2  501    0 -0.21420081920E+02 -0.20812222390E+02 -0.83191322271E+01  0.31002846180E+02  0.00000000000E+00 0. -1.
         -2    1    1    2    0  502 -0.14273851751E+02  0.18337375322E+02  0.14525409672E+02  0.27404191352E+02  0.00000000000E+00 0.  1.
<mgrwt>
<rscale>  2 0.70561546E+02</rscale>
<asrwt>0</asrwt>
<pdfrwt beam="1">  1       21 0.76606768E-02 0.70561546E+02</pdfrwt>
<pdfrwt beam="2">  1       21 0.21054626E-01 0.70561546E+02</pdfrwt>
<totfact> 0.26172850E+06</totfact>
</mgrwt>
</event>
<event>
 5    1  0.1854763E+000  0.1111307E+03  0.7546771E-02  0.1258490E+00
         21   -1    0    0  501  502  0.00000000000E+00  0.00000000000E+00  0.52180140833E+03  0.52180140833E+03  0.00000000000E+00 0.  1.
         21   -1    0    0  502  503 -0.00000000000E+00 -0.00000000000E+00 -0.28541457972E+02  0.28541457972E+02  0.00000000000E+00 0.  1.
         24    1    1    2    0    0  0.19904957052E+02  0.87403097628E+02  0.23230315347E+03  0.26166291265E+03  0.80419002446E+02 0.  1.
          1    1    1    2  501    0 -0.30535086657E+02 -0.27812483740E+02  0.19429456264E+03  0.19863610659E+03  0.00000000000E+00 0. -1.
         -2    1    1    2    0  503  0.10630129605E+02 -0.59590613888E+02  0.66662234246E+02  0.90043847062E+02  0.00000000000E+00 0.  1.
<mgrwt>
<rscale>  2 0.11113072E+03</rscale>
<asrwt>0</asrwt>
<pdfrwt beam="1">  1       21 0.80277133E-01 0.11113072E+03</pdfrwt>
<pdfrwt beam="2">  1       21 0.43909939E-02 0.11113072E+03</pdfrwt>
<totfact> 0.46339120E+05</totfact>
</mgrwt>
</event>
<event>
 5    1  0.1854763E+000  0.7009789E+02  0.7546771E-02  0.1359760E+00
         21   -1    0    0  501  502  0.00000000000E+00  0.00000000000E+00  0.27872829243E+02  0.27872829243E+02  0.00000000000E+00 0.  1.
         21   -1    0    0  502  503 -0.00000000000E+00 -0.00000000000E+00 -0.22707377459E+03  0.22707377459E+03  0.00000000000E+00 0. -1.
         24    1    1    2    0    0 -0.84432722699E+00  0.11416998008E+01 -0.13114510387E+03  0.15384495634E+03  0.80419002446E+02 0. -1.
          1    1    1    2  501    0 -0.20166563838E+02 -0.22217015214E+02 -0.37431486645E+01  0.30237348164E+02  0.00000000000E+00 0. -1.
         -2    1    1    2    0  503  0.21010891065E+02  0.21075315413E+02 -0.64312692817E+02  0.70864299337E+02  0.00000000000E+00 0.  1.
<mgrwt>
<rscale>  2 0.70097891E+02</rscale>
<asrwt>0</asrwt>
<pdfrwt beam="1">  1       21 0.42881274E-02 0.70097891E+02</pdfrwt>
<pdfrwt beam="2">  1       21 0.34934428E-01 0.70097891E+02</pdfrwt>
<totfact> 0.26603955E+06</totfact>
</mgrwt>
</event>
<event>
 5    1  0.1854763E+000  0.6844807E+02  0.7546771E-02  0.1365451E+00
         21   -1    0    0  503  502  0.00000000000E+00  0.00000000000E+00  0.69162807824E+03  0.69162807824E+03  0.00000000000E+00 0.  1.
         21   -1    0    0  501  503 -0.00000000000E+00 -0.00000000000E+00 -0.72012213447E+01  0.72012213447E+01  0.00000000000E+00 0. -1.
         24    1    1    2    0    0 -0.28221904127E+02 -0.34064866308E+02  0.37185046662E+03  0.38301028246E+03  0.80419002446E+02 0. -1.
          1    1    1    2  501    0  0.18137612949E+02  0.14963765778E+02  0.16838163785E+03  0.17001547946E+03  0.00000000000E+00 0. -1.
         -2    1    1    2    0  502  0.10084291178E+02  0.19101100530E+02  0.14419475243E+03  0.14580353767E+03  0.00000000000E+00 0.  1.
<mgrwt>
<rscale>  2 0.68448071E+02</rscale>
<asrwt>0</asrwt>
<pdfrwt beam="1">  1       21 0.10640427E+00 0.68448071E+02</pdfrwt>
<pdfrwt beam="2">  1       21 0.11078807E-02 0.68448071E+02</pdfrwt>
<totfact> 0.22185459E+06</totfact>
</mgrwt>
</event>
<event>
 5    1  0.1854763E+000  0.6507161E+02  0.7546771E-02  0.1377702E+00
         21   -1    0    0  503  502  0.00000000000E+00  0.00000000000E+00  0.18420116416E+03  0.18420116416E+03  0.00000000000E+00 0.  1.
         21   -1    0    0  501  503 -0.00000000000E+00 -0.00000000000E+00 -0.29743663934E+02  0.29743663934E+02  0.00000000000E+00 0. -1.
         24    1    1    2    0    0  0.31334207230E+01 -0.77211007618E+00  0.55284122558E+02  0.97642022924E+02  0.80419002446E+02 0.  0.
          1    1    1    2  501    0  0.22468214667E+02 -0.58459689882E+01  0.13981286885E+02  0.27101151390E+02  0.00000000000E+00 0. -1.
         -2    1    1    2    0  502 -0.25601635390E+02  0.66180790644E+01  0.85192090783E+02  0.89201653780E+02  0.00000000000E+00 0.  1.
<mgrwt>
<rscale>  2 0.65071607E+02</rscale>
<asrwt>0</asrwt>
<pdfrwt beam="1">  1       21 0.28338640E-01 0.65071607E+02</pdfrwt>
<pdfrwt beam="2">  1       21 0.45759484E-02 0.65071607E+02</pdfrwt>
<totfact> 0.35451517E+06</totfact>
</mgrwt>
</event>
<event>
 5    1  0.1854763E+000  0.6801523E+02  0.7546771E-02  0.1366975E+00
         21   -1    0    0  503  502  0.00000000000E+00  0.00000000000E+00  0.29446573352E+03  0.29446573352E+03  0.00000000000E+00 0. -1.
         21   -1    0    0  501  503 -0.00000000000E+00 -0.00000000000E+00 -0.17507831546E+02  0.17507831546E+02  0.00000000000E+00 0.  1.
         24    1    1    2    0    0  0.17888534440E+02 -0.18519037920E+02  0.21569227620E+03  0.23163188122E+03  0.80419002446E+02 0.  0.
          1    1    1    2  501    0  0.11169939383E+02  0.19547099611E+02  0.21958129974E+02  0.31448626695E+02  0.00000000000E+00 0. -1.
         -2    1    1    2    0  502 -0.29058473823E+02 -0.10280616902E+01  0.39307495800E+02  0.48893057153E+02  0.00000000000E+00 0.  1.
<mgrwt>
<rscale>  2 0.68015234E+02</rscale>
<asrwt>0</asrwt>
<pdfrwt beam="1">  1       21 0.45302417E-01 0.68015234E+02</pdfrwt>
<pdfrwt beam="2">  1       21 0.26935128E-02 0.68015234E+02</pdfrwt>
<totfact> 0.33922602E+06</totfact>
</mgrwt>
</event>
<event>
 5    1  0.1854763E+000  0.6440338E+02  0.7546771E-02  0.1380230E+00
         21   -1    0    0  503  502  0.00000000000E+00  0.00000000000E+00  0.15444643056E+03  0.15444643056E+03  0.00000000000E+00 0.  1.
         21   -1    0    0  501  503 -0.00000000000E+00 -0.00000000000E+00 -0.31758620046E+03  0.31758620046E+03  0.00000000000E+00 0. -1.
         24    1    1    2    0    0 -0.11186360882E+02 -0.64072317628E+01 -0.11537626085E+03  0.14122706827E+03  0.80419002446E+02 0.  1.
          1    1    1    2  501    0  0.11190878140E+02 -0.18947926365E+02 -0.18750020928E+03  0.18878715037E+03  0.00000000000E+00 0. -1.
         -2    1    1    2    0  502 -0.45172579776E-02  0.25355158128E+02  0.13973670023E+03  0.14201841238E+03  0.00000000000E+00 0.  1.
<mgrwt>
<rscale>  2 0.64403383E+02</rscale>
<asrwt>0</asrwt>
<pdfrwt beam="1">  1       21 0.23760990E-01 0.64403383E+02</pdfrwt>
<pdfrwt beam="2">  1       21 0.48859415E-01 0.64403383E+02</pdfrwt>
<totfact> 0.71459488E+04</totfact>
</mgrwt>
</event>
<event>
 5    1  0.1854763E+000  0.8311564E+02  0.7546771E-02  0.1320435E+00
         21   -1    0    0  501  502  0.00000000000E+00  0.00000000000E+00  0.94389562895E+01  0.94389562895E+01  0.00000000000E+00 0.  1.
         21   -1    0    0  502  503 -0.00000000000E+00 -0.00000000000E+00 -0.74678417281E+03  0.74678417281E+03  0.00000000000E+00 0. -1.
         24    1    1    2    0    0 -0.18599947548E+02  0.33477517393E+02 -0.40379685945E+03  0.41350431905E+03  0.80419002446E+02 0.  0.
          1    1    1    2  501    0 -0.24832860847E+02 -0.53173207159E+01 -0.79761101781E+02  0.83706500553E+02  0.00000000000E+00 0. -1.
         -2    1    1    2    0  503  0.43432808394E+02 -0.28160196677E+02 -0.25378725529E+03  0.25901230949E+03  0.00000000000E+00 0.  1.
<mgrwt>
<rscale>  2 0.83115642E+02</rscale>
<asrwt>0</asrwt>
<pdfrwt beam="1">  1       21 0.14521469E-02 0.83115642E+02</pdfrwt>
<pdfrwt beam="2">  1       21 0.11488989E+00 0.83115642E+02</pdfrwt>
<totfact> 0.12182768E+06</totfact>
</mgrwt>
</event>
<event>
 5    1  0.1854763E+000  0.1190461E+03  0.7546771E-02  0.1244679E+00
         21   -1    0    0  501  502  0.00000000000E+00  0.00000000000E+00  0.44426372385E+03  0.44426372385E+03  0.00000000000E+00 0. -1.
         21   -1    0    0  502  503 -0.00000000000E+00 -0.00000000000E+00 -0.44939320571E+02  0.44939320571E+02  0.00000000000E+00 0.  1.
         24    1    1    2    0    0  0.73013879526E+02 -0.23507683513E+02  0.83494270185E+02  0.13900412546E+03  0.80419002446E+02 0.  1.
          1    1    1    2  501    0 -0.18618391907E+02  0.59092765444E+02  0.25047036524E+03  0.25801938552E+03  0.00000000000E+00 0. -1.
         -2    1    1    2    0  503 -0.54395487619E+02 -0.35585081932E+02  0.65359767855E+02  0.92179533430E+02  0.00000000000E+00 0.  1.
<mgrwt>
<rscale>  2 0.11904606E+03</rscale>
<asrwt>0</asrwt>
<pdfrwt beam="1">  1       21 0.68348262E-01 0.11904606E+03</pdfrwt>
<pdfrwt beam="2">  1       21 0.69137419E-02 0.11904606E+03</pdfrwt>
<totfact> 0.30677273E+05</totfact>
</mgrwt>
</event>
<event>
 5    1  0.1854763E+000  0.8562785E+02  0.7546771E-02  0.1313799E+00
         21   -1    0    0  503  502  0.00000000000E+00  0.00000000000E+00  0.54290979048E+03  0.54290979048E+03  0.00000000000E+00 0.  1.
         21   -1    0    0  501  503 -0.00000000000E+00 -0.00000000000E+00 -0.47471413146E+02  0.47471413146E+02  0.00000000000E+00 0.  1.
         24    1    1    2    0    0 -0.16594553435E+02 -0.32778463741E+02  0.19125028183E+02  0.90458772633E+02  0.80419002446E+02 0.  1.
          1    1    1    2  501    0 -0.27543882033E+02 -0.52472418647E+00  0.84679689908E+01  0.28820951958E+02  0.00000000000E+00 0. -1.
         -2    1    1    2    0  502  0.44138435469E+02  0.33303187927E+02  0.46784538016E+03  0.47110147903E+03  0.00000000000E+00 0.  1.
<mgrwt>
<rscale>  2 0.85627850E+02</rscale>
<asrwt>0</asrwt>
<pdfrwt beam="1">  1       21 0.83524579E-01 0.85627850E+02</pdfrwt>
<pdfrwt beam="2">  1       21 0.73032947E-02 0.85627850E+02</pdfrwt>
<totfact> 0.18168007E+05</totfact>
</mgrwt>
</event>
<event>
 5    1  0.1854763E+000  0.1056309E+03  0.7546771E-02  0.1268882E+00
         21   -1    0    0  503  502  0.00000000000E+00  0.00000000000E+00  0.18795837777E+03  0.18795837777E+03  0.00000000000E+00 0.  1.
         21   -1    0    0  501  503 -0.00000000000E+00 -0.00000000000E+00 -0.78418011340E+02  0.78418011340E+02  0.00000000000E+00 0.  1.
         24    1    1    2    0    0  0.87788621406E+02 -0.13623384181E+02  0.11369363616E+03  0.16518443481E+03  0.80419002446E+02 0.  1.
          1    1    1    2  501    0 -0.38993802932E+02  0.16957335489E+02 -0.23515017245E+02  0.48590368696E+02  0.00000000000E+00 0. -1.
         -2    1    1    2    0  502 -0.48794818474E+02 -0.33339513076E+01  0.19361747512E+02  0.52601585603E+02  0.00000000000E+00 0.  1.
<mgrwt>
<rscale>  2 0.10563087E+03</rscale>
<asrwt>0</asrwt>
<pdfrwt beam="1">  1       21 0.28916673E-01 0.10563087E+03</pdfrwt>
<pdfrwt beam="2">  1       21 0.12064310E-01 0.10563087E+03</pdfrwt>
<totfact> 0.66869068E+05</totfact>
</mgrwt>
</event>
<event>
 5    1  0.1854763E+000  0.1102904E+03  0.7546771E-02  0.1260033E+00
         21   -1    0    0  503  502  0.00000000000E+00  0.00000000000E+00  0.33395377924E+03  0.33395377924E+03  0.00000000000E+00 0. -1.
         21   -1    0    0  501  503 -0.00000000000E+00 -0.00000000000E+00 -0.53735461025E+02  0.53735461025E+02  0.00000000000E+00 0.  1.
         24    1    1    2    0    0  0.28687847268E+01  0.66289296657E+02  0.23581110434E+03  0.25783055222E+03  0.80419002446E+02 0. -1.
          1    1    1    2  501    0 -0.46732957365E+02 -0.15551104789E+02 -0.30055060299E+00  0.49253390694E+02  0.00000000000E+00 0. -1.
         -2    1    1    2    0  502  0.43864172638E+02 -0.50738191868E+02  0.44707764480E+02  0.80605297345E+02  0.00000000000E+00 0.  1.
<mgrwt>
<rscale>  2 0.11029037E+03</rscale>
<asrwt>0</asrwt>
<pdfrwt beam="1">  1       21 0.51377503E-01 0.11029037E+03</pdfrwt>
<pdfrwt beam="2">  1       21 0.82669942E-02 0.11029037E+03</pdfrwt>
<totfact> 0.41336820E+05</totfact>
</mgrwt>
</event>
<event>
 5    1  0.1854763E+000  0.9205058E+02  0.7546771E-02  0.1297961E+00
         21   -1    0    0  501  502  0.00000000000E+00  0.00000000000E+00  0.70011469795E+02  0.70011469795E+02  0.00000000000E+00 0. -1.
         21   -1    0    0  502  503 -0.00000000000E+00 -0.00000000000E+00 -0.29429716705E+03  0.29429716705E+03  0.00000000000E+00 0.  1.
         24    1    1    2    0    0  0.29047879185E+02 -0.65481820301E+01 -0.14429961811E+03  0.16785783781E+03  0.80419002446E+02 0.  1.
          1    1    1    2  501    0 -0.48888891876E+02  0.37476897110E+02  0.38335175081E+02  0.72554994414E+02  0.00000000000E+00 0. -1.
         -2    1    1    2    0  503  0.19841012691E+02 -0.30928715080E+02 -0.11832125422E+03  0.12389580462E+03  0.00000000000E+00 0.  1.
<mgrwt>
<rscale>  2 0.92050579E+02</rscale>
<asrwt>0</asrwt>
<pdfrwt beam="1">  1       21 0.10770995E-01 0.92050579E+02</pdfrwt>
<pdfrwt beam="2">  1       21 0.45276487E-01 0.92050579E+02</pdfrwt>
<totfact> 0.33907656E+05</totfact>
</mgrwt>
</event>
<event>
 5    1  0.1854763E+000  0.1100660E+03  0.7546771E-02  0.1260448E+00
         21   -1    0    0  503  502  0.00000000000E+00  0.00000000000E+00  0.47612412619E+02  0.47612412619E+02  0.00000000000E+00 0. -1.
         21   -1    0    0  501  503 -0.00000000000E+00 -0.00000000000E+00 -0.29443457510E+03  0.29443457510E+03  0.00000000000E+00 0.  1.
         24    1    1    2    0    0  0.11609866538E+02 -0.59919256923E+01 -0.13441068957E+03  0.15717551209E+03  0.80419002446E+02 0.  0.
          1    1    1    2  501    0  0.55192094827E+02 -0.29957063452E+02 -0.81661614126E+02  0.10301559204E+03  0.00000000000E+00 0. -1.
         -2    1    1    2    0  502 -0.66801961365E+02  0.35948989144E+02 -0.30749858779E+02  0.81855883586E+02  0.00000000000E+00 0.  1.
<mgrwt>
<rscale>  2 0.11006600E+03</rscale>
<asrwt>0</asrwt>
<pdfrwt beam="1">  1       21 0.73249867E-02 0.11006600E+03</pdfrwt>
<pdfrwt beam="2">  1       21 0.45297626E-01 0.11006600E+03</pdfrwt>
<totfact> 0.65793121E+05</totfact>
</mgrwt>
</event>
<event>
 5    1  0.1854763E+000  0.8926037E+02  0.7546771E-02  0.1304653E+00
         21   -1    0    0  503  502  0.00000000000E+00  0.00000000000E+00  0.34823649989E+02  0.34823649989E+02  0.00000000000E+00 0.  1.
         21   -1    0    0  501  503 -0.00000000000E+00 -0.00000000000E+00 -0.28383063926E+03  0.28383063926E+03  0.00000000000E+00 0. -1.
         24    1    1    2    0    0 -0.23880270652E+02 -0.62241176995E+01 -0.15536053718E+03  0.17667235051E+03  0.80419002446E+02 0.  1.
          1    1    1    2  501    0 -0.26743333420E+02  0.28508723148E+02 -0.73254637080E+02  0.83031289474E+02  0.00000000000E+00 0. -1.
         -2    1    1    2    0  502  0.50623604072E+02 -0.22284605449E+02 -0.20391815009E+02  0.58950649264E+02  0.00000000000E+00 0.  1.
<mgrwt>
<rscale>  2 0.89260374E+02</rscale>
<asrwt>0</asrwt>
<pdfrwt beam="1">  1       21 0.53574845E-02 0.89260374E+02</pdfrwt>
<pdfrwt beam="2">  1       21 0.43666253E-01 0.89260374E+02</pdfrwt>
<totfact> 0.11984728E+06</totfact>
</mgrwt>
</event>
<event>
 5    1  0.1854763E+000  0.1280981E+03  0.7546771E-02  0.1230305E+00
         21   -1    0    0  503  502  0.00000000000E+00  0.00000000000E+00  0.65387134173E+02  0.65387134173E+02  0.00000000000E+00 0. -1.
         21   -1    0    0  501  503 -0.00000000000E+00 -0.00000000000E+00 -0.33297343751E+03  0.33297343751E+03  0.00000000000E+00 0. -1.
         24    1    1    2    0    0 -0.87816829812E+02  0.28778781770E+02 -0.22258738548E+03  0.25407159228E+03  0.80419002446E+02 0. -1.
          1    1    1    2  501    0  0.10445015675E+03 -0.41865341204E+02 -0.49027699363E+02  0.12274468356E+03  0.00000000000E+00 0. -1.
         -2    1    1    2    0  502 -0.16633326934E+02  0.13086559434E+02  0.40287815005E+01  0.21544295837E+02  0.00000000000E+00 0.  1.
<mgrwt>
<rscale>  2 0.12809811E+03</rscale>
<asrwt>0</asrwt>
<pdfrwt beam="1">  1       21 0.10059559E-01 0.12809811E+03</pdfrwt>
<pdfrwt beam="2">  1       21 0.51226683E-01 0.12809811E+03</pdfrwt>
<totfact> 0.29501048E+05</totfact>
</mgrwt>
</event>
<event>
 5    1  0.1854763E+000  0.7380118E+02  0.7546771E-02  0.1347624E+00
         21   -1    0    0  503  502  0.00000000000E+00  0.00000000000E+00  0.99181930004E+02  0.99181930004E+02  0.00000000000E+00 0.  1.
         21   -1    0    0  501  503 -0.00000000000E+00 -0.00000000000E+00 -0.63685811863E+02  0.63685811863E+02  0.00000000000E+00 0. -1.
         24    1    1    2    0    0 -0.40771670437E+02 -0.87851230128E+01  0.27673685643E+02  0.94723578522E+02  0.80419002446E+02 0.  1.
          1    1    1    2  501    0  0.15900508180E+02 -0.15532105303E+02 -0.14751661153E+02  0.26677405465E+02  0.00000000000E+00 0. -1.
         -2    1    1    2    0  502  0.24871162257E+02  0.24317228316E+02  0.22574093650E+02  0.41466757880E+02  0.00000000000E+00 0.  1.
<mgrwt>
<rscale>  2 0.73801179E+02</rscale>
<asrwt>0</asrwt>
<pdfrwt beam="1">  1       21 0.15258758E-01 0.73801179E+02</pdfrwt>
<pdfrwt beam="2">  1       21 0.97978172E-02 0.73801179E+02</pdfrwt>
<totfact> 0.30799912E+06</totfact>
</mgrwt>
</event>
<event>
 5    1  0.1854763E+000  0.1223122E+03  0.7546771E-02  0.1239331E+00
         21   -1    0    0  501  502  0.00000000000E+00  0.00000000000E+00  0.79454564213E+01  0.79454564213E+01  0.00000000000E+00 0. -1.
         21   -1    0    0  502  503 -0.00000000000E+00 -0.00000000000E+00 -0.20610439749E+04  0.20610439749E+04  0.00000000000E+00 0. -1.
         24    1    1    2    0    0  0.71780695470E+02  0.61092482436E+02 -0.11964887218E+04  0.12028870425E+04  0.80419002446E+02 0. -1.
          1    1    1    2  501    0 -0.61372492785E+02 -0.78982366400E+02 -0.56708096515E+03  0.57583471423E+03  0.00000000000E+00 0. -1.
         -2    1    1    2    0  503 -0.10408202685E+02  0.17889883964E+02 -0.28952883154E+03  0.29026767461E+03  0.00000000000E+00 0.  1.
<mgrwt>
<rscale>  2 0.12231219E+03</rscale>
<asrwt>0</asrwt>
<pdfrwt beam="1">  1       21 0.12223763E-02 0.12231219E+03</pdfrwt>
<pdfrwt beam="2">  1       21 0.31708411E+00 0.12231219E+03</pdfrwt>
<totfact> 0.79773611E+04</totfact>
</mgrwt>
</event>
<event>
 5    1  0.1854763E+000  0.1098727E+03  0.7546771E-02  0.1260806E+00
         21   -1    0    0  501  502  0.00000000000E+00  0.00000000000E+00  0.13189682927E+03  0.13189682927E+03  0.00000000000E+00 0. -1.
         21   -1    0    0  502  503 -0.00000000000E+00 -0.00000000000E+00 -0.11095209384E+03  0.11095209384E+03  0.00000000000E+00 0.  1.
         24    1    1    2    0    0 -0.50717991403E+02  0.60166706502E+02  0.53897436577E+02  0.12475775265E+03  0.80419002446E+02 0. -1.
          1    1    1    2  501    0  0.66771615588E+02 -0.30304509355E+02 -0.38802157157E+01  0.73429340250E+02  0.00000000000E+00 0. -1.
         -2    1    1    2    0  503 -0.16053624185E+02 -0.29862197147E+02 -0.29072485437E+02  0.44661830207E+02  0.00000000000E+00 0.  1.
<mgrwt>
<rscale>  2 0.10987265E+03</rscale>
<asrwt>0</asrwt>
<pdfrwt beam="1">  1       21 0.20291820E-01 0.10987265E+03</pdfrwt>
<pdfrwt beam="2">  1       21 0.17069553E-01 0.10987265E+03</pdfrwt>
<totfact> 0.69870182E+05</totfact>
</mgrwt>
</event>
<event>
 5    1  0.1854763E+000  0.7266497E+02  0.7546771E-02  0.1351258E+00
         21   -1    0    0  503  502  0.00000000000E+00  0.00000000000E+00  0.16489932713E+02  0.16489932713E+02  0.00000000000E+00 0.  1.
         21   -1    0    0  501  503 -0.00000000000E+00 -0.00000000000E+00 -0.32868049280E+03  0.32868049280E+03  0.00000000000E+00 0. -1.
         24    1    1    2    0    0  0.16626967385E+02  0.15612637055E+01 -0.14900666730E+03  0.17014434003E+03  0.80419002446E+02 0.  1.
          1    1    1    2  501    0 -0.22974682970E+02 -0.27877273401E+02 -0.97890667684E+02  0.10434347727E+03  0.00000000000E+00 0. -1.
         -2    1    1    2    0  502  0.63477155853E+01  0.26316009696E+02 -0.65293225101E+02  0.70682608211E+02  0.00000000000E+00 0.  1.
<mgrwt>
<rscale>  2 0.72664973E+02</rscale>
<asrwt>0</asrwt>
<pdfrwt beam="1">  1       21 0.25369128E-02 0.72664973E+02</pdfrwt>
<pdfrwt beam="2">  1       21 0.50566228E-01 0.72664973E+02</pdfrwt>
<totfact> 0.30048760E+06</totfact>
</mgrwt>
</event>
<event>
 5    1  0.1880145E+000  0.7025464E+02  0.7546771E-02  0.1359229E+00
         21   -1    0    0  503  502  0.00000000000E+00  0.00000000000E+00  0.21879025112E+03  0.21879025112E+03  0.00000000000E+00 0.  1.
         21   -1    0    0  501  503 -0.00000000000E+00 -0.00000000000E+00 -0.13436408314E+03  0.13436408314E+03  0.00000000000E+00 0. -1.
         24    1    1    2    0    0  0.16528952547E+01  0.50125826285E+01  0.19488391403E+03  0.21089052599E+03  0.80419002446E+02 0.  1.
          1    1    1    2  501    0 -0.79746925539E+01 -0.31598901033E+02 -0.11021798898E+03  0.11493516156E+03  0.00000000000E+00 0. -1.
         -2    1    1    2    0  502  0.63217972993E+01  0.26586318405E+02 -0.23975706675E+00  0.27328646707E+02  0.00000000000E+00 0.  1.
<mgrwt>
<rscale>  2 0.70254641E+02</rscale>
<asrwt>0</asrwt>
<pdfrwt beam="1">  1       21 0.33660039E-01 0.70254641E+02</pdfrwt>
<pdfrwt beam="2">  1       21 0.20671397E-01 0.70254641E+02</pdfrwt>
<totfact> 0.19124109E+05</totfact>
</mgrwt>
</event>
<event>
 5    1  0.1854763E+000  0.8794675E+02  0.7546771E-02  0.1307902E+00
         21   -1    0    0  503  502  0.00000000000E+00  0.00000000000E+00  0.49327675103E+02  0.49327675103E+02  0.00000000000E+00 0. -1.
         21   -1    0    0  501  503 -0.00000000000E+00 -0.00000000000E+00 -0.18291697431E+03  0.18291697431E+03  0.00000000000E+00 0. -1.
         24    1    1    2    0    0  0.25159033207E+02  0.36292047829E+02 -0.80686578792E+02  0.12217867915E+03  0.80419002446E+02 0. -1.
          1    1    1    2  501    0 -0.48575744992E+02 -0.36449629535E+02 -0.60226511727E+02  0.85530177187E+02  0.00000000000E+00 0. -1.
         -2    1    1    2    0  502  0.23416711785E+02  0.15758170595E+00  0.73237913088E+01  0.24535793078E+02  0.00000000000E+00 0.  1.
<mgrwt>
<rscale>  2 0.87946746E+02</rscale>
<asrwt>0</asrwt>
<pdfrwt beam="1">  1       21 0.75888732E-02 0.87946746E+02</pdfrwt>
<pdfrwt beam="2">  1       21 0.28141073E-01 0.87946746E+02</pdfrwt>
<totfact> 0.15661609E+06</totfact>
</mgrwt>
</event>
<event>
 5    1  0.1854763E+000  0.9466596E+02  0.7546771E-02  0.1291930E+00
         21   -1    0    0  503  502  0.00000000000E+00  0.00000000000E+00  0.83628562454E+03  0.83628562454E+03  0.00000000000E+00 0. -1.
         21   -1    0    0  501  503 -0.00000000000E+00 -0.00000000000E+00 -0.11614023199E+02  0.11614023199E+02  0.00000000000E+00 0.  1.
         24    1    1    2    0    0  0.56462758733E+01  0.29115557383E+02  0.26236146423E+03  0.27600788029E+03  0.80419002446E+02 0.  0.
          1    1    1    2  501    0 -0.52247362654E+02 -0.97282448666E+01  0.31967117570E+03  0.32405876971E+03  0.00000000000E+00 0. -1.
         -2    1    1    2    0  502  0.46601086780E+02 -0.19387312516E+02  0.24263896141E+03  0.24783299775E+03  0.00000000000E+00 0.  1.
<mgrwt>
<rscale>  2 0.94665963E+02</rscale>
<asrwt>0</asrwt>
<pdfrwt beam="1">  1       21 0.12865928E+00 0.94665963E+02</pdfrwt>
<pdfrwt beam="2">  1       21 0.17867735E-02 0.94665963E+02</pdfrwt>
<totfact> 0.66713255E+05</totfact>
</mgrwt>
</event>
<event>
 5    1  0.1854763E+000  0.9763664E+02  0.7546771E-02  0.1285346E+00
         21   -1    0    0  501  502  0.00000000000E+00  0.00000000000E+00  0.55887123491E+02  0.55887123491E+02  0.00000000000E+00 0. -1.
         21   -1    0    0  502  503 -0.00000000000E+00 -0.00000000000E+00 -0.43404026455E+03  0.43404026455E+03  0.00000000000E+00 0.  1.
         24    1    1    2    0    0  0.74475113820E+02 -0.26992766464E+01 -0.30439015588E+03  0.32353425108E+03  0.80419002446E+02 0.  0.
          1    1    1    2  501    0 -0.50314909644E+02 -0.18382593560E+02  0.27471935576E+02  0.60201471101E+02  0.00000000000E+00 0. -1.
         -2    1    1    2    0  503 -0.24160204176E+02  0.21081870207E+02 -0.10123492076E+03  0.10619166587E+03  0.00000000000E+00 0.  1.
<mgrwt>
<rscale>  2 0.97636638E+02</rscale>
<asrwt>0</asrwt>
<pdfrwt beam="1">  1       21 0.85980190E-02 0.97636638E+02</pdfrwt>
<pdfrwt beam="2">  1       21 0.66775425E-01 0.97636638E+02</pdfrwt>
<totfact> 0.22321793E+05</totfact>
</mgrwt>
</event>
<event>
 5    1  0.1854763E+000  0.1015954E+03  0.7546771E-02  0.1276976E+00
         21   -1    0    0  501  502  0.00000000000E+00  0.00000000000E+00  0.71295339092E+02  0.71295339092E+02  0.00000000000E+00 0. -1.
         21   -1    0    0  502  503 -0.00000000000E+00 -0.00000000000E+00 -0.21888428715E+03  0.21888428715E+03  0.00000000000E+00 0.  1.
         24    1    1    2    0    0  0.12141577247E+02 -0.62767580576E+02 -0.33818971170E+02  0.10815787459E+03  0.80419002446E+02 0.  1.
          1    1    1    2  501    0 -0.21175636641E+02 -0.12538999710E+02  0.17650590368E+02  0.30284937530E+02  0.00000000000E+00 0. -1.
         -2    1    1    2    0  503  0.90340593943E+01  0.75306580286E+02 -0.13142056725E+03  0.15173681413E+03  0.00000000000E+00 0.  1.
<mgrwt>
<rscale>  2 0.10159539E+03</rscale>
<asrwt>0</asrwt>
<pdfrwt beam="1">  1       21 0.10968514E-01 0.10159539E+03</pdfrwt>
<pdfrwt beam="2">  1       21 0.33674506E-01 0.10159539E+03</pdfrwt>
<totfact> 0.58936900E+05</totfact>
</mgrwt>
</event>
<event>
 5    1  0.1854763E+000  0.7582363E+02  0.7546771E-02  0.1341339E+00
         21   -1    0    0  503  502  0.00000000000E+00  0.00000000000E+00  0.48219506183E+03  0.48219506183E+03  0.00000000000E+00 0. -1.
         21   -1    0    0  501  503 -0.00000000000E+00 -0.00000000000E+00 -0.36692722682E+02  0.36692722682E+02  0.00000000000E+00 0. -1.
         24    1    1    2    0    0  0.24336291006E+02 -0.77137831950E+01  0.21730557575E+03  0.23311088931E+03  0.80419002446E+02 0. -1.
          1    1    1    2  501    0  0.40727522151E+01  0.30552139783E+02 -0.18800999684E+02  0.36103990708E+02  0.00000000000E+00 0. -1.
         -2    1    1    2    0  502 -0.28409043221E+02 -0.22838356588E+02  0.24699776308E+03  0.24967290449E+03  0.00000000000E+00 0.  1.
<mgrwt>
<rscale>  2 0.75823630E+02</rscale>
<asrwt>0</asrwt>
<pdfrwt beam="1">  1       21 0.74183852E-01 0.75823630E+02</pdfrwt>
<pdfrwt beam="2">  1       21 0.56450346E-02 0.75823630E+02</pdfrwt>
<totfact> 0.36438647E+05</totfact>
</mgrwt>
</event>
<event>
 5    1  0.2584532E+000  0.1235854E+03  0.7546771E-02  0.1237297E+00
         21   -1    0    0  501  502  0.00000000000E+00  0.00000000000E+00  0.15129574454E+03  0.15129574454E+03  0.00000000000E+00 0. -1.
         21   -1    0    0  502  503 -0.00000000000E+00 -0.00000000000E+00 -0.33731099667E+03  0.33731099667E+03  0.00000000000E+00 0.  1.
         24    1    1    2    0    0  0.31257777089E+02  0.55249836655E+02  0.55572824067E+02  0.11655534225E+03  0.80419002446E+02 0.  0.
          1    1    1    2  501    0  0.32432071380E+00  0.42238900753E+02  0.48546749559E+02  0.64350732813E+02  0.00000000000E+00 0. -1.
         -2    1    1    2    0  503 -0.31582097803E+02 -0.97488737408E+02 -0.29013482576E+03  0.30770066613E+03  0.00000000000E+00 0.  1.
<mgrwt>
<rscale>  2 0.12358541E+03</rscale>
<asrwt>0</asrwt>
<pdfrwt beam="1">  1       21 0.23276269E-01 0.12358541E+03</pdfrwt>
<pdfrwt beam="2">  1       21 0.51893998E-01 0.12358541E+03</pdfrwt>
<totfact> 0.63180243E+04</totfact>
</mgrwt>
</event>
<event>
 5    1  0.1854763E+000  0.7717201E+02  0.7546771E-02  0.1337274E+00
         21   -1    0    0  503  502  0.00000000000E+00  0.00000000000E+00  0.19466597632E+04  0.19466597632E+04  0.00000000000E+00 0.  1.
         21   -1    0    0  501  503 -0.00000000000E+00 -0.00000000000E+00 -0.32348838188E+01  0.32348838188E+01  0.00000000000E+00 0. -1.
         24    1    1    2    0    0 -0.28666081121E+02 -0.40612497746E+02  0.10949376634E+04  0.10990117478E+04  0.80419002446E+02 0. -1.
          1    1    1    2  501    0  0.30233826219E+02  0.14305269353E+02  0.32102437806E+03  0.32276210479E+03  0.00000000000E+00 0. -1.
         -2    1    1    2    0  502 -0.15677450974E+01  0.26307228393E+02  0.52746283795E+03  0.52812079443E+03  0.00000000000E+00 0.  1.
<mgrwt>
<rscale>  2 0.77172008E+02</rscale>
<asrwt>0</asrwt>
<pdfrwt beam="1">  1       21 0.29948518E+00 0.77172008E+02</pdfrwt>
<pdfrwt beam="2">  1       21 0.49767599E-03 0.77172008E+02</pdfrwt>
<totfact> 0.42854743E+05</totfact>
</mgrwt>
</event>
<event>
 5    1  0.1854763E+000  0.6840876E+02  0.7546771E-02  0.1365589E+00
         21   -1    0    0  503  502  0.00000000000E+00  0.00000000000E+00  0.13365558363E+03  0.13365558363E+03  0.00000000000E+00 0.  1.
         21   -1    0    0  501  503 -0.00000000000E+00 -0.00000000000E+00 -0.43903948813E+02  0.43903948813E+02  0.00000000000E+00 0.  1.
         24    1    1    2    0    0  0.11101277031E+02  0.41276097928E+02  0.33076013737E+02  0.96892689358E+02  0.80419002446E+02 0.  1.
          1    1    1    2  501    0 -0.13942963259E+02 -0.20601749034E+02  0.56093784075E+01  0.25501047309E+02  0.00000000000E+00 0. -1.
         -2    1    1    2    0  502  0.28416862285E+01 -0.20674348894E+02  0.51066242669E+02  0.55165795772E+02  0.00000000000E+00 0.  1.
<mgrwt>
<rscale>  2 0.68408764E+02</rscale>
<asrwt>0</asrwt>
<pdfrwt beam="1">  1       21 0.20562397E-01 0.68408764E+02</pdfrwt>
<pdfrwt beam="2">  1       21 0.67544537E-02 0.68408764E+02</pdfrwt>
<totfact> 0.33719164E+06</totfact>
</mgrwt>
</event>
<event>
 5    1  0.1854763E+000  0.7698192E+02  0.7546771E-02  0.1337841E+00
         21   -1    0    0  503  502  0.00000000000E+00  0.00000000000E+00  0.43897826047E+02  0.43897826047E+02  0.00000000000E+00 0.  1.
         21   -1    0    0  501  503 -0.00000000000E+00 -0.00000000000E+00 -0.15996306870E+03  0.15996306870E+03  0.00000000000E+00 0. -1.
         24    1    1    2    0    0  0.45258584980E+02 -0.28492679612E+02 -0.48815818818E+02  0.10821447420E+03  0.80419002446E+02 0.  1.
          1    1    1    2  501    0 -0.17843268379E+02  0.23520623766E+02 -0.59978595164E+02  0.66850832804E+02  0.00000000000E+00 0. -1.
         -2    1    1    2    0  502 -0.27415316601E+02  0.49720558463E+01 -0.72708286693E+01  0.28795587738E+02  0.00000000000E+00 0.  1.
<mgrwt>
<rscale>  2 0.76981923E+02</rscale>
<asrwt>0</asrwt>
<pdfrwt beam="1">  1       21 0.67535116E-02 0.76981923E+02</pdfrwt>
<pdfrwt beam="2">  1       21 0.24609703E-01 0.76981923E+02</pdfrwt>
<totfact> 0.24404312E+06</totfact>
</mgrwt>
</event>
<event>
 5    1  0.1854763E+000  0.8961935E+02  0.7546771E-02  0.1303776E+00
         21   -1    0    0  503  502  0.00000000000E+00  0.00000000000E+00  0.25338664887E+03  0.25338664887E+03  0.00000000000E+00 0. -1.
         21   -1    0    0  501  503 -0.00000000000E+00 -0.00000000000E+00 -0.33289896472E+02  0.33289896472E+02  0.00000000000E+00 0.  1.
         24    1    1    2    0    0  0.36512301406E+02 -0.22207806583E+02  0.12592378786E+03  0.15540383242E+03  0.80419002446E+02 0. -1.
          1    1    1    2  501    0 -0.31935373949E+02 -0.25113875009E+02  0.26270197711E+02  0.48380761828E+02  0.00000000000E+00 0. -1.
         -2    1    1    2    0  502 -0.45769274567E+01  0.47321681592E+02  0.67902766824E+02  0.82891951092E+02  0.00000000000E+00 0.  1.
<mgrwt>
<rscale>  2 0.89619353E+02</rscale>
<asrwt>0</asrwt>
<pdfrwt beam="1">  1       21 0.38982560E-01 0.89619353E+02</pdfrwt>
<pdfrwt beam="2">  1       21 0.51215227E-02 0.89619353E+02</pdfrwt>
<totfact> 0.16188543E+06</totfact>
</mgrwt>
</event>
<event>
 5    1  0.1854763E+000  0.7741278E+02  0.7546771E-02  0.1336558E+00
         21   -1    0    0  503  502  0.00000000000E+00  0.00000000000E+00  0.73390626518E+02  0.73390626518E+02  0.00000000000E+00 0.  1.
         21   -1    0    0  501  503 -0.00000000000E+00 -0.00000000000E+00 -0.22331163749E+03  0.22331163749E+03  0.00000000000E+00 0. -1.
         24    1    1    2    0    0 -0.66153487427E+00  0.36298350131E+02  0.18702919221E+02  0.90194362309E+02  0.80419002446E+02 0.  1.
          1    1    1    2  501    0  0.25885099239E+02 -0.31744390445E+02 -0.17529967592E+03  0.18002144612E+03  0.00000000000E+00 0. -1.
         -2    1    1    2    0  502 -0.25223564365E+02 -0.45539596866E+01  0.66757457232E+01  0.26486455578E+02  0.00000000000E+00 0.  1.
<mgrwt>
<rscale>  2 0.77412780E+02</rscale>
<asrwt>0</asrwt>
<pdfrwt beam="1">  1       21 0.11290866E-01 0.77412780E+02</pdfrwt>
<pdfrwt beam="2">  1       21 0.34355636E-01 0.77412780E+02</pdfrwt>
<totfact> 0.53861977E+05</totfact>
</mgrwt>
</event>
<event>
 5    1  0.1854763E+000  0.8205068E+02  0.7546771E-02  0.1323331E+00
         21   -1    0    0  501  502  0.00000000000E+00  0.00000000000E+00  0.27087609875E+03  0.27087609875E+03  0.00000000000E+00 0. -1.
         21   -1    0    0  502  503 -0.00000000000E+00 -0.00000000000E+00 -0.11741298252E+03  0.11741298252E+03  0.00000000000E+00 0. -1.
         24    1    1    2    0    0 -0.60151326576E+02 -0.16338407658E+02 -0.69027617948E+02  0.12295183467E+03  0.80419002446E+02 0. -1.
          1    1    1    2  501    0  0.24429186513E+02  0.57543125396E+01  0.22648069308E+03  0.22786707003E+03  0.00000000000E+00 0. -1.
         -2    1    1    2    0  503  0.35722140063E+02  0.10584095118E+02 -0.39899588965E+01  0.37470176569E+02  0.00000000000E+00 0.  1.
<mgrwt>
<rscale>  2 0.82050675E+02</rscale>
<asrwt>0</asrwt>
<pdfrwt beam="1">  1       21 0.41673246E-01 0.82050675E+02</pdfrwt>
<pdfrwt beam="2">  1       21 0.18063536E-01 0.82050675E+02</pdfrwt>
<totfact> 0.16035875E+05</totfact>
</mgrwt>
</event>
<event>
 5    1  0.1854763E+000  0.6746507E+02  0.7546771E-02  0.1368932E+00
         21   -1    0    0  501  502  0.00000000000E+00  0.00000000000E+00  0.56676959742E+03  0.56676959742E+03  0.00000000000E+00 0.  1.
         21   -1    0    0  502  503 -0.00000000000E+00 -0.00000000000E+00 -0.91331405975E+01  0.91331405975E+01  0.00000000000E+00 0. -1.
         24    1    1    2    0    0  0.49807526634E+01 -0.43212843847E+02  0.44087310016E+03  0.45025377752E+03  0.80419002446E+02 0.  1.
          1    1    1    2  501    0 -0.28709882813E+01  0.23287660243E+02  0.84260516884E+02  0.87466521589E+02  0.00000000000E+00 0. -1.
         -2    1    1    2    0  503 -0.21097643821E+01  0.19925183604E+02  0.32502839771E+02  0.38182438902E+02  0.00000000000E+00 0.  1.
<mgrwt>
<rscale>  2 0.67465072E+02</rscale>
<asrwt>0</asrwt>
<pdfrwt beam="1">  1       21 0.87195295E-01 0.67465072E+02</pdfrwt>
<pdfrwt beam="2">  1       21 0.14050990E-02 0.67465072E+02</pdfrwt>
<totfact> 0.24041312E+06</totfact>
</mgrwt>
</event>
<event>
 5    1  0.1854763E+000  0.1304025E+03  0.7546771E-02  0.1226860E+00
         21   -1    0    0  501  502  0.00000000000E+00  0.00000000000E+00  0.66154134851E+02  0.66154134851E+02  0.00000000000E+00 0. -1.
         21   -1    0    0  502  503 -0.00000000000E+00 -0.00000000000E+00 -0.70319863353E+03  0.70319863353E+03  0.00000000000E+00 0.  1.
         24    1    1    2    0    0  0.95661211910E+02  0.67485507434E+02 -0.10563114311E+03  0.17700428110E+03  0.80419002446E+02 0.  0.
          1    1    1    2  501    0 -0.58606670663E+02 -0.52909101444E+02 -0.22804997951E+02  0.82183835353E+02  0.00000000000E+00 0. -1.
         -2    1    1    2    0  503 -0.37054541247E+02 -0.14576405990E+02 -0.50860835762E+03  0.51016465193E+03  0.00000000000E+00 0.  1.
<mgrwt>
<rscale>  2 0.13040254E+03</rscale>
<asrwt>0</asrwt>
<pdfrwt beam="1">  1       21 0.10177559E-01 0.13040254E+03</pdfrwt>
<pdfrwt beam="2">  1       21 0.10818441E+00 0.13040254E+03</pdfrwt>
<totfact> 0.55256720E+04</totfact>
</mgrwt>
</event>
<event>
 5    1  0.1854763E+000  0.6944700E+02  0.7546771E-02  0.1361984E+00
         21   -1    0    0  503  502  0.00000000000E+00  0.00000000000E+00  0.10089480034E+02  0.10089480034E+02  0.00000000000E+00 0.  1.
         21   -1    0    0  501  503 -0.00000000000E+00 -0.00000000000E+00 -0.48742245078E+03  0.48742245078E+03  0.00000000000E+00 0. -1.
         24    1    1    2    0    0 -0.42125726491E+01 -0.19287107148E+02 -0.25493206242E+03  0.26804348654E+03  0.80419002446E+02 0.  1.
          1    1    1    2  501    0  0.24291204705E+02 -0.47668266177E+01 -0.84409225901E+02  0.87964212491E+02  0.00000000000E+00 0. -1.
         -2    1    1    2    0  502 -0.20078632056E+02  0.24053933765E+02 -0.13799168242E+03  0.14150423178E+03  0.00000000000E+00 0.  1.
<mgrwt>
<rscale>  2 0.69447005E+02</rscale>
<asrwt>0</asrwt>
<pdfrwt beam="1">  1       21 0.15522275E-02 0.69447005E+02</pdfrwt>
<pdfrwt beam="2">  1       21 0.74988081E-01 0.69447005E+02</pdfrwt>
<totfact> 0.28659950E+06</totfact>
</mgrwt>
</event>
<event>
 5    1  0.1854763E+000  0.9520735E+02  0.7546771E-02  0.1290710E+00
         21   -1    0    0  503  502  0.00000000000E+00  0.00000000000E+00  0.20490048270E+03  0.20490048270E+03  0.00000000000E+00 0.  1.
         21   -1    0    0  501  503 -0.00000000000E+00 -0.00000000000E+00 -0.76411305184E+02  0.76411305184E+02  0.00000000000E+00 0.  1.
         24    1    1    2    0    0  0.53200290576E+02  0.39073633304E+01  0.19738888518E+01  0.96522798329E+02  0.80419002446E+02 0.  1.
          1    1    1    2  501    0 -0.22272858150E+02 -0.40365765004E+02 -0.35261884107E+01  0.46237530203E+02  0.00000000000E+00 0. -1.
         -2    1    1    2    0  502 -0.30927432427E+02  0.36458401674E+02  0.13004147707E+03  0.13855145935E+03  0.00000000000E+00 0.  1.
<mgrwt>
<rscale>  2 0.95207353E+02</rscale>
<asrwt>0</asrwt>
<pdfrwt beam="1">  1       21 0.31523151E-01 0.95207353E+02</pdfrwt>
<pdfrwt beam="2">  1       21 0.11755585E-01 0.95207353E+02</pdfrwt>
<totfact> 0.59299960E+05</totfact>
</mgrwt>
</event>
<event>
 5    1  0.1854763E+000  0.8048230E+02  0.7546771E-02  0.1327688E+00
         21   -1    0    0  501  502  0.00000000000E+00  0.00000000000E+00  0.27135997403E+02  0.27135997403E+02  0.00000000000E+00 0. -1.
         21   -1    0    0  502  503 -0.00000000000E+00 -0.00000000000E+00 -0.37177891014E+03  0.37177891014E+03  0.00000000000E+00 0.  1.
         24    1    1    2    0    0  0.92774204671E+01 -0.16166057544E+02 -0.13045654462E+03  0.15438114501E+03  0.80419002446E+02 0.  1.
          1    1    1    2  501    0  0.33589185750E+02  0.38258704438E+01 -0.96031149087E+01  0.35143854369E+02  0.00000000000E+00 0. -1.
         -2    1    1    2    0  503 -0.42866606217E+02  0.12340187100E+02 -0.20458325321E+03  0.20938990816E+03  0.00000000000E+00 0.  1.
<mgrwt>
<rscale>  2 0.80482299E+02</rscale>
<asrwt>0</asrwt>
<pdfrwt beam="1">  1       21 0.41747690E-02 0.80482299E+02</pdfrwt>
<pdfrwt beam="2">  1       21 0.57196753E-01 0.80482299E+02</pdfrwt>
<totfact> 0.10427664E+06</totfact>
</mgrwt>
</event>
<event>
 5    1  0.1854763E+000  0.6948713E+02  0.7546771E-02  0.1361846E+00
         21   -1    0    0  503  502  0.00000000000E+00  0.00000000000E+00  0.11280681126E+02  0.11280681126E+02  0.00000000000E+00 0. -1.
         21   -1    0    0  501  503 -0.00000000000E+00 -0.00000000000E+00 -0.60556424833E+03  0.60556424833E+03  0.00000000000E+00 0.  1.
         24    1    1    2    0    0  0.40218957376E+02  0.14380625285E+02 -0.45532907408E+03  0.46434485953E+03  0.80419002446E+02 0.  1.
          1    1    1    2  501    0 -0.14432275292E+02 -0.16644576665E+02 -0.11545681238E+03  0.11753981465E+03  0.00000000000E+00 0. -1.
         -2    1    1    2    0  502 -0.25786682084E+02  0.22639513795E+01 -0.23497680744E+02  0.34960255278E+02  0.00000000000E+00 0.  1.
<mgrwt>
<rscale>  2 0.69487133E+02</rscale>
<asrwt>0</asrwt>
<pdfrwt beam="1">  1       21 0.17354891E-02 0.69487133E+02</pdfrwt>
<pdfrwt beam="2">  1       21 0.93163744E-01 0.69487133E+02</pdfrwt>
<totfact> 0.14880975E+06</totfact>
</mgrwt>
</event>
<event>
 5    1  0.1854763E+000  0.7029889E+02  0.7546771E-02  0.1359080E+00
         21   -1    0    0  501  502  0.00000000000E+00  0.00000000000E+00  0.83922242550E+03  0.83922242550E+03  0.00000000000E+00 0. -1.
         21   -1    0    0  502  503 -0.00000000000E+00 -0.00000000000E+00 -0.61472401163E+01  0.61472401163E+01  0.00000000000E+00 0.  1.
         24    1    1    2    0    0  0.93566222013E+01  0.14697669743E+01  0.39183168391E+03  0.40011122336E+03  0.80419002446E+02 0.  1.
          1    1    1    2  501    0 -0.30986278924E+02 -0.14669990599E+02  0.26137756955E+03  0.26361637272E+03  0.00000000000E+00 0. -1.
         -2    1    1    2    0  503  0.21629656723E+02  0.13200223625E+02  0.17986593193E+03  0.18164206953E+03  0.00000000000E+00 0.  1.
<mgrwt>
<rscale>  2 0.70298889E+02</rscale>
<asrwt>0</asrwt>
<pdfrwt beam="1">  1       21 0.12911105E+00 0.70298889E+02</pdfrwt>
<pdfrwt beam="2">  1       21 0.94572991E-03 0.70298889E+02</pdfrwt>
<totfact> 0.17954297E+06</totfact>
</mgrwt>
</event>
<event>
 5    1  0.1854763E+000  0.1099155E+03  0.7546771E-02  0.1260727E+00
         21   -1    0    0  501  502  0.00000000000E+00  0.00000000000E+00  0.15676595025E+03  0.15676595025E+03  0.00000000000E+00 0.  1.
         21   -1    0    0  502  503 -0.00000000000E+00 -0.00000000000E+00 -0.88310566191E+02  0.88310566191E+02  0.00000000000E+00 0.  1.
         24    1    1    2    0    0  0.31392801519E+02  0.76108895018E+02  0.83463414773E+00  0.11509120060E+03  0.80419002446E+02 0.  1.
          1    1    1    2  501    0 -0.38188506434E+02 -0.11649077454E+02  0.47640744069E+02  0.62158696291E+02  0.00000000000E+00 0. -1.
         -2    1    1    2    0  503  0.67957049143E+01 -0.64459817564E+02  0.19980005845E+02  0.67826619547E+02  0.00000000000E+00 0.  1.
<mgrwt>
<rscale>  2 0.10991547E+03</rscale>
<asrwt>0</asrwt>
<pdfrwt beam="1">  1       21 0.24117838E-01 0.10991547E+03</pdfrwt>
<pdfrwt beam="2">  1       21 0.13586241E-01 0.10991547E+03</pdfrwt>
<totfact> 0.76386015E+05</totfact>
</mgrwt>
</event>
<event>
 5    1  0.2178547E+000  0.7337612E+02  0.7546771E-02  0.1348975E+00
         21   -1    0    0  503  502  0.00000000000E+00  0.00000000000E+00  0.34189651976E+03  0.34189651976E+03  0.00000000000E+00 0. -1.
         21   -1    0    0  501  503 -0.00000000000E+00 -0.00000000000E+00 -0.13212842438E+03  0.13212842438E+03  0.00000000000E+00 0. -1.
         24    1    1    2    0    0  0.14725951303E+02 -0.55352996347E+01  0.19095868646E+03  0.20779780816E+03  0.80419002446E+02 0. -1.
          1    1    1    2  501    0 -0.33875492435E+02  0.21291072857E+02 -0.11934059246E+03  0.12586912163E+03  0.00000000000E+00 0. -1.
         -2    1    1    2    0  502  0.19149541132E+02 -0.15755773222E+02  0.13815000137E+03  0.14035801436E+03  0.00000000000E+00 0.  1.
<mgrwt>
<rscale>  2 0.73376117E+02</rscale>
<asrwt>0</asrwt>
<pdfrwt beam="1">  1       21 0.52599464E-01 0.73376117E+02</pdfrwt>
<pdfrwt beam="2">  1       21 0.20327450E-01 0.73376117E+02</pdfrwt>
<totfact> 0.81354078E+04</totfact>
</mgrwt>
</event>
<event>
 5    1  0.1854763E+000  0.1007785E+03  0.7546771E-02  0.1278667E+00
         21   -1    0    0  503  502  0.00000000000E+00  0.00000000000E+00  0.16611462912E+03  0.16611462912E+03  0.00000000000E+00 0.  1.
         21   -1    0    0  501  503 -0.00000000000E+00 -0.00000000000E+00 -0.89381787323E+02  0.89381787323E+02  0.00000000000E+00 0.  1.
         24    1    1    2    0    0  0.40242263848E+02  0.69097114616E+02 -0.16738158827E+02  0.11463521694E+03  0.80419002446E+02 0.  1.
          1    1    1    2  501    0 -0.33617274358E+02 -0.21083312201E+02  0.50159029689E+01  0.39997330801E+02  0.00000000000E+00 0. -1.
         -2    1    1    2    0  502 -0.66249894894E+01 -0.48013802415E+02  0.88455097658E+02  0.10086386870E+03  0.00000000000E+00 0.  1.
<mgrwt>
<rscale>  2 0.10077846E+03</rscale>
<asrwt>0</asrwt>
<pdfrwt beam="1">  1       21 0.25556097E-01 0.10077846E+03</pdfrwt>
<pdfrwt beam="2">  1       21 0.13751044E-01 0.10077846E+03</pdfrwt>
<totfact> 0.67020233E+05</totfact>
</mgrwt>
</event>
<event>
 5    1  0.1854763E+000  0.7863403E+02  0.7546771E-02  0.1332973E+00
         21   -1    0    0  503  502  0.00000000000E+00  0.00000000000E+00  0.31188350871E+02  0.31188350871E+02  0.00000000000E+00 0.  1.
         21   -1    0    0  501  503 -0.00000000000E+00 -0.00000000000E+00 -0.24063610971E+03  0.24063610971E+03  0.00000000000E+00 0.  1.
         24    1    1    2    0    0  0.38425424221E+02 -0.67242814401E+01 -0.14461699428E+03  0.17000888264E+03  0.80419002446E+02 0.  1.
          1    1    1    2  501    0 -0.84473774681E+01 -0.23708856430E+02 -0.51070635930E+02  0.56935734944E+02  0.00000000000E+00 0. -1.
         -2    1    1    2    0  502 -0.29978046753E+02  0.30433137870E+02 -0.13760128631E+02  0.44879843000E+02  0.00000000000E+00 0.  1.
<mgrwt>
<rscale>  2 0.78634030E+02</rscale>
<asrwt>0</asrwt>
<pdfrwt beam="1">  1       21 0.47982080E-02 0.78634030E+02</pdfrwt>
<pdfrwt beam="2">  1       21 0.37020939E-01 0.78634030E+02</pdfrwt>
<totfact> 0.19865596E+06</totfact>
</mgrwt>
</event>
<event>
 5    1  0.1854763E+000  0.7460376E+02  0.7546771E-02  0.1345102E+00
         21   -1    0    0  501  502  0.00000000000E+00  0.00000000000E+00  0.75351184876E+02  0.75351184876E+02  0.00000000000E+00 0.  1.
         21   -1    0    0  502  503 -0.00000000000E+00 -0.00000000000E+00 -0.26318088783E+03  0.26318088783E+03  0.00000000000E+00 0.  1.
         24    1    1    2    0    0 -0.41265455366E+02 -0.10047131505E+02  0.38186417392E+02  0.98636712666E+02  0.80419002446E+02 0.  1.
          1    1    1    2  501    0  0.17807258678E+02  0.24814814832E+02 -0.33260340410E+02  0.45156657770E+02  0.00000000000E+00 0. -1.
         -2    1    1    2    0  503  0.23458196688E+02 -0.14767683327E+02 -0.19275577994E+03  0.19473870227E+03  0.00000000000E+00 0.  1.
<mgrwt>
<rscale>  2 0.74603761E+02</rscale>
<asrwt>0</asrwt>
<pdfrwt beam="1">  1       21 0.11592490E-01 0.74603761E+02</pdfrwt>
<pdfrwt beam="2">  1       21 0.40489367E-01 0.74603761E+02</pdfrwt>
<totfact> 0.37343323E+05</totfact>
</mgrwt>
</event>
<event>
 5    1  0.1854763E+000  0.7684792E+02  0.7546771E-02  0.1338242E+00
         21   -1    0    0  501  502  0.00000000000E+00  0.00000000000E+00  0.21849106426E+03  0.21849106426E+03  0.00000000000E+00 0. -1.
         21   -1    0    0  502  503 -0.00000000000E+00 -0.00000000000E+00 -0.38990180184E+02  0.38990180184E+02  0.00000000000E+00 0.  1.
         24    1    1    2    0    0  0.38504775891E+02 -0.21510142495E+02  0.16314547487E+03  0.18716026801E+03  0.80419002446E+02 0. -1.
          1    1    1    2  501    0 -0.25668643669E+02 -0.10312011255E+02  0.22255585063E+02  0.35503914015E+02  0.00000000000E+00 0. -1.
         -2    1    1    2    0  503 -0.12836132222E+02  0.31822153750E+02 -0.59001758658E+01  0.34817062412E+02  0.00000000000E+00 0.  1.
<mgrwt>
<rscale>  2 0.76847918E+02</rscale>
<asrwt>0</asrwt>
<pdfrwt beam="1">  1       21 0.33614009E-01 0.76847918E+02</pdfrwt>
<pdfrwt beam="2">  1       21 0.59984894E-02 0.76847918E+02</pdfrwt>
<totfact> 0.16507573E+06</totfact>
</mgrwt>
</event>
<event>
 5    1  0.1854763E+000  0.1456238E+03  0.7546771E-02  0.1205956E+00
         21   -1    0    0  501  502  0.00000000000E+00  0.00000000000E+00  0.19165931589E+02  0.19165931589E+02  0.00000000000E+00 0. -1.
         21   -1    0    0  502  503 -0.00000000000E+00 -0.00000000000E+00 -0.15869819783E+04  0.15869819783E+04  0.00000000000E+00 0.  1.
         24    1    1    2    0    0 -0.12306485922E+03 -0.46112922380E+02 -0.79993833628E+03  0.81464097552E+03  0.80419002446E+02 0.  1.
          1    1    1    2  501    0  0.56568528613E+02  0.55979702403E+00 -0.74930594533E+02  0.93887729758E+02  0.00000000000E+00 0. -1.
         -2    1    1    2    0  503  0.66496330608E+02  0.45553125356E+02 -0.69294711585E+03  0.69761920456E+03  0.00000000000E+00 0.  1.
<mgrwt>
<rscale>  2 0.14562381E+03</rscale>
<asrwt>0</asrwt>
<pdfrwt beam="1">  1       21 0.29486040E-02 0.14562381E+03</pdfrwt>
<pdfrwt beam="2">  1       21 0.24415114E+00 0.14562381E+03</pdfrwt>
<totfact> 0.48719452E+04</totfact>
</mgrwt>
</event>
<event>
 5    1  0.1854763E+000  0.1560903E+03  0.7546771E-02  0.1193183E+00
         21   -1    0    0  503  502  0.00000000000E+00  0.00000000000E+00  0.38412709079E+03  0.38412709079E+03  0.00000000000E+00 0.  1.
         21   -1    0    0  501  503 -0.00000000000E+00 -0.00000000000E+00 -0.12245397182E+03  0.12245397182E+03  0.00000000000E+00 0. -1.
         24    1    1    2    0    0 -0.23324311364E+02  0.96736213641E+02  0.61590902446E+02  0.14199497790E+03  0.80419002446E+02 0. -1.
          1    1    1    2  501    0  0.85486708926E+02 -0.85806496051E+02 -0.31010288394E+02  0.12502947714E+03  0.00000000000E+00 0. -1.
         -2    1    1    2    0  502 -0.62162397562E+02 -0.10929717590E+02  0.23109250492E+03  0.23955660757E+03  0.00000000000E+00 0.  1.
<mgrwt>
<rscale>  2 0.15609033E+03</rscale>
<asrwt>0</asrwt>
<pdfrwt beam="1">  1       21 0.59096475E-01 0.15609033E+03</pdfrwt>
<pdfrwt beam="2">  1       21 0.18839073E-01 0.15609033E+03</pdfrwt>
<totfact> 0.70208332E+04</totfact>
</mgrwt>
</event>
<event>
 5    1  0.1854763E+000  0.1226040E+03  0.7546771E-02  0.1238862E+00
         21   -1    0    0  501  502  0.00000000000E+00  0.00000000000E+00  0.19213809470E+03  0.19213809470E+03  0.00000000000E+00 0. -1.
         21   -1    0    0  502  503 -0.00000000000E+00 -0.00000000000E+00 -0.15852741502E+03  0.15852741502E+03  0.00000000000E+00 0.  1.
         24    1    1    2    0    0 -0.62238179617E+02 -0.46638126061E+02  0.68670608559E+02  0.13126909095E+03  0.80419002446E+02 0. -1.
          1    1    1    2  501    0  0.77869387032E+02  0.70344122936E+02  0.59522448331E+02  0.12064352002E+03  0.00000000000E+00 0. -1.
         -2    1    1    2    0  503 -0.15631207415E+02 -0.23705996875E+02 -0.94582377210E+02  0.98752898752E+02  0.00000000000E+00 0.  1.
<mgrwt>
<rscale>  2 0.12260397E+03</rscale>
<asrwt>0</asrwt>
<pdfrwt beam="1">  1       21 0.29559707E-01 0.12260397E+03</pdfrwt>
<pdfrwt beam="2">  1       21 0.24388833E-01 0.12260397E+03</pdfrwt>
<totfact> 0.17774174E+05</totfact>
</mgrwt>
</event>
<event>
 5    1  0.1854763E+000  0.1513539E+03  0.7546771E-02  0.1198819E+00
         21   -1    0    0  501  502  0.00000000000E+00  0.00000000000E+00  0.40062595563E+02  0.40062595563E+02  0.00000000000E+00 0. -1.
         21   -1    0    0  502  503 -0.00000000000E+00 -0.00000000000E+00 -0.75872542502E+03  0.75872542502E+03  0.00000000000E+00 0.  1.
         24    1    1    2    0    0 -0.16444267761E+02  0.98732773179E+02 -0.46495582694E+03  0.48235848848E+03  0.80419002446E+02 0.  1.
          1    1    1    2  501    0 -0.11584736350E+02  0.35417354220E+02 -0.13044049177E+02  0.39480910770E+02  0.00000000000E+00 0. -1.
         -2    1    1    2    0  503  0.28029004111E+02 -0.13415012740E+03 -0.24066295334E+03  0.27694862134E+03  0.00000000000E+00 0.  1.
<mgrwt>
<rscale>  2 0.15135393E+03</rscale>
<asrwt>0</asrwt>
<pdfrwt beam="1">  1       21 0.61634767E-02 0.15135393E+03</pdfrwt>
<pdfrwt beam="2">  1       21 0.11672698E+00 0.15135393E+03</pdfrwt>
<totfact> 0.10836030E+05</totfact>
</mgrwt>
</event>
<event>
 5    1  0.1854763E+000  0.9244769E+02  0.7546771E-02  0.1297030E+00
         21   -1    0    0  501  502  0.00000000000E+00  0.00000000000E+00  0.35167717741E+02  0.35167717741E+02  0.00000000000E+00 0.  1.
         21   -1    0    0  502  503 -0.00000000000E+00 -0.00000000000E+00 -0.35657627086E+03  0.35657627086E+03  0.00000000000E+00 0.  1.
         24    1    1    2    0    0 -0.63371563453E+02  0.24893622085E+02 -0.24191794544E+03  0.26386958096E+03  0.80419002446E+02 0.  1.
          1    1    1    2  501    0  0.58186025651E+02 -0.43624240654E+01 -0.15358680091E+02  0.60336832689E+02  0.00000000000E+00 0. -1.
         -2    1    1    2    0  503  0.51855378020E+01 -0.20531198020E+02 -0.64131927587E+02  0.67537574952E+02  0.00000000000E+00 0.  1.
<mgrwt>
<rscale>  2 0.92447692E+02</rscale>
<asrwt>0</asrwt>
<pdfrwt beam="1">  1       21 0.54104180E-02 0.92447692E+02</pdfrwt>
<pdfrwt beam="2">  1       21 0.54857889E-01 0.92447692E+02</pdfrwt>
<totfact> 0.74119912E+05</totfact>
</mgrwt>
</event>
<event>
 5    1  0.1854763E+000  0.1201543E+03  0.7546771E-02  0.1242843E+00
         21   -1    0    0  503  502  0.00000000000E+00  0.00000000000E+00  0.73823917205E+03  0.73823917205E+03  0.00000000000E+00 0. -1.
         21   -1    0    0  501  503 -0.00000000000E+00 -0.00000000000E+00 -0.20783911284E+02  0.20783911284E+02  0.00000000000E+00 0.  1.
         24    1    1    2    0    0  0.74482352478E+02 -0.62718180558E+02  0.30020680443E+03  0.32568778360E+03  0.80419002446E+02 0.  1.
          1    1    1    2  501    0 -0.82261886479E+02  0.42996197811E+02  0.29487933530E+03  0.30914319236E+03  0.00000000000E+00 0. -1.
         -2    1    1    2    0  502  0.77795340013E+01  0.19721982747E+02  0.12236912104E+03  0.12419210738E+03  0.00000000000E+00 0.  1.
<mgrwt>
<rscale>  2 0.12015432E+03</rscale>
<asrwt>0</asrwt>
<pdfrwt beam="1">  1       21 0.11357524E+00 0.12015432E+03</pdfrwt>
<pdfrwt beam="2">  1       21 0.31975254E-02 0.12015432E+03</pdfrwt>
<totfact> 0.35045612E+05</totfact>
</mgrwt>
</event>
<event>
 5    1  0.1854763E+000  0.1075531E+03  0.7546771E-02  0.1265170E+00
         21   -1    0    0  501  502  0.00000000000E+00  0.00000000000E+00  0.70018416560E+02  0.70018416560E+02  0.00000000000E+00 0. -1.
         21   -1    0    0  502  503 -0.00000000000E+00 -0.00000000000E+00 -0.99480021600E+03  0.99480021600E+03  0.00000000000E+00 0.  1.
         24    1    1    2    0    0  0.89089863348E+02 -0.24189072255E+02 -0.25562028129E+03  0.28342734365E+03  0.80419002446E+02 0.  1.
          1    1    1    2  501    0 -0.36637299173E+02  0.58057252830E+01  0.48790885551E+02  0.61290689746E+02  0.00000000000E+00 0. -1.
         -2    1    1    2    0  503 -0.52452564176E+02  0.18383346972E+02 -0.71795240370E+03  0.72010059916E+03  0.00000000000E+00 0.  1.
<mgrwt>
<rscale>  2 0.10755306E+03</rscale>
<asrwt>0</asrwt>
<pdfrwt beam="1">  1       21 0.10772065E-01 0.10755306E+03</pdfrwt>
<pdfrwt beam="2">  1       21 0.15304618E+00 0.10755306E+03</pdfrwt>
<totfact> 0.21564857E+04</totfact>
</mgrwt>
</event>
<event>
 5    1  0.1854763E+000  0.1050670E+03  0.7546771E-02  0.1269988E+00
         21   -1    0    0  503  502  0.00000000000E+00  0.00000000000E+00  0.18315944247E+04  0.18315944247E+04  0.00000000000E+00 0.  1.
         21   -1    0    0  501  503 -0.00000000000E+00 -0.00000000000E+00 -0.76208044957E+01  0.76208044957E+01  0.00000000000E+00 0. -1.
         24    1    1    2    0    0  0.12697121332E+01  0.39497266360E+02  0.62448372919E+03  0.63087937848E+03  0.80419002446E+02 0.  1.
          1    1    1    2  501    0  0.56151636389E+02 -0.23912958377E+02  0.26429704061E+03  0.27125221017E+03  0.00000000000E+00 0. -1.
         -2    1    1    2    0  502 -0.57421348523E+02 -0.15584307982E+02  0.93519285038E+03  0.93708364052E+03  0.00000000000E+00 0.  1.
<mgrwt>
<rscale>  2 0.10506697E+03</rscale>
<asrwt>0</asrwt>
<pdfrwt beam="1">  1       21 0.28178341E+00 0.10506697E+03</pdfrwt>
<pdfrwt beam="2">  1       21 0.11724329E-02 0.10506697E+03</pdfrwt>
<totfact> 0.13693216E+05</totfact>
</mgrwt>
</event>
<event>
 5    1  0.1854763E+000  0.1556150E+03  0.7546771E-02  0.1193738E+00
         21   -1    0    0  501  502  0.00000000000E+00  0.00000000000E+00  0.15014029625E+03  0.15014029625E+03  0.00000000000E+00 0.  1.
         21   -1    0    0  502  503 -0.00000000000E+00 -0.00000000000E+00 -0.29455484414E+03  0.29455484414E+03  0.00000000000E+00 0.  1.
         24    1    1    2    0    0  0.39701894048E+01 -0.13154536051E+03 -0.20310246016E+02  0.15556241938E+03  0.80419002446E+02 0.  1.
          1    1    1    2  501    0 -0.43642961548E+02  0.50366411052E+02  0.56380742480E+02  0.87294166916E+02  0.00000000000E+00 0. -1.
         -2    1    1    2    0  503  0.39672772143E+02  0.81178949460E+02 -0.18048504435E+03  0.20183855410E+03  0.00000000000E+00 0.  1.
<mgrwt>
<rscale>  2 0.15561495E+03</rscale>
<asrwt>0</asrwt>
<pdfrwt beam="1">  1       21 0.23098507E-01 0.15561495E+03</pdfrwt>
<pdfrwt beam="2">  1       21 0.45316129E-01 0.15561495E+03</pdfrwt>
<totfact> 0.83513244E+04</totfact>
</mgrwt>
</event>
<event>
 5    1  0.1854763E+000  0.9839526E+02  0.7546771E-02  0.1283707E+00
         21   -1    0    0  503  502  0.00000000000E+00  0.00000000000E+00  0.21590665847E+02  0.21590665847E+02  0.00000000000E+00 0. -1.
         21   -1    0    0  501  503 -0.00000000000E+00 -0.00000000000E+00 -0.56963566360E+03  0.56963566360E+03  0.00000000000E+00 0.  1.
         24    1    1    2    0    0 -0.74729433162E+02  0.36430168477E-01 -0.17259864670E+03  0.20455316743E+03  0.80419002446E+02 0. -1.
          1    1    1    2  501    0  0.31625276244E+02  0.22073025520E+02 -0.23410340263E+03  0.23725888745E+03  0.00000000000E+00 0. -1.
         -2    1    1    2    0  502  0.43104156918E+02 -0.22109455689E+02 -0.14134294842E+03  0.14941427456E+03  0.00000000000E+00 0.  1.
<mgrwt>
<rscale>  2 0.98395263E+02</rscale>
<asrwt>0</asrwt>
<pdfrwt beam="1">  1       21 0.33216408E-02 0.98395263E+02</pdfrwt>
<pdfrwt beam="2">  1       21 0.87636258E-01 0.98395263E+02</pdfrwt>
<totfact> 0.60396129E+05</totfact>
</mgrwt>
</event>
<event>
 5    1  0.1854763E+000  0.6224636E+02  0.7546771E-02  0.1388639E+00
         21   -1    0    0  501  502  0.00000000000E+00  0.00000000000E+00  0.12427274375E+03  0.12427274375E+03  0.00000000000E+00 0.  1.
         21   -1    0    0  502  503 -0.00000000000E+00 -0.00000000000E+00 -0.43168142644E+02  0.43168142644E+02  0.00000000000E+00 0.  1.
         24    1    1    2    0    0  0.33106231836E+01  0.20222117322E+02  0.38249342150E+02  0.91379004066E+02  0.80419002446E+02 0.  1.
          1    1    1    2  501    0 -0.19644871646E+02 -0.85321091754E+01  0.50276495152E+02  0.54648365334E+02  0.00000000000E+00 0. -1.
         -2    1    1    2    0  503  0.16334248463E+02 -0.11690008146E+02 -0.74212361972E+01  0.21413516993E+02  0.00000000000E+00 0.  1.
<mgrwt>
<rscale>  2 0.62246364E+02</rscale>
<asrwt>0</asrwt>
<pdfrwt beam="1">  1       21 0.19118883E-01 0.62246364E+02</pdfrwt>
<pdfrwt beam="2">  1       21 0.66412528E-02 0.62246364E+02</pdfrwt>
<totfact> 0.39320592E+06</totfact>
</mgrwt>
</event>
<event>
 5    1  0.1854763E+000  0.7195306E+02  0.7546771E-02  0.1353575E+00
         21   -1    0    0  503  502  0.00000000000E+00  0.00000000000E+00  0.24734390120E+02  0.24734390120E+02  0.00000000000E+00 0.  1.
         21   -1    0    0  501  503 -0.00000000000E+00 -0.00000000000E+00 -0.44962054028E+03  0.44962054028E+03  0.00000000000E+00 0. -1.
         24    1    1    2    0    0  0.11786933642E+02  0.18533953911E+02 -0.15319519796E+03  0.17440878385E+03  0.80419002446E+02 0. -1.
          1    1    1    2  501    0 -0.11554926835E+02 -0.38692820666E+02 -0.27632515690E+03  0.27926017088E+03  0.00000000000E+00 0. -1.
         -2    1    1    2    0  502 -0.23200680674E+00  0.20158866755E+02  0.46342047011E+01  0.20685975665E+02  0.00000000000E+00 0.  1.
<mgrwt>
<rscale>  2 0.71953055E+02</rscale>
<asrwt>0</asrwt>
<pdfrwt beam="1">  1       21 0.38052909E-02 0.71953055E+02</pdfrwt>
<pdfrwt beam="2">  1       21 0.69172389E-01 0.71953055E+02</pdfrwt>
<totfact> 0.81150640E+05</totfact>
</mgrwt>
</event>
<event>
 5    1  0.1854763E+000  0.7807450E+02  0.7546771E-02  0.1334606E+00
         21   -1    0    0  501  502  0.00000000000E+00  0.00000000000E+00  0.42751375574E+02  0.42751375574E+02  0.00000000000E+00 0. -1.
         21   -1    0    0  502  503 -0.00000000000E+00 -0.00000000000E+00 -0.27276840593E+03  0.27276840593E+03  0.00000000000E+00 0.  1.
         24    1    1    2    0    0  0.11978264860E+02 -0.22681452582E+02 -0.13870360373E+03  0.16236943296E+03  0.80419002446E+02 0.  0.
          1    1    1    2  501    0 -0.39583634815E+02  0.76852437000E+01  0.14439186323E+02  0.42830097100E+02  0.00000000000E+00 0. -1.
         -2    1    1    2    0  503  0.27605369955E+02  0.14996208882E+02 -0.10575261295E+03  0.11032025144E+03  0.00000000000E+00 0.  1.
<mgrwt>
<rscale>  2 0.78074497E+02</rscale>
<asrwt>0</asrwt>
<pdfrwt beam="1">  1       21 0.65771347E-02 0.78074497E+02</pdfrwt>
<pdfrwt beam="2">  1       21 0.41964370E-01 0.78074497E+02</pdfrwt>
<totfact> 0.91734619E+05</totfact>
</mgrwt>
</event>
<event>
 5    1  0.1854763E+000  0.8555294E+02  0.7546771E-02  0.1313993E+00
         21   -1    0    0  501  502  0.00000000000E+00  0.00000000000E+00  0.25914294181E+03  0.25914294181E+03  0.00000000000E+00 0. -1.
         21   -1    0    0  502  503 -0.00000000000E+00 -0.00000000000E+00 -0.76053856623E+02  0.76053856623E+02  0.00000000000E+00 0. -1.
         24    1    1    2    0    0  0.55173862837E+02 -0.76117024818E+00  0.40655943916E+02  0.10566388338E+03  0.80419002446E+02 0. -1.
          1    1    1    2  501    0 -0.23984922039E+02  0.24572093145E+02  0.17512509364E+03  0.17845969480E+03  0.00000000000E+00 0. -1.
         -2    1    1    2    0  503 -0.31188940798E+02 -0.23810922897E+02 -0.32691952368E+02  0.51073220253E+02  0.00000000000E+00 0.  1.
<mgrwt>
<rscale>  2 0.85552937E+02</rscale>
<asrwt>0</asrwt>
<pdfrwt beam="1">  1       21 0.39868145E-01 0.85552937E+02</pdfrwt>
<pdfrwt beam="2">  1       21 0.11700593E-01 0.85552937E+02</pdfrwt>
<totfact> 0.37847194E+05</totfact>
</mgrwt>
</event>
<event>
 5    1  0.1854763E+000  0.1592564E+03  0.7546771E-02  0.1189539E+00
         21   -1    0    0  503  502  0.00000000000E+00  0.00000000000E+00  0.15762121696E+04  0.15762121696E+04  0.00000000000E+00 0.  1.
         21   -1    0    0  501  503 -0.00000000000E+00 -0.00000000000E+00 -0.20158409176E+02  0.20158409176E+02  0.00000000000E+00 0. -1.
         24    1    1    2    0    0  0.23675921354E+02  0.81738015518E+02  0.32923681579E+03  0.34943633077E+03  0.80419002446E+02 0.  0.
          1    1    1    2  501    0  0.61761900220E+02 -0.96649930276E+02  0.41701332426E+03  0.43249954214E+03  0.00000000000E+00 0. -1.
         -2    1    1    2    0  502 -0.85437821574E+02  0.14911914758E+02  0.80980362037E+03  0.81443470586E+03  0.00000000000E+00 0.  1.
<mgrwt>
<rscale>  2 0.15925637E+03</rscale>
<asrwt>0</asrwt>
<pdfrwt beam="1">  1       21 0.24249408E+00 0.15925637E+03</pdfrwt>
<pdfrwt beam="2">  1       21 0.31012950E-02 0.15925637E+03</pdfrwt>
<totfact> 0.45307972E+04</totfact>
</mgrwt>
</event>
<event>
 5    1  0.1854763E+000  0.8535389E+02  0.7546771E-02  0.1314510E+00
         21   -1    0    0  501  502  0.00000000000E+00  0.00000000000E+00  0.54111712799E+03  0.54111712799E+03  0.00000000000E+00 0.  1.
         21   -1    0    0  502  503 -0.00000000000E+00 -0.00000000000E+00 -0.14227396070E+02  0.14227396070E+02  0.00000000000E+00 0. -1.
         24    1    1    2    0    0  0.18460790669E+02 -0.55434611908E+02  0.24945838294E+03  0.26853397879E+03  0.80419002446E+02 0.  0.
          1    1    1    2  501    0  0.12894679578E+02  0.21747281221E+02  0.12719196890E+03  0.12968043011E+03  0.00000000000E+00 0. -1.
         -2    1    1    2    0  503 -0.31355470247E+02  0.33687330686E+02  0.15023938008E+03  0.15713011516E+03  0.00000000000E+00 0.  1.
<mgrwt>
<rscale>  2 0.85353889E+02</rscale>
<asrwt>0</asrwt>
<pdfrwt beam="1">  1       21 0.83248773E-01 0.85353889E+02</pdfrwt>
<pdfrwt beam="2">  1       21 0.21888306E-02 0.85353889E+02</pdfrwt>
<totfact> 0.13297934E+06</totfact>
</mgrwt>
</event>
<event>
 5    1  0.1854763E+000  0.6840323E+02  0.7546771E-02  0.1365609E+00
         21   -1    0    0  503  502  0.00000000000E+00  0.00000000000E+00  0.18993506724E+04  0.18993506724E+04  0.00000000000E+00 0.  1.
         21   -1    0    0  501  503 -0.00000000000E+00 -0.00000000000E+00 -0.54383412346E+01  0.54383412346E+01  0.00000000000E+00 0. -1.
         24    1    1    2    0    0 -0.19609228814E+02 -0.26302220790E+02  0.16458672962E+04  0.16481573655E+04  0.80419002446E+02 0.  1.
          1    1    1    2  501    0 -0.73996113450E+01  0.21215910061E+02  0.33525642231E+02  0.40358862407E+02  0.00000000000E+00 0. -1.
         -2    1    1    2    0  502  0.27008840159E+02  0.50863107291E+01  0.21451939275E+03  0.21627278578E+03  0.00000000000E+00 0.  1.
<mgrwt>
<rscale>  2 0.68403234E+02</rscale>
<asrwt>0</asrwt>
<pdfrwt beam="1">  1       21 0.29220726E+00 0.68403234E+02</pdfrwt>
<pdfrwt beam="2">  1       21 0.83666940E-03 0.68403234E+02</pdfrwt>
<totfact> 0.21421198E+05</totfact>
</mgrwt>
</event>
<event>
 5    1  0.1854763E+000  0.7740330E+02  0.7546771E-02  0.1336586E+00
         21   -1    0    0  501  502  0.00000000000E+00  0.00000000000E+00  0.44015336394E+03  0.44015336394E+03  0.00000000000E+00 0.  1.
         21   -1    0    0  502  503 -0.00000000000E+00 -0.00000000000E+00 -0.19363646579E+02  0.19363646579E+02  0.00000000000E+00 0.  1.
         24    1    1    2    0    0  0.18854246369E+02  0.41576114499E+02  0.35444319413E+03  0.36630758895E+03  0.80419002446E+02 0.  1.
          1    1    1    2  501    0 -0.26308830929E+02 -0.73659123334E+01  0.43612582005E+02  0.51463273880E+02  0.00000000000E+00 0. -1.
         -2    1    1    2    0  503  0.74545845591E+01 -0.34210202165E+02  0.22733941226E+02  0.41746147688E+02  0.00000000000E+00 0.  1.
<mgrwt>
<rscale>  2 0.77403298E+02</rscale>
<asrwt>0</asrwt>
<pdfrwt beam="1">  1       21 0.67715895E-01 0.77403298E+02</pdfrwt>
<pdfrwt beam="2">  1       21 0.29790229E-02 0.77403298E+02</pdfrwt>
<totfact> 0.12662075E+06</totfact>
</mgrwt>
</event>
<event>
 5    1  0.1854763E+000  0.8466684E+02  0.7546771E-02  0.1316306E+00
         21   -1    0    0  503  502  0.00000000000E+00  0.00000000000E+00  0.64931934655E+02  0.64931934655E+02  0.00000000000E+00 0. -1.
         21   -1    0    0  501  503 -0.00000000000E+00 -0.00000000000E+00 -0.11986500790E+04  0.11986500790E+04  0.00000000000E+00 0. -1.
         24    1    1    2    0    0  0.65128902953E+02 -0.55361127908E+01  0.52583029637E+01  0.10376554461E+03  0.80419002446E+02 0. -1.
          1    1    1    2  501    0 -0.20204975759E+02  0.48194719845E+01 -0.11004059351E+04  0.11006019673E+04  0.00000000000E+00 0. -1.
         -2    1    1    2    0  502 -0.44923927195E+02  0.71664080634E+00 -0.38570512231E+02  0.59214501792E+02  0.00000000000E+00 0.  1.
<mgrwt>
<rscale>  2 0.84666843E+02</rscale>
<asrwt>0</asrwt>
<pdfrwt beam="1">  1       21 0.99895284E-02 0.84666843E+02</pdfrwt>
<pdfrwt beam="2">  1       21 0.18440770E+00 0.84666843E+02</pdfrwt>
<totfact> 0.15416774E+04</totfact>
</mgrwt>
</event>
<event>
 5    1  0.1854763E+000  0.7861709E+02  0.7546771E-02  0.1333022E+00
         21   -1    0    0  501  502  0.00000000000E+00  0.00000000000E+00  0.26731306455E+03  0.26731306455E+03  0.00000000000E+00 0. -1.
         21   -1    0    0  502  503 -0.00000000000E+00 -0.00000000000E+00 -0.10954028342E+03  0.10954028342E+03  0.00000000000E+00 0.  1.
         24    1    1    2    0    0 -0.35080210050E+00  0.24711618225E+02  0.62322089516E+02  0.10469978956E+03  0.80419002446E+02 0.  1.
          1    1    1    2  501    0  0.31806197262E+02 -0.26781564628E+02  0.17852299377E+03  0.18330124302E+03  0.00000000000E+00 0. -1.
         -2    1    1    2    0  503 -0.31455395162E+02  0.20699464023E+01 -0.83072302167E+02  0.88852315391E+02  0.00000000000E+00 0.  1.
<mgrwt>
<rscale>  2 0.78617089E+02</rscale>
<asrwt>0</asrwt>
<pdfrwt beam="1">  1       21 0.41125087E-01 0.78617089E+02</pdfrwt>
<pdfrwt beam="2">  1       21 0.16852351E-01 0.78617089E+02</pdfrwt>
<totfact> 0.18678458E+05</totfact>
</mgrwt>
</event>
<event>
 5    1  0.1854763E+000  0.1214753E+03  0.7546771E-02  0.1240683E+00
         21   -1    0    0  501  502  0.00000000000E+00  0.00000000000E+00  0.15725916913E+03  0.15725916913E+03  0.00000000000E+00 0. -1.
         21   -1    0    0  502  503 -0.00000000000E+00 -0.00000000000E+00 -0.10945087135E+03  0.10945087135E+03  0.00000000000E+00 0. -1.
         24    1    1    2    0    0 -0.72404646916E+02 -0.48522408954E+02  0.29089064382E+02  0.12210752101E+03  0.80419002446E+02 0. -1.
          1    1    1    2  501    0  0.85062769982E+02  0.12249227854E+02  0.46006314057E+02  0.97479738167E+02  0.00000000000E+00 0. -1.
         -2    1    1    2    0  503 -0.12658123066E+02  0.36273181100E+02 -0.27287080657E+02  0.47122781300E+02  0.00000000000E+00 0.  1.
<mgrwt>
<rscale>  2 0.12147531E+03</rscale>
<asrwt>0</asrwt>
<pdfrwt beam="1">  1       21 0.24193718E-01 0.12147531E+03</pdfrwt>
<pdfrwt beam="2">  1       21 0.16838596E-01 0.12147531E+03</pdfrwt>
<totfact> 0.51606233E+05</totfact>
</mgrwt>
</event>
<event>
 5    1  0.1854763E+000  0.1360082E+03  0.7546771E-02  0.1218803E+00
         21   -1    0    0  503  502  0.00000000000E+00  0.00000000000E+00  0.36476872740E+02  0.36476872740E+02  0.00000000000E+00 0.  1.
         21   -1    0    0  501  503 -0.00000000000E+00 -0.00000000000E+00 -0.61634148086E+03  0.61634148086E+03  0.00000000000E+00 0.  1.
         24    1    1    2    0    0  0.30167200754E+02  0.11734076525E+03 -0.18224376499E+03  0.23314999683E+03  0.80419002446E+02 0.  1.
          1    1    1    2  501    0 -0.22213286746E+02 -0.23187548276E+02 -0.17345546355E+03  0.17640263699E+03  0.00000000000E+00 0. -1.
         -2    1    1    2    0  502 -0.79539140080E+01 -0.94153216973E+02 -0.22416537958E+03  0.24326571977E+03  0.00000000000E+00 0.  1.
<mgrwt>
<rscale>  2 0.13600815E+03</rscale>
<asrwt>0</asrwt>
<pdfrwt beam="1">  1       21 0.56118272E-02 0.13600815E+03</pdfrwt>
<pdfrwt beam="2">  1       21 0.94821756E-01 0.13600815E+03</pdfrwt>
<totfact> 0.20929719E+05</totfact>
</mgrwt>
</event>
<event>
 5    1  0.1854763E+000  0.8606553E+02  0.7546771E-02  0.1312669E+00
         21   -1    0    0  501  502  0.00000000000E+00  0.00000000000E+00  0.13433688382E+03  0.13433688382E+03  0.00000000000E+00 0. -1.
         21   -1    0    0  502  503 -0.00000000000E+00 -0.00000000000E+00 -0.45853726014E+03  0.45853726014E+03  0.00000000000E+00 0.  1.
         24    1    1    2    0    0 -0.46367470964E+02  0.47093454408E+02  0.34201651865E+01  0.10414724814E+03  0.80419002446E+02 0. -1.
          1    1    1    2  501    0  0.20024430546E+02 -0.95725081029E+01  0.77707190256E+02  0.80814714920E+02  0.00000000000E+00 0. -1.
         -2    1    1    2    0  503  0.26343040418E+02 -0.37520946305E+02 -0.40532773176E+03  0.40791218090E+03  0.00000000000E+00 0.  1.
<mgrwt>
<rscale>  2 0.86065527E+02</rscale>
<asrwt>0</asrwt>
<pdfrwt beam="1">  1       21 0.20667213E-01 0.86065527E+02</pdfrwt>
<pdfrwt beam="2">  1       21 0.70544194E-01 0.86065527E+02</pdfrwt>
<totfact> 0.42203722E+04</totfact>
</mgrwt>
</event>
<event>
 5    1  0.1854763E+000  0.1049191E+03  0.7546771E-02  0.1270279E+00
         21   -1    0    0  503  502  0.00000000000E+00  0.00000000000E+00  0.33039955970E+03  0.33039955970E+03  0.00000000000E+00 0. -1.
         21   -1    0    0  501  503 -0.00000000000E+00 -0.00000000000E+00 -0.68664100059E+02  0.68664100059E+02  0.00000000000E+00 0. -1.
         24    1    1    2    0    0  0.56366005214E+02 -0.45278639237E+02  0.20570460638E+03  0.23239811263E+03  0.80419002446E+02 0. -1.
          1    1    1    2  501    0 -0.72170835038E+02  0.25869907703E+02 -0.25956929388E+02  0.80942224691E+02  0.00000000000E+00 0. -1.
         -2    1    1    2    0  502  0.15804829824E+02  0.19408731535E+02  0.81987782645E+02  0.85723322431E+02  0.00000000000E+00 0.  1.
<mgrwt>
<rscale>  2 0.10491913E+03</rscale>
<asrwt>0</asrwt>
<pdfrwt beam="1">  1       21 0.50830700E-01 0.10491913E+03</pdfrwt>
<pdfrwt beam="2">  1       21 0.10563708E-01 0.10491913E+03</pdfrwt>
<totfact> 0.27651561E+05</totfact>
</mgrwt>
</event>
<event>
 5    1  0.1854763E+000  0.1316813E+03  0.7546771E-02  0.1224982E+00
         21   -1    0    0  503  502  0.00000000000E+00  0.00000000000E+00  0.53195966679E+02  0.53195966679E+02  0.00000000000E+00 0.  1.
         21   -1    0    0  501  503 -0.00000000000E+00 -0.00000000000E+00 -0.37335604815E+03  0.37335604815E+03  0.00000000000E+00 0.  1.
         24    1    1    2    0    0 -0.44375605617E+01  0.10697993222E+03 -0.97952579817E+02  0.16591058341E+03  0.80419002446E+02 0.  1.
          1    1    1    2  501    0 -0.24194267601E+02 -0.66116766352E+01 -0.82650305415E+02  0.86372158928E+02  0.00000000000E+00 0. -1.
         -2    1    1    2    0  502  0.28631828162E+02 -0.10036825558E+03 -0.13955719623E+03  0.17426927249E+03  0.00000000000E+00 0.  1.
<mgrwt>
<rscale>  2 0.13168132E+03</rscale>
<asrwt>0</asrwt>
<pdfrwt beam="1">  1       21 0.81839945E-02 0.13168132E+03</pdfrwt>
<pdfrwt beam="2">  1       21 0.57439394E-01 0.13168132E+03</pdfrwt>
<totfact> 0.33227060E+05</totfact>
</mgrwt>
</event>
<event>
 5    1  0.1854763E+000  0.1310039E+03  0.7546771E-02  0.1225974E+00
         21   -1    0    0  501  502  0.00000000000E+00  0.00000000000E+00  0.49178330248E+03  0.49178330248E+03  0.00000000000E+00 0. -1.
         21   -1    0    0  502  503 -0.00000000000E+00 -0.00000000000E+00 -0.64615899763E+02  0.64615899763E+02  0.00000000000E+00 0. -1.
         24    1    1    2    0    0  0.62686710377E+02  0.98708807120E+02  0.12402462909E+03  0.18847380942E+03  0.80419002446E+02 0. -1.
          1    1    1    2  501    0 -0.20560762345E+02 -0.57891650798E+02  0.30310523725E+03  0.30926844817E+03  0.00000000000E+00 0. -1.
         -2    1    1    2    0  503 -0.42125948032E+02 -0.40817156322E+02  0.37536371116E-01  0.58656944659E+02  0.00000000000E+00 0.  1.
<mgrwt>
<rscale>  2 0.13100388E+03</rscale>
<asrwt>0</asrwt>
<pdfrwt beam="1">  1       21 0.75658967E-01 0.13100388E+03</pdfrwt>
<pdfrwt beam="2">  1       21 0.99409080E-02 0.13100388E+03</pdfrwt>
<totfact> 0.13072615E+05</totfact>
</mgrwt>
</event>
<event>
 5    1  0.1854763E+000  0.7163666E+02  0.7546771E-02  0.1354614E+00
         21   -1    0    0  501  502  0.00000000000E+00  0.00000000000E+00  0.54691137689E+02  0.54691137689E+02  0.00000000000E+00 0. -1.
         21   -1    0    0  502  503 -0.00000000000E+00 -0.00000000000E+00 -0.16807000669E+03  0.16807000669E+03  0.00000000000E+00 0. -1.
         24    1    1    2    0    0 -0.22876243514E+01  0.38616301692E+02 -0.84575976268E+02  0.12295024887E+03  0.80419002446E+02 0. -1.
          1    1    1    2  501    0 -0.16205608221E+02 -0.28924668819E+02  0.25373748511E+02  0.41750273264E+02  0.00000000000E+00 0. -1.
         -2    1    1    2    0  503  0.18493232572E+02 -0.96916328730E+01 -0.54176641247E+02  0.58060622246E+02  0.00000000000E+00 0.  1.
<mgrwt>
<rscale>  2 0.71636662E+02</rscale>
<asrwt>0</asrwt>
<pdfrwt beam="1">  1       21 0.84140214E-02 0.71636662E+02</pdfrwt>
<pdfrwt beam="2">  1       21 0.25856924E-01 0.71636662E+02</pdfrwt>
<totfact> 0.15290639E+06</totfact>
</mgrwt>
</event>
<event>
 5    1  0.1854763E+000  0.7269407E+02  0.7546771E-02  0.1351164E+00
         21   -1    0    0  503  502  0.00000000000E+00  0.00000000000E+00  0.26067202453E+02  0.26067202453E+02  0.00000000000E+00 0.  1.
         21   -1    0    0  501  503 -0.00000000000E+00 -0.00000000000E+00 -0.26881868631E+03  0.26881868631E+03  0.00000000000E+00 0. -1.
         24    1    1    2    0    0  0.13442568038E+02 -0.20026254105E+02 -0.20596422171E+03  0.22241904161E+03  0.80419002446E+02 0. -1.
          1    1    1    2  501    0  0.22140407579E+02  0.44306195664E+01 -0.19928717354E+02  0.30116138745E+02  0.00000000000E+00 0. -1.
         -2    1    1    2    0  502 -0.35582975617E+02  0.15595634539E+02 -0.16858544788E+02  0.42350708410E+02  0.00000000000E+00 0.  1.
<mgrwt>
<rscale>  2 0.72694075E+02</rscale>
<asrwt>0</asrwt>
<pdfrwt beam="1">  1       21 0.40103390E-02 0.72694075E+02</pdfrwt>
<pdfrwt beam="2">  1       21 0.41356720E-01 0.72694075E+02</pdfrwt>
<totfact> 0.21399671E+06</totfact>
</mgrwt>
</event>
<event>
 5    1  0.1854763E+000  0.8313812E+02  0.7546771E-02  0.1320375E+00
         21   -1    0    0  503  502  0.00000000000E+00  0.00000000000E+00  0.13841764700E+04  0.13841764700E+04  0.00000000000E+00 0.  1.
         21   -1    0    0  501  503 -0.00000000000E+00 -0.00000000000E+00 -0.14910878714E+02  0.14910878714E+02  0.00000000000E+00 0.  1.
         24    1    1    2    0    0  0.26219493609E+02  0.42834931198E+02  0.68153706639E+03  0.68810048830E+03  0.80419002446E+02 0.  0.
          1    1    1    2  501    0 -0.41668615495E+02 -0.29488682417E+02  0.45345060411E+02  0.68279062762E+02  0.00000000000E+00 0. -1.
         -2    1    1    2    0  502  0.15449121887E+02 -0.13346248781E+02  0.64238346453E+03  0.64270779770E+03  0.00000000000E+00 0.  1.
<mgrwt>
<rscale>  2 0.83138116E+02</rscale>
<asrwt>0</asrwt>
<pdfrwt beam="1">  1       21 0.21295012E+00 0.83138116E+02</pdfrwt>
<pdfrwt beam="2">  1       21 0.22939824E-02 0.83138116E+02</pdfrwt>
<totfact> 0.11855865E+05</totfact>
</mgrwt>
</event>
<event>
 5    1  0.1854763E+000  0.8030878E+02  0.7546771E-02  0.1328177E+00
         21   -1    0    0  501  502  0.00000000000E+00  0.00000000000E+00  0.10138208941E+04  0.10138208941E+04  0.00000000000E+00 0.  1.
         21   -1    0    0  502  503 -0.00000000000E+00 -0.00000000000E+00 -0.69594292345E+01  0.69594292345E+01  0.00000000000E+00 0. -1.
         24    1    1    2    0    0  0.24273602119E+02 -0.16955747849E+02  0.68239192858E+03  0.68775189225E+03  0.80419002446E+02 0.  1.
          1    1    1    2  501    0 -0.34148785638E+02  0.38354293410E+02  0.23005227624E+03  0.23571432114E+03  0.00000000000E+00 0. -1.
         -2    1    1    2    0  503  0.98751835190E+01 -0.21398545561E+02  0.94417260025E+02  0.97314109934E+02  0.00000000000E+00 0.  1.
<mgrwt>
<rscale>  2 0.80308780E+02</rscale>
<asrwt>0</asrwt>
<pdfrwt beam="1">  1       21 0.15597233E+00 0.80308780E+02</pdfrwt>
<pdfrwt beam="2">  1       21 0.10706822E-02 0.80308780E+02</pdfrwt>
<totfact> 0.92531072E+05</totfact>
</mgrwt>
</event>
<event>
 5    1  0.1854763E+000  0.6793913E+02  0.7546771E-02  0.1367245E+00
         21   -1    0    0  501  502  0.00000000000E+00  0.00000000000E+00  0.22398179893E+02  0.22398179893E+02  0.00000000000E+00 0. -1.
         21   -1    0    0  502  503 -0.00000000000E+00 -0.00000000000E+00 -0.27075368179E+03  0.27075368179E+03  0.00000000000E+00 0.  1.
         24    1    1    2    0    0  0.20975716651E+02 -0.20751653286E+01 -0.11377564276E+03  0.14091273838E+03  0.80419002446E+02 0. -1.
          1    1    1    2  501    0  0.58353652947E+01  0.19773811346E+02 -0.87913838308E+01  0.22413021504E+02  0.00000000000E+00 0. -1.
         -2    1    1    2    0  503 -0.26811081946E+02 -0.17698646018E+02 -0.12578847531E+03  0.12982610179E+03  0.00000000000E+00 0.  1.
<mgrwt>
<rscale>  2 0.67939128E+02</rscale>
<asrwt>0</asrwt>
<pdfrwt beam="1">  1       21 0.34458738E-02 0.67939128E+02</pdfrwt>
<pdfrwt beam="2">  1       21 0.41654412E-01 0.67939128E+02</pdfrwt>
<totfact> 0.26921183E+06</totfact>
</mgrwt>
</event>
<event>
 5    1  0.1854763E+000  0.7720869E+02  0.7546771E-02  0.1337165E+00
         21   -1    0    0  503  502  0.00000000000E+00  0.00000000000E+00  0.20771230804E+02  0.20771230804E+02  0.00000000000E+00 0.  1.
         21   -1    0    0  501  503 -0.00000000000E+00 -0.00000000000E+00 -0.48786846455E+03  0.48786846455E+03  0.00000000000E+00 0.  1.
         24    1    1    2    0    0  0.52282228564E+02  0.20142570899E+02 -0.41741952315E+03  0.42877200101E+03  0.80419002446E+02 0.  1.
          1    1    1    2  501    0 -0.26383117339E+02 -0.13648597088E+02 -0.43140873242E+02  0.52378316383E+02  0.00000000000E+00 0. -1.
         -2    1    1    2    0  502 -0.25899111225E+02 -0.64939738105E+01 -0.65368373485E+01  0.27489377960E+02  0.00000000000E+00 0.  1.
<mgrwt>
<rscale>  2 0.77208689E+02</rscale>
<asrwt>0</asrwt>
<pdfrwt beam="1">  1       21 0.31955741E-02 0.77208689E+02</pdfrwt>
<pdfrwt beam="2">  1       21 0.75056684E-01 0.77208689E+02</pdfrwt>
<totfact> 0.90538669E+05</totfact>
</mgrwt>
</event>
<event>
 5    1  0.1854763E+000  0.6222306E+02  0.7546771E-02  0.1388732E+00
         21   -1    0    0  503  502  0.00000000000E+00  0.00000000000E+00  0.14002986174E+02  0.14002986174E+02  0.00000000000E+00 0.  1.
         21   -1    0    0  501  503 -0.00000000000E+00 -0.00000000000E+00 -0.65076580338E+03  0.65076580338E+03  0.00000000000E+00 0.  1.
         24    1    1    2    0    0  0.67508233178E+01 -0.19588030540E+02 -0.52962080365E+03  0.53609204076E+03  0.80419002446E+02 0.  1.
          1    1    1    2  501    0  0.13885398060E+02  0.14644821473E+02 -0.10547836321E+03  0.10739162062E+03  0.00000000000E+00 0. -1.
         -2    1    1    2    0  502 -0.20636221377E+02  0.49432090675E+01 -0.16636503487E+01  0.21285128167E+02  0.00000000000E+00 0.  1.
<mgrwt>
<rscale>  2 0.62223061E+02</rscale>
<asrwt>0</asrwt>
<pdfrwt beam="1">  1       21 0.21543058E-02 0.62223061E+02</pdfrwt>
<pdfrwt beam="2">  1       21 0.10011780E+00 0.62223061E+02</pdfrwt>
<totfact> 0.89509533E+05</totfact>
</mgrwt>
</event>
<event>
 5    1  0.1854763E+000  0.1054475E+03  0.7546771E-02  0.1269240E+00
         21   -1    0    0  501  502  0.00000000000E+00  0.00000000000E+00  0.20172726280E+03  0.20172726280E+03  0.00000000000E+00 0. -1.
         21   -1    0    0  502  503 -0.00000000000E+00 -0.00000000000E+00 -0.75477411441E+02  0.75477411441E+02  0.00000000000E+00 0.  1.
         24    1    1    2    0    0  0.60682957889E+02  0.58157868785E+02  0.95648374414E+01  0.11671958340E+03  0.80419002446E+02 0.  1.
          1    1    1    2  501    0  0.24448841344E+01 -0.21357152203E+02  0.71291376600E+02  0.74461841141E+02  0.00000000000E+00 0. -1.
         -2    1    1    2    0  503 -0.63127842023E+02 -0.36800716582E+02  0.45393637313E+02  0.86023249694E+02  0.00000000000E+00 0.  1.
<mgrwt>
<rscale>  2 0.10544749E+03</rscale>
<asrwt>0</asrwt>
<pdfrwt beam="1">  1       21 0.31034963E-01 0.10544749E+03</pdfrwt>
<pdfrwt beam="2">  1       21 0.11611910E-01 0.10544749E+03</pdfrwt>
<totfact> 0.62453353E+05</totfact>
</mgrwt>
</event>
<event>
 5    1  0.1854763E+000  0.6298962E+02  0.7546771E-02  0.1385697E+00
         21   -1    0    0  503  502  0.00000000000E+00  0.00000000000E+00  0.10391155041E+03  0.10391155041E+03  0.00000000000E+00 0. -1.
         21   -1    0    0  501  503 -0.00000000000E+00 -0.00000000000E+00 -0.65084752482E+02  0.65084752482E+02  0.00000000000E+00 0. -1.
         24    1    1    2    0    0  0.22350098722E+01 -0.18211867341E+02  0.53051237351E+02  0.98073019327E+02  0.80419002446E+02 0. -1.
          1    1    1    2  501    0 -0.20817662300E+02  0.81009695148E+01 -0.34838751616E+02  0.41385255646E+02  0.00000000000E+00 0. -1.
         -2    1    1    2    0  502  0.18582652428E+02  0.10110897826E+02  0.20614312189E+02  0.29538027916E+02  0.00000000000E+00 0.  1.
<mgrwt>
<rscale>  2 0.62989623E+02</rscale>
<asrwt>0</asrwt>
<pdfrwt beam="1">  1       21 0.15986392E-01 0.62989623E+02</pdfrwt>
<pdfrwt beam="2">  1       21 0.10013039E-01 0.62989623E+02</pdfrwt>
<totfact> 0.27049179E+06</totfact>
</mgrwt>
</event>
<event>
 5    1  0.1854763E+000  0.7990232E+02  0.7546771E-02  0.1329329E+00
         21   -1    0    0  503  502  0.00000000000E+00  0.00000000000E+00  0.45087757386E+03  0.45087757386E+03  0.00000000000E+00 0.  1.
         21   -1    0    0  501  503 -0.00000000000E+00 -0.00000000000E+00 -0.32578096464E+02  0.32578096464E+02  0.00000000000E+00 0.  1.
         24    1    1    2    0    0 -0.13880365786E+02 -0.55027756257E+02  0.91629222798E+02  0.13447620213E+03  0.80419002446E+02 0.  1.
          1    1    1    2  501    0  0.16067699342E+02  0.17392094351E+02  0.38785161699E+01  0.23993724091E+02  0.00000000000E+00 0. -1.
         -2    1    1    2    0  502 -0.21873335563E+01  0.37635661906E+02  0.32279173843E+03  0.32498574411E+03  0.00000000000E+00 0.  1.
<mgrwt>
<rscale>  2 0.79902325E+02</rscale>
<asrwt>0</asrwt>
<pdfrwt beam="1">  1       21 0.69365776E-01 0.79902325E+02</pdfrwt>
<pdfrwt beam="2">  1       21 0.50120152E-02 0.79902325E+02</pdfrwt>
<totfact> 0.51308504E+05</totfact>
</mgrwt>
</event>
<event>
 5    1  0.1854763E+000  0.6770700E+02  0.7546771E-02  0.1368069E+00
         21   -1    0    0  501  502  0.00000000000E+00  0.00000000000E+00  0.21594446896E+03  0.21594446896E+03  0.00000000000E+00 0.  1.
         21   -1    0    0  502  503 -0.00000000000E+00 -0.00000000000E+00 -0.22095602148E+02  0.22095602148E+02  0.00000000000E+00 0. -1.
         24    1    1    2    0    0 -0.69935642340E+01  0.36375747056E+02  0.11158307981E+03  0.14244333810E+03  0.80419002446E+02 0.  0.
          1    1    1    2  501    0 -0.10431934854E+02 -0.21756795727E+02  0.55196742395E+02  0.60240051429E+02  0.00000000000E+00 0. -1.
         -2    1    1    2    0  503  0.17425499088E+02 -0.14618951329E+02  0.27069044607E+02  0.35356681580E+02  0.00000000000E+00 0.  1.
<mgrwt>
<rscale>  2 0.67707002E+02</rscale>
<asrwt>0</asrwt>
<pdfrwt beam="1">  1       21 0.33222225E-01 0.67707002E+02</pdfrwt>
<pdfrwt beam="2">  1       21 0.33993235E-02 0.67707002E+02</pdfrwt>
<totfact> 0.42702662E+06</totfact>
</mgrwt>
</event>
<event>
 5    1  0.1854763E+000  0.7911345E+02  0.7546771E-02  0.1331586E+00
         21   -1    0    0  501  502  0.00000000000E+00  0.00000000000E+00  0.20928940565E+03  0.20928940565E+03  0.00000000000E+00 0.  1.
         21   -1    0    0  502  503 -0.00000000000E+00 -0.00000000000E+00 -0.43018694233E+02  0.43018694233E+02  0.00000000000E+00 0.  1.
         24    1    1    2    0    0  0.25336641756E+02  0.13998569354E+02  0.10352881736E+03  0.13425102360E+03  0.80419002446E+02 0.  1.
          1    1    1    2  501    0  0.22927285365E+02 -0.71063447088E+01  0.64960204425E+02  0.69253077247E+02  0.00000000000E+00 0. -1.
         -2    1    1    2    0  503 -0.48263927122E+02 -0.68922246455E+01 -0.22183103582E+01  0.48803999043E+02  0.00000000000E+00 0.  1.
<mgrwt>
<rscale>  2 0.79113453E+02</rscale>
<asrwt>0</asrwt>
<pdfrwt beam="1">  1       21 0.32198370E-01 0.79113453E+02</pdfrwt>
<pdfrwt beam="2">  1       21 0.66182608E-02 0.79113453E+02</pdfrwt>
<totfact> 0.15218635E+06</totfact>
</mgrwt>
</event>
<event>
 5    1  0.1854763E+000  0.6872994E+02  0.7546771E-02  0.1364466E+00
         21   -1    0    0  503  502  0.00000000000E+00  0.00000000000E+00  0.12523261215E+03  0.12523261215E+03  0.00000000000E+00 0. -1.
         21   -1    0    0  501  503 -0.00000000000E+00 -0.00000000000E+00 -0.60836934517E+02  0.60836934517E+02  0.00000000000E+00 0.  1.
         24    1    1    2    0    0 -0.10045201180E+02 -0.18593128314E+02 -0.59888774836E+01  0.83364819289E+02  0.80419002446E+02 0.  1.
          1    1    1    2  501    0  0.26533431347E+02 -0.34781733662E+01 -0.38347966991E+00  0.26763178542E+02  0.00000000000E+00 0. -1.
         -2    1    1    2    0  502 -0.16488230168E+02  0.22071301680E+02  0.70768034788E+02  0.75941548837E+02  0.00000000000E+00 0.  1.
<mgrwt>
<rscale>  2 0.68729941E+02</rscale>
<asrwt>0</asrwt>
<pdfrwt beam="1">  1       21 0.19266556E-01 0.68729941E+02</pdfrwt>
<pdfrwt beam="2">  1       21 0.93595284E-02 0.68729941E+02</pdfrwt>
<totfact> 0.21841346E+06</totfact>
</mgrwt>
</event>
<event>
 5    1  0.1854763E+000  0.1109022E+03  0.7546771E-02  0.1258908E+00
         21   -1    0    0  503  502  0.00000000000E+00  0.00000000000E+00  0.39945452383E+02  0.39945452383E+02  0.00000000000E+00 0.  1.
         21   -1    0    0  501  503 -0.00000000000E+00 -0.00000000000E+00 -0.93598469936E+03  0.93598469936E+03  0.00000000000E+00 0. -1.
         24    1    1    2    0    0 -0.28790168618E+02 -0.26436323450E+02 -0.23956307855E+03  0.25570576365E+03  0.80419002446E+02 0. -1.
          1    1    1    2  501    0 -0.32721977323E+02  0.55444897953E+02 -0.64856965426E+03  0.65175721012E+03  0.00000000000E+00 0. -1.
         -2    1    1    2    0  502  0.61512145941E+02 -0.29008574503E+02 -0.79065141601E+01  0.68467177970E+02  0.00000000000E+00 0.  1.
<mgrwt>
<rscale>  2 0.11090217E+03</rscale>
<asrwt>0</asrwt>
<pdfrwt beam="1">  1       21 0.61454544E-02 0.11090217E+03</pdfrwt>
<pdfrwt beam="2">  1       21 0.14399764E+00 0.11090217E+03</pdfrwt>
<totfact> 0.65986334E+04</totfact>
</mgrwt>
</event>
<event>
 5    1  0.1854763E+000  0.9242248E+02  0.7546771E-02  0.1297089E+00
         21   -1    0    0  501  502  0.00000000000E+00  0.00000000000E+00  0.25015263946E+03  0.25015263946E+03  0.00000000000E+00 0.  1.
         21   -1    0    0  502  503 -0.00000000000E+00 -0.00000000000E+00 -0.39325750239E+02  0.39325750239E+02  0.00000000000E+00 0. -1.
         24    1    1    2    0    0  0.19016600788E+02  0.26742383782E+02  0.47547558087E+02  0.99019050845E+02  0.80419002446E+02 0. -1.
          1    1    1    2  501    0  0.36221828782E+02  0.87230055731E+00  0.63760737604E+02  0.73336303754E+02  0.00000000000E+00 0. -1.
         -2    1    1    2    0  503 -0.55238429570E+02 -0.27614684340E+02  0.99518593532E+02  0.11712303510E+03  0.00000000000E+00 0.  1.
<mgrwt>
<rscale>  2 0.92422481E+02</rscale>
<asrwt>0</asrwt>
<pdfrwt beam="1">  1       21 0.38485020E-01 0.92422481E+02</pdfrwt>
<pdfrwt beam="2">  1       21 0.60501156E-02 0.92422481E+02</pdfrwt>
<totfact> 0.12573099E+06</totfact>
</mgrwt>
</event>
<event>
 5    1  0.1854763E+000  0.8158857E+02  0.7546771E-02  0.1324603E+00
         21   -1    0    0  503  502  0.00000000000E+00  0.00000000000E+00  0.10882685137E+03  0.10882685137E+03  0.00000000000E+00 0. -1.
         21   -1    0    0  501  503 -0.00000000000E+00 -0.00000000000E+00 -0.75247594649E+02  0.75247594649E+02  0.00000000000E+00 0. -1.
         24    1    1    2    0    0  0.19307871967E+02  0.29615541393E+02 -0.53066981312E+01  0.88007108868E+02  0.80419002446E+02 0. -1.
          1    1    1    2  501    0 -0.44370924946E+01 -0.49945345114E+02  0.48707969465E+00  0.50144416788E+02  0.00000000000E+00 0. -1.
         -2    1    1    2    0  502 -0.14870779472E+02  0.20329803721E+02  0.38398875161E+02  0.45922920368E+02  0.00000000000E+00 0.  1.
<mgrwt>
<rscale>  2 0.81588567E+02</rscale>
<asrwt>0</asrwt>
<pdfrwt beam="1">  1       21 0.16742593E-01 0.81588567E+02</pdfrwt>
<pdfrwt beam="2">  1       21 0.11576553E-01 0.81588567E+02</pdfrwt>
<totfact> 0.19642941E+06</totfact>
</mgrwt>
</event>
<event>
 5    1  0.1854763E+000  0.1574285E+03  0.7546771E-02  0.1191631E+00
         21   -1    0    0  503  502  0.00000000000E+00  0.00000000000E+00  0.33872818197E+03  0.33872818197E+03  0.00000000000E+00 0.  1.
         21   -1    0    0  501  503 -0.00000000000E+00 -0.00000000000E+00 -0.24240045456E+03  0.24240045456E+03  0.00000000000E+00 0. -1.
         24    1    1    2    0    0  0.98670653881E+02 -0.95466280169E+02  0.83064477176E+02  0.17948992147E+03  0.80419002446E+02 0.  1.
          1    1    1    2  501    0 -0.31531150202E+02 -0.78827654854E+01 -0.17424754283E+03  0.17725280705E+03  0.00000000000E+00 0. -1.
         -2    1    1    2    0  502 -0.67139503678E+02  0.10334904565E+03  0.18751079308E+03  0.22438590801E+03  0.00000000000E+00 0.  1.
<mgrwt>
<rscale>  2 0.15742854E+03</rscale>
<asrwt>0</asrwt>
<pdfrwt beam="1">  1       21 0.52112028E-01 0.15742854E+03</pdfrwt>
<pdfrwt beam="2">  1       21 0.37292378E-01 0.15742854E+03</pdfrwt>
<totfact> 0.24748169E+04</totfact>
</mgrwt>
</event>
<event>
 5    1  0.1854763E+000  0.7868688E+02  0.7546771E-02  0.1332820E+00
         21   -1    0    0  503  502  0.00000000000E+00  0.00000000000E+00  0.75841344966E+01  0.75841344966E+01  0.00000000000E+00 0. -1.
         21   -1    0    0  501  503 -0.00000000000E+00 -0.00000000000E+00 -0.13126305882E+04  0.13126305882E+04  0.00000000000E+00 0. -1.
         24    1    1    2    0    0  0.55009271167E+02  0.70609573008E+01 -0.49509738153E+03  0.50464295317E+03  0.80419002446E+02 0. -1.
          1    1    1    2  501    0 -0.38673251546E+02  0.55209495107E+01 -0.76632454486E+03  0.76731962657E+03  0.00000000000E+00 0. -1.
         -2    1    1    2    0  502 -0.16336019621E+02 -0.12581906812E+02 -0.43624527287E+02  0.48252142928E+02  0.00000000000E+00 0.  1.
<mgrwt>
<rscale>  2 0.78686875E+02</rscale>
<asrwt>0</asrwt>
<pdfrwt beam="1">  1       21 0.11667893E-02 0.78686875E+02</pdfrwt>
<pdfrwt beam="2">  1       21 0.20194328E+00 0.78686875E+02</pdfrwt>
<totfact> 0.40427130E+05</totfact>
</mgrwt>
</event>
<event>
 5    1  0.1854763E+000  0.7215224E+02  0.7546771E-02  0.1352924E+00
         21   -1    0    0  503  502  0.00000000000E+00  0.00000000000E+00  0.39549929003E+03  0.39549929003E+03  0.00000000000E+00 0. -1.
         21   -1    0    0  501  503 -0.00000000000E+00 -0.00000000000E+00 -0.15747606299E+02  0.15747606299E+02  0.00000000000E+00 0. -1.
         24    1    1    2    0    0 -0.19372285172E+02 -0.12789244116E+02  0.15877848806E+03  0.17949003990E+03  0.80419002446E+02 0.  1.
          1    1    1    2  501    0 -0.10236792939E+01 -0.21059014891E+02  0.29571462357E+02  0.36318059054E+02  0.00000000000E+00 0. -1.
         -2    1    1    2    0  502  0.20395964466E+02  0.33848259007E+02  0.19140173331E+03  0.19543879737E+03  0.00000000000E+00 0.  1.
<mgrwt>
<rscale>  2 0.72152239E+02</rscale>
<asrwt>0</asrwt>
<pdfrwt beam="1">  1       21 0.60846037E-01 0.72152239E+02</pdfrwt>
<pdfrwt beam="2">  1       21 0.24227090E-02 0.72152239E+02</pdfrwt>
<totfact> 0.22086198E+06</totfact>
</mgrwt>
</event>
<event>
 5    1  0.1854763E+000  0.8881046E+02  0.7546771E-02  0.1305758E+00
         21   -1    0    0  503  502  0.00000000000E+00  0.00000000000E+00  0.71011645043E+02  0.71011645043E+02  0.00000000000E+00 0. -1.
         21   -1    0    0  501  503 -0.00000000000E+00 -0.00000000000E+00 -0.20871052510E+03  0.20871052510E+03  0.00000000000E+00 0. -1.
         24    1    1    2    0    0 -0.78369101918E+01  0.15028456966E+01 -0.18216192277E+02  0.82841543455E+02  0.80419002446E+02 0. -1.
          1    1    1    2  501    0  0.47516225832E+02  0.20140822476E+02 -0.13853130019E+03  0.14783222105E+03  0.00000000000E+00 0. -1.
         -2    1    1    2    0  502 -0.39679315640E+02 -0.21643668173E+02  0.19048612407E+02  0.49048405644E+02  0.00000000000E+00 0.  1.
<mgrwt>
<rscale>  2 0.88810457E+02</rscale>
<asrwt>0</asrwt>
<pdfrwt beam="1">  1       21 0.10924869E-01 0.88810457E+02</pdfrwt>
<pdfrwt beam="2">  1       21 0.32109311E-01 0.88810457E+02</pdfrwt>
<totfact> 0.65040379E+05</totfact>
</mgrwt>
</event>
<event>
 5    1  0.1854763E+000  0.1003403E+03  0.7546771E-02  0.1279582E+00
         21   -1    0    0  501  502  0.00000000000E+00  0.00000000000E+00  0.35922143833E+02  0.35922143833E+02  0.00000000000E+00 0. -1.
         21   -1    0    0  502  503 -0.00000000000E+00 -0.00000000000E+00 -0.51038544403E+03  0.51038544403E+03  0.00000000000E+00 0.  1.
         24    1    1    2    0    0 -0.58673303313E+02 -0.34171806089E+02 -0.91682623828E+02  0.13958219198E+03  0.80419002446E+02 0. -1.
          1    1    1    2  501    0  0.31920836876E+02 -0.18111288390E+02 -0.25596974704E+02  0.44745544002E+02  0.00000000000E+00 0. -1.
         -2    1    1    2    0  503  0.26752466437E+02  0.52283094478E+02 -0.35718370167E+03  0.36197985188E+03  0.00000000000E+00 0.  1.
<mgrwt>
<rscale>  2 0.10034030E+03</rscale>
<asrwt>0</asrwt>
<pdfrwt beam="1">  1       21 0.55264839E-02 0.10034030E+03</pdfrwt>
<pdfrwt beam="2">  1       21 0.78520834E-01 0.10034030E+03</pdfrwt>
<totfact> 0.33202597E+05</totfact>
</mgrwt>
</event>
<event>
 5    1  0.1854763E+000  0.7682628E+02  0.7546771E-02  0.1338307E+00
         21   -1    0    0  501  502  0.00000000000E+00  0.00000000000E+00  0.55368912943E+02  0.55368912943E+02  0.00000000000E+00 0. -1.
         21   -1    0    0  502  503 -0.00000000000E+00 -0.00000000000E+00 -0.17265037114E+03  0.17265037114E+03  0.00000000000E+00 0. -1.
         24    1    1    2    0    0  0.10517483326E+02 -0.31085841371E+02 -0.34428679546E+02  0.93431776816E+02  0.80419002446E+02 0. -1.
          1    1    1    2  501    0 -0.30371926396E+02  0.55550127380E+00  0.12247081584E+02  0.32752915931E+02  0.00000000000E+00 0. -1.
         -2    1    1    2    0  503  0.19854443070E+02  0.30530340097E+02 -0.95099860235E+02  0.10183459134E+03  0.00000000000E+00 0.  1.
<mgrwt>
<rscale>  2 0.76826278E+02</rscale>
<asrwt>0</asrwt>
<pdfrwt beam="1">  1       21 0.85182942E-02 0.76826278E+02</pdfrwt>
<pdfrwt beam="2">  1       21 0.26561596E-01 0.76826278E+02</pdfrwt>
<totfact> 0.14277517E+06</totfact>
</mgrwt>
</event>
<event>
 5    1  0.1854763E+000  0.9117280E+02  0.7546771E-02  0.1300036E+00
         21   -1    0    0  503  502  0.00000000000E+00  0.00000000000E+00  0.22164505823E+02  0.22164505823E+02  0.00000000000E+00 0.  1.
         21   -1    0    0  501  503 -0.00000000000E+00 -0.00000000000E+00 -0.66723288543E+03  0.66723288543E+03  0.00000000000E+00 0. -1.
         24    1    1    2    0    0 -0.39153300224E+02 -0.11018365591E+02 -0.51734128302E+03  0.52513198757E+03  0.80419002446E+02 0.  0.
          1    1    1    2  501    0 -0.26185686952E+02  0.19158489225E+01 -0.76080275328E+02  0.80483345931E+02  0.00000000000E+00 0. -1.
         -2    1    1    2    0  502  0.65338987176E+02  0.91025166689E+01 -0.51646821258E+02  0.83782057751E+02  0.00000000000E+00 0.  1.
<mgrwt>
<rscale>  2 0.91172796E+02</rscale>
<asrwt>0</asrwt>
<pdfrwt beam="1">  1       21 0.34099239E-02 0.91172796E+02</pdfrwt>
<pdfrwt beam="2">  1       21 0.10265121E+00 0.91172796E+02</pdfrwt>
<totfact> 0.40316238E+05</totfact>
</mgrwt>
</event>
<event>
 5    1  0.1854763E+000  0.8479903E+02  0.7546771E-02  0.1315959E+00
         21   -1    0    0  501  502  0.00000000000E+00  0.00000000000E+00  0.26299815321E+03  0.26299815321E+03  0.00000000000E+00 0. -1.
         21   -1    0    0  502  503 -0.00000000000E+00 -0.00000000000E+00 -0.11331809362E+03  0.11331809362E+03  0.00000000000E+00 0.  1.
         24    1    1    2    0    0  0.87198023989E+01  0.59087950141E+02  0.61454527086E+02  0.11752146893E+03  0.80419002446E+02 0. -1.
          1    1    1    2  501    0  0.13737256921E+02 -0.26493815292E+02  0.16752676063E+03  0.17016418543E+03  0.00000000000E+00 0. -1.
         -2    1    1    2    0  503 -0.22457059320E+02 -0.32594134849E+02 -0.79301228122E+02  0.88630592469E+02  0.00000000000E+00 0.  1.
<mgrwt>
<rscale>  2 0.84799030E+02</rscale>
<asrwt>0</asrwt>
<pdfrwt beam="1">  1       21 0.40461254E-01 0.84799030E+02</pdfrwt>
<pdfrwt beam="2">  1       21 0.17433553E-01 0.84799030E+02</pdfrwt>
<totfact> 0.18109454E+05</totfact>
</mgrwt>
</event>
<event>
 5    1  0.1854763E+000  0.6159575E+02  0.7546771E-02  0.1391255E+00
         21   -1    0    0  503  502  0.00000000000E+00  0.00000000000E+00  0.54538267828E+02  0.54538267828E+02  0.00000000000E+00 0. -1.
         21   -1    0    0  501  503 -0.00000000000E+00 -0.00000000000E+00 -0.13254589162E+03  0.13254589162E+03  0.00000000000E+00 0.  1.
         24    1    1    2    0    0 -0.14445936911E+02  0.32805182899E+01 -0.12522327039E+02  0.82725277409E+02  0.80419002446E+02 0.  1.
          1    1    1    2  501    0  0.21203139948E+01 -0.20297316708E+02 -0.77508691043E+02  0.80150321174E+02  0.00000000000E+00 0. -1.
         -2    1    1    2    0  502  0.12325622916E+02  0.17016798418E+02  0.12023394294E+02  0.24208560862E+02  0.00000000000E+00 0.  1.
<mgrwt>
<rscale>  2 0.61595751E+02</rscale>
<asrwt>0</asrwt>
<pdfrwt beam="1">  1       21 0.83905029E-02 0.61595751E+02</pdfrwt>
<pdfrwt beam="2">  1       21 0.20391675E-01 0.61595751E+02</pdfrwt>
<totfact> 0.23594715E+06</totfact>
</mgrwt>
</event>
<event>
 5    1  0.1854763E+000  0.1444584E+03  0.7546771E-02  0.1207453E+00
         21   -1    0    0  503  502  0.00000000000E+00  0.00000000000E+00  0.33368319258E+03  0.33368319258E+03  0.00000000000E+00 0.  1.
         21   -1    0    0  501  503 -0.00000000000E+00 -0.00000000000E+00 -0.77704901154E+02  0.77704901154E+02  0.00000000000E+00 0. -1.
         24    1    1    2    0    0  0.28858128516E+02 -0.19853084784E+02  0.63872222682E+02  0.10850720410E+03  0.80419002446E+02 0. -1.
          1    1    1    2  501    0  0.94318038949E+00 -0.88662320217E+02  0.10570581488E+02  0.89295205966E+02  0.00000000000E+00 0. -1.
         -2    1    1    2    0  502 -0.29801308905E+02  0.10851540500E+03  0.18153548725E+03  0.21358568367E+03  0.00000000000E+00 0.  1.
<mgrwt>
<rscale>  2 0.14445841E+03</rscale>
<asrwt>0</asrwt>
<pdfrwt beam="1">  1       21 0.51335875E-01 0.14445841E+03</pdfrwt>
<pdfrwt beam="2">  1       21 0.11954600E-01 0.14445841E+03</pdfrwt>
<totfact> 0.21587994E+05</totfact>
</mgrwt>
</event>
<event>
 5    1  0.1854763E+000  0.1574823E+03  0.7546771E-02  0.1191569E+00
         21   -1    0    0  501  502  0.00000000000E+00  0.00000000000E+00  0.57310085528E+02  0.57310085528E+02  0.00000000000E+00 0.  1.
         21   -1    0    0  502  503 -0.00000000000E+00 -0.00000000000E+00 -0.47932691680E+03  0.47932691680E+03  0.00000000000E+00 0.  1.
         24    1    1    2    0    0  0.87708124370E+02 -0.73461460276E+02 -0.26033493726E+03  0.29551784504E+03  0.80419002446E+02 0.  1.
          1    1    1    2  501    0  0.35618617338E+02  0.17667998428E+02 -0.17766229200E+02  0.43548627642E+02  0.00000000000E+00 0. -1.
         -2    1    1    2    0  503 -0.12332674171E+03  0.55793461847E+02 -0.14391566482E+03  0.19757052965E+03  0.00000000000E+00 0.  1.
<mgrwt>
<rscale>  2 0.15748235E+03</rscale>
<asrwt>0</asrwt>
<pdfrwt beam="1">  1       21 0.88169359E-02 0.15748235E+03</pdfrwt>
<pdfrwt beam="2">  1       21 0.73742606E-01 0.15748235E+03</pdfrwt>
<totfact> 0.16916030E+05</totfact>
</mgrwt>
</event>
<event>
 5    1  0.1854763E+000  0.1150421E+03  0.7546771E-02  0.1251508E+00
         21   -1    0    0  503  502  0.00000000000E+00  0.00000000000E+00  0.13182623468E+02  0.13182623468E+02  0.00000000000E+00 0.  1.
         21   -1    0    0  501  503 -0.00000000000E+00 -0.00000000000E+00 -0.10444023828E+04  0.10444023828E+04  0.00000000000E+00 0. -1.
         24    1    1    2    0    0  0.54680794477E+02 -0.47075140696E+02 -0.38568557189E+03  0.40053293806E+03  0.80419002446E+02 0.  0.
          1    1    1    2  501    0 -0.65864622172E+02 -0.75381813839E+01 -0.37835411155E+03  0.38411821925E+03  0.00000000000E+00 0. -1.
         -2    1    1    2    0  502  0.11183827695E+02  0.54613322080E+02 -0.26718007586E+03  0.27293384892E+03  0.00000000000E+00 0.  1.
<mgrwt>
<rscale>  2 0.11504210E+03</rscale>
<asrwt>0</asrwt>
<pdfrwt beam="1">  1       21 0.20280954E-02 0.11504210E+03</pdfrwt>
<pdfrwt beam="2">  1       21 0.16067733E+00 0.11504210E+03</pdfrwt>
<totfact> 0.30806018E+05</totfact>
</mgrwt>
</event>
<event>
 5    1  0.1854763E+000  0.1130272E+03  0.7546771E-02  0.1255064E+00
         21   -1    0    0  501  502  0.00000000000E+00  0.00000000000E+00  0.11919632710E+03  0.11919632710E+03  0.00000000000E+00 0.  1.
         21   -1    0    0  502  503 -0.00000000000E+00 -0.00000000000E+00 -0.11402509310E+03  0.11402509310E+03  0.00000000000E+00 0.  1.
         24    1    1    2    0    0 -0.96406480307E+02 -0.77437133416E+01  0.26369516442E+02  0.12851747700E+03  0.80419002446E+02 0.  1.
          1    1    1    2  501    0  0.68364708582E+02 -0.67648171332E+01 -0.41533374089E+01  0.68824024454E+02  0.00000000000E+00 0. -1.
         -2    1    1    2    0  503  0.28041771724E+02  0.14508530475E+02 -0.17044945032E+02  0.35879918745E+02  0.00000000000E+00 0.  1.
<mgrwt>
<rscale>  2 0.11302722E+03</rscale>
<asrwt>0</asrwt>
<pdfrwt beam="1">  1       21 0.18337897E-01 0.11302722E+03</pdfrwt>
<pdfrwt beam="2">  1       21 0.17542322E-01 0.11302722E+03</pdfrwt>
<totfact> 0.80070840E+05</totfact>
</mgrwt>
</event>
<event>
 5    1  0.1854763E+000  0.6741931E+02  0.7546771E-02  0.1369095E+00
         21   -1    0    0  503  502  0.00000000000E+00  0.00000000000E+00  0.69193016946E+02  0.69193016946E+02  0.00000000000E+00 0. -1.
         21   -1    0    0  501  503 -0.00000000000E+00 -0.00000000000E+00 -0.10166072406E+03  0.10166072406E+03  0.00000000000E+00 0.  1.
         24    1    1    2    0    0  0.38555198907E+02 -0.16702763719E+01 -0.66117087355E+02  0.11103142970E+03  0.80419002446E+02 0.  1.
          1    1    1    2  501    0 -0.20186414858E+02 -0.11317746551E+02  0.54990445006E+01  0.23787017935E+02  0.00000000000E+00 0. -1.
         -2    1    1    2    0  502 -0.18368784049E+02  0.12988022923E+02  0.28150335736E+02  0.36035293379E+02  0.00000000000E+00 0.  1.
<mgrwt>
<rscale>  2 0.67419307E+02</rscale>
<asrwt>0</asrwt>
<pdfrwt beam="1">  1       21 0.10645080E-01 0.67419307E+02</pdfrwt>
<pdfrwt beam="2">  1       21 0.15640111E-01 0.67419307E+02</pdfrwt>
<totfact> 0.25413182E+06</totfact>
</mgrwt>
</event>
<event>
 5    1  0.1854763E+000  0.8652843E+02  0.7546771E-02  0.1311483E+00
         21   -1    0    0  501  502  0.00000000000E+00  0.00000000000E+00  0.19165945581E+02  0.19165945581E+02  0.00000000000E+00 0. -1.
         21   -1    0    0  502  503 -0.00000000000E+00 -0.00000000000E+00 -0.66521777576E+03  0.66521777576E+03  0.00000000000E+00 0. -1.
         24    1    1    2    0    0  0.59291080699E+02 -0.31923340550E+02 -0.49472974460E+03  0.50572647555E+03  0.80419002446E+02 0. -1.
          1    1    1    2  501    0 -0.31616418057E+02  0.22973833360E+02 -0.19522837160E+02  0.43686795268E+02  0.00000000000E+00 0. -1.
         -2    1    1    2    0  503 -0.27674662642E+02  0.89495071907E+01 -0.13179924842E+03  0.13497045052E+03  0.00000000000E+00 0.  1.
<mgrwt>
<rscale>  2 0.86528432E+02</rscale>
<asrwt>0</asrwt>
<pdfrwt beam="1">  1       21 0.29486069E-02 0.86528432E+02</pdfrwt>
<pdfrwt beam="2">  1       21 0.10234120E+00 0.86528432E+02</pdfrwt>
<totfact> 0.51480254E+05</totfact>
</mgrwt>
</event>
<event>
 5    1  0.1854763E+000  0.1454943E+03  0.7546771E-02  0.1206121E+00
         21   -1    0    0  501  502  0.00000000000E+00  0.00000000000E+00  0.37603039981E+03  0.37603039981E+03  0.00000000000E+00 0. -1.
         21   -1    0    0  502  503 -0.00000000000E+00 -0.00000000000E+00 -0.80875308630E+02  0.80875308630E+02  0.00000000000E+00 0. -1.
         24    1    1    2    0    0  0.12050141218E+03 -0.54597277151E+01  0.26356716802E+03  0.30080769102E+03  0.80419002446E+02 0. -1.
          1    1    1    2  501    0 -0.11687820314E+03  0.30436294011E+02  0.43262256792E+02  0.12829070592E+03  0.00000000000E+00 0. -1.
         -2    1    1    2    0  503 -0.36232090437E+01 -0.24976566296E+02 -0.11674333627E+02  0.27807311509E+02  0.00000000000E+00 0.  1.
<mgrwt>
<rscale>  2 0.14549435E+03</rscale>
<asrwt>0</asrwt>
<pdfrwt beam="1">  1       21 0.57850830E-01 0.14549435E+03</pdfrwt>
<pdfrwt beam="2">  1       21 0.12442355E-01 0.14549435E+03</pdfrwt>
<totfact> 0.15645371E+05</totfact>
</mgrwt>
</event>
<event>
 5    1  0.1854763E+000  0.1809746E+03  0.7546771E-02  0.1166863E+00
         21   -1    0    0  503  502  0.00000000000E+00  0.00000000000E+00  0.21713927794E+03  0.21713927794E+03  0.00000000000E+00 0.  1.
         21   -1    0    0  501  503 -0.00000000000E+00 -0.00000000000E+00 -0.30939867254E+03  0.30939867254E+03  0.00000000000E+00 0.  1.
         24    1    1    2    0    0 -0.82632879263E+02 -0.12593574948E+03 -0.17113969484E+03  0.24175197380E+03  0.80419002446E+02 0.  1.
          1    1    1    2  501    0  0.66022958042E+02  0.14888701401E+03 -0.35716168095E+02  0.16673937325E+03  0.00000000000E+00 0. -1.
         -2    1    1    2    0  502  0.16609921221E+02 -0.22951264524E+02  0.11459646834E+03  0.11804660343E+03  0.00000000000E+00 0.  1.
<mgrwt>
<rscale>  2 0.18097464E+03</rscale>
<asrwt>0</asrwt>
<pdfrwt beam="1">  1       21 0.33406043E-01 0.18097464E+03</pdfrwt>
<pdfrwt beam="2">  1       21 0.47599796E-01 0.18097464E+03</pdfrwt>
<totfact> 0.36640786E+04</totfact>
</mgrwt>
</event>
<event>
 5    1  0.1854763E+000  0.7408963E+02  0.7546771E-02  0.1346714E+00
         21   -1    0    0  501  502  0.00000000000E+00  0.00000000000E+00  0.12609583647E+03  0.12609583647E+03  0.00000000000E+00 0. -1.
         21   -1    0    0  502  503 -0.00000000000E+00 -0.00000000000E+00 -0.59844375624E+02  0.59844375624E+02  0.00000000000E+00 0.  1.
         24    1    1    2    0    0 -0.19141865236E+02 -0.67071368839E+01  0.99325082887E+01  0.83530038700E+02  0.80419002446E+02 0.  1.
          1    1    1    2  501    0 -0.18766379355E+02 -0.12694897113E+02  0.55357263604E+02  0.59814413317E+02  0.00000000000E+00 0. -1.
         -2    1    1    2    0  503  0.37908244591E+02  0.19402033997E+02  0.96168895625E+00  0.42595760080E+02  0.00000000000E+00 0.  1.
<mgrwt>
<rscale>  2 0.74089628E+02</rscale>
<asrwt>0</asrwt>
<pdfrwt beam="1">  1       21 0.19399359E-01 0.74089628E+02</pdfrwt>
<pdfrwt beam="2">  1       21 0.92068271E-02 0.74089628E+02</pdfrwt>
<totfact> 0.22276421E+06</totfact>
</mgrwt>
</event>
<event>
 5    1  0.1854763E+000  0.1330229E+03  0.7546771E-02  0.1223038E+00
         21   -1    0    0  503  502  0.00000000000E+00  0.00000000000E+00  0.97680037947E+01  0.97680037947E+01  0.00000000000E+00 0.  1.
         21   -1    0    0  501  503 -0.00000000000E+00 -0.00000000000E+00 -0.27515092064E+04  0.27515092064E+04  0.00000000000E+00 0. -1.
         24    1    1    2    0    0 -0.30339579117E+02 -0.54346129796E+02 -0.95534004327E+03  0.96073711603E+03  0.80419002446E+02 0. -1.
          1    1    1    2  501    0  0.85805261889E+02  0.65287671775E+02 -0.16409474930E+04  0.16444858461E+04  0.00000000000E+00 0. -1.
         -2    1    1    2    0  502 -0.55465682773E+02 -0.10941541978E+02 -0.14545366630E+03  0.15605424809E+03  0.00000000000E+00 0.  1.
<mgrwt>
<rscale>  2 0.13302286E+03</rscale>
<asrwt>0</asrwt>
<pdfrwt beam="1">  1       21 0.15027672E-02 0.13302286E+03</pdfrwt>
<pdfrwt beam="2">  1       21 0.42330983E+00 0.13302286E+03</pdfrwt>
<totfact> 0.13284360E+04</totfact>
</mgrwt>
</event>
<event>
 5    1  0.1854763E+000  0.7684361E+02  0.7546771E-02  0.1338255E+00
         21   -1    0    0  503  502  0.00000000000E+00  0.00000000000E+00  0.11334503267E+04  0.11334503267E+04  0.00000000000E+00 0.  1.
         21   -1    0    0  501  503 -0.00000000000E+00 -0.00000000000E+00 -0.23098930985E+02  0.23098930985E+02  0.00000000000E+00 0. -1.
         24    1    1    2    0    0 -0.95744273708E+01  0.19170223192E+02  0.96525169851E+03  0.96883291880E+03  0.80419002446E+02 0.  1.
          1    1    1    2  501    0  0.38689408542E+02 -0.10980012432E+02  0.74185234589E+00  0.40224138913E+02  0.00000000000E+00 0. -1.
         -2    1    1    2    0  502 -0.29114981172E+02 -0.81902107608E+01  0.14435784490E+03  0.14749220002E+03  0.00000000000E+00 0.  1.
<mgrwt>
<rscale>  2 0.76843610E+02</rscale>
<asrwt>0</asrwt>
<pdfrwt beam="1">  1       21 0.17437693E+00 0.76843610E+02</pdfrwt>
<pdfrwt beam="2">  1       21 0.35536826E-02 0.76843610E+02</pdfrwt>
<totfact> 0.10234672E+05</totfact>
</mgrwt>
</event>
<event>
 5    1  0.1854763E+000  0.7733387E+02  0.7546771E-02  0.1336792E+00
         21   -1    0    0  501  502  0.00000000000E+00  0.00000000000E+00  0.15785576946E+03  0.15785576946E+03  0.00000000000E+00 0.  1.
         21   -1    0    0  502  503 -0.00000000000E+00 -0.00000000000E+00 -0.43053564922E+02  0.43053564922E+02  0.00000000000E+00 0. -1.
         24    1    1    2    0    0 -0.54461808335E+02 -0.14056122840E+02  0.81684934918E+02  0.12768440666E+03  0.80419002446E+02 0.  0.
          1    1    1    2  501    0  0.30218014583E+02  0.48854799322E+01  0.35873733920E+02  0.47158468008E+02  0.00000000000E+00 0. -1.
         -2    1    1    2    0  503  0.24243793753E+02  0.91706429075E+01 -0.27564642988E+01  0.26066459719E+02  0.00000000000E+00 0.  1.
<mgrwt>
<rscale>  2 0.77333872E+02</rscale>
<asrwt>0</asrwt>
<pdfrwt beam="1">  1       21 0.24285503E-01 0.77333872E+02</pdfrwt>
<pdfrwt beam="2">  1       21 0.66236254E-02 0.77333872E+02</pdfrwt>
<totfact> 0.25849932E+06</totfact>
</mgrwt>
</event>
<event>
 5    1  0.1854763E+000  0.7744884E+02  0.7546771E-02  0.1336451E+00
         21   -1    0    0  503  502  0.00000000000E+00  0.00000000000E+00  0.20127297371E+02  0.20127297371E+02  0.00000000000E+00 0. -1.
         21   -1    0    0  501  503 -0.00000000000E+00 -0.00000000000E+00 -0.32932670526E+03  0.32932670526E+03  0.00000000000E+00 0.  1.
         24    1    1    2    0    0 -0.20806554369E+02 -0.77848317565E+01 -0.21786112370E+03  0.23328995153E+03  0.80419002446E+02 0.  0.
          1    1    1    2  501    0 -0.12745367860E+00  0.36184837011E+02 -0.51603990667E+02  0.63026427209E+02  0.00000000000E+00 0. -1.
         -2    1    1    2    0  502  0.20934008047E+02 -0.28400005254E+02 -0.39734293521E+02  0.53137623893E+02  0.00000000000E+00 0.  1.
<mgrwt>
<rscale>  2 0.77448844E+02</rscale>
<asrwt>0</asrwt>
<pdfrwt beam="1">  1       21 0.30965075E-02 0.77448844E+02</pdfrwt>
<pdfrwt beam="2">  1       21 0.50665644E-01 0.77448844E+02</pdfrwt>
<totfact> 0.21767554E+06</totfact>
</mgrwt>
</event>
<event>
 5    1  0.1854763E+000  0.6453092E+02  0.7546771E-02  0.1379745E+00
         21   -1    0    0  503  502  0.00000000000E+00  0.00000000000E+00  0.64427318914E+03  0.64427318914E+03  0.00000000000E+00 0.  1.
         21   -1    0    0  501  503 -0.00000000000E+00 -0.00000000000E+00 -0.37427101560E+02  0.37427101560E+02  0.00000000000E+00 0. -1.
         24    1    1    2    0    0 -0.14088061207E+01  0.31134274543E+01  0.18254487325E+03  0.19950319513E+03  0.80419002446E+02 0. -1.
          1    1    1    2  501    0 -0.23523322208E+02 -0.90905817048E+00 -0.23754266768E+02  0.33443060029E+02  0.00000000000E+00 0. -1.
         -2    1    1    2    0  502  0.24932128328E+02 -0.22043692838E+01  0.44805548110E+03  0.44875403554E+03  0.00000000000E+00 0.  1.
<mgrwt>
<rscale>  2 0.64530923E+02</rscale>
<asrwt>0</asrwt>
<pdfrwt beam="1">  1       21 0.99118945E-01 0.64530923E+02</pdfrwt>
<pdfrwt beam="2">  1       21 0.57580161E-02 0.64530923E+02</pdfrwt>
<totfact> 0.18580815E+05</totfact>
</mgrwt>
</event>
<event>
 5    1  0.1854763E+000  0.1133952E+03  0.7546771E-02  0.1254409E+00
         21   -1    0    0  501  502  0.00000000000E+00  0.00000000000E+00  0.52149914536E+02  0.52149914536E+02  0.00000000000E+00 0. -1.
         21   -1    0    0  502  503 -0.00000000000E+00 -0.00000000000E+00 -0.30963943426E+03  0.30963943426E+03  0.00000000000E+00 0.  1.
         24    1    1    2    0    0  0.41957697460E+02  0.77209726281E+02 -0.63505636639E+02  0.13498878490E+03  0.80419002446E+02 0. -1.
          1    1    1    2  501    0  0.16096880518E+02 -0.24154823929E+02 -0.18292685084E+02  0.34310164806E+02  0.00000000000E+00 0. -1.
         -2    1    1    2    0  503 -0.58054577978E+02 -0.53054902352E+02 -0.17569119800E+03  0.19249039909E+03  0.00000000000E+00 0.  1.
<mgrwt>
<rscale>  2 0.11339518E+03</rscale>
<asrwt>0</asrwt>
<pdfrwt beam="1">  1       21 0.80230637E-02 0.11339518E+03</pdfrwt>
<pdfrwt beam="2">  1       21 0.47636837E-01 0.11339518E+03</pdfrwt>
<totfact> 0.50805928E+05</totfact>
</mgrwt>
</event>
<event>
 5    1  0.1854763E+000  0.6268254E+02  0.7546771E-02  0.1386907E+00
         21   -1    0    0  503  502  0.00000000000E+00  0.00000000000E+00  0.58998727840E+02  0.58998727840E+02  0.00000000000E+00 0. -1.
         21   -1    0    0  501  503 -0.00000000000E+00 -0.00000000000E+00 -0.96137099407E+02  0.96137099407E+02  0.00000000000E+00 0. -1.
         24    1    1    2    0    0  0.12371658602E+02 -0.10903253695E+02  0.48737882783E+01  0.82236905610E+02  0.80419002446E+02 0. -1.
          1    1    1    2  501    0 -0.18429676772E+02 -0.10374705769E+02 -0.45805741834E+02  0.50452487457E+02  0.00000000000E+00 0. -1.
         -2    1    1    2    0  502  0.60580181699E+01  0.21277959464E+02  0.37935819890E+01  0.22446434180E+02  0.00000000000E+00 0.  1.
<mgrwt>
<rscale>  2 0.62682535E+02</rscale>
<asrwt>0</asrwt>
<pdfrwt beam="1">  1       21 0.90767275E-02 0.62682535E+02</pdfrwt>
<pdfrwt beam="2">  1       21 0.14790323E-01 0.62682535E+02</pdfrwt>
<totfact> 0.36699600E+06</totfact>
</mgrwt>
</event>
<event>
 5    1  0.1854763E+000  0.8120068E+02  0.7546771E-02  0.1325678E+00
         21   -1    0    0  503  502  0.00000000000E+00  0.00000000000E+00  0.68600876094E+03  0.68600876094E+03  0.00000000000E+00 0.  1.
         21   -1    0    0  501  503 -0.00000000000E+00 -0.00000000000E+00 -0.24864011844E+02  0.24864011844E+02  0.00000000000E+00 0.  1.
         24    1    1    2    0    0  0.60604367017E+02 -0.18961661056E+01  0.89763142306E+02  0.13491153553E+03  0.80419002446E+02 0.  1.
          1    1    1    2  501    0 -0.28979598532E+02  0.65758105094E+01  0.12696241373E+03  0.13039368434E+03  0.00000000000E+00 0. -1.
         -2    1    1    2    0  502 -0.31624768485E+02 -0.46796444039E+01  0.44441919305E+03  0.44556755291E+03  0.00000000000E+00 0.  1.
<mgrwt>
<rscale>  2 0.81200683E+02</rscale>
<asrwt>0</asrwt>
<pdfrwt beam="1">  1       21 0.10553980E+00 0.81200683E+02</pdfrwt>
<pdfrwt beam="2">  1       21 0.38252331E-02 0.81200683E+02</pdfrwt>
<totfact> 0.31376086E+05</totfact>
</mgrwt>
</event>
<event>
 5    1  0.1854763E+000  0.7509966E+02  0.7546771E-02  0.1343563E+00
         21   -1    0    0  501  502  0.00000000000E+00  0.00000000000E+00  0.42307211586E+02  0.42307211586E+02  0.00000000000E+00 0. -1.
         21   -1    0    0  502  503 -0.00000000000E+00 -0.00000000000E+00 -0.27322032849E+03  0.27322032849E+03  0.00000000000E+00 0. -1.
         24    1    1    2    0    0  0.25089431573E+02 -0.14550781245E+02 -0.19145798328E+03  0.20967732383E+03  0.80419002446E+02 0. -1.
          1    1    1    2  501    0 -0.43984074800E+02  0.79578076200E+01  0.15543747808E+02  0.47323711119E+02  0.00000000000E+00 0. -1.
         -2    1    1    2    0  503  0.18894643227E+02  0.65929736249E+01 -0.54998881433E+02  0.58526505131E+02  0.00000000000E+00 0.  1.
<mgrwt>
<rscale>  2 0.75099665E+02</rscale>
<asrwt>0</asrwt>
<pdfrwt beam="1">  1       21 0.65088021E-02 0.75099665E+02</pdfrwt>
<pdfrwt beam="2">  1       21 0.42033895E-01 0.75099665E+02</pdfrwt>
<totfact> 0.92984093E+05</totfact>
</mgrwt>
</event>
<event>
 5    1  0.1854763E+000  0.1355106E+03  0.7546771E-02  0.1219501E+00
         21   -1    0    0  503  502  0.00000000000E+00  0.00000000000E+00  0.39829538096E+03  0.39829538096E+03  0.00000000000E+00 0. -1.
         21   -1    0    0  501  503 -0.00000000000E+00 -0.00000000000E+00 -0.25485877246E+03  0.25485877246E+03  0.00000000000E+00 0. -1.
         24    1    1    2    0    0  0.94580608133E+02  0.47222928112E+02  0.32537506458E+03  0.35144223562E+03  0.80419002446E+02 0. -1.
          1    1    1    2  501    0 -0.77315501077E+01 -0.50690790545E+02 -0.20538300710E+03  0.21168729938E+03  0.00000000000E+00 0. -1.
         -2    1    1    2    0  502 -0.86849058026E+02  0.34678624339E+01  0.23444551026E+02  0.90024618425E+02  0.00000000000E+00 0.  1.
<mgrwt>
<rscale>  2 0.13551058E+03</rscale>
<asrwt>0</asrwt>
<pdfrwt beam="1">  1       21 0.61276213E-01 0.13551058E+03</pdfrwt>
<pdfrwt beam="2">  1       21 0.39209042E-01 0.13551058E+03</pdfrwt>
<totfact> 0.16144155E+04</totfact>
</mgrwt>
</event>
<event>
 5    1  0.4291492E+000  0.8213222E+02  0.7546771E-02  0.1323107E+00
         21   -1    0    0  501  502  0.00000000000E+00  0.00000000000E+00  0.75007763654E+03  0.75007763654E+03  0.00000000000E+00 0. -1.
         21   -1    0    0  502  503 -0.00000000000E+00 -0.00000000000E+00 -0.92452402110E+02  0.92452402110E+02  0.00000000000E+00 0.  1.
         24    1    1    2    0    0  0.18400014825E+01  0.32927415245E+02  0.63727276305E+03  0.64317290891E+03  0.80419002446E+02 0. -1.
          1    1    1    2  501    0 -0.33683726917E+02 -0.32895447644E+01  0.10165891560E+03  0.10714452708E+03  0.00000000000E+00 0. -1.
         -2    1    1    2    0  503  0.31843725434E+02 -0.29637870480E+02 -0.81306444218E+02  0.92212602650E+02  0.00000000000E+00 0.  1.
<mgrwt>
<rscale>  2 0.82132223E+02</rscale>
<asrwt>0</asrwt>
<pdfrwt beam="1">  1       21 0.11539656E+00 0.82132223E+02</pdfrwt>
<pdfrwt beam="2">  1       21 0.14223447E-01 0.82132223E+02</pdfrwt>
<totfact> 0.27313840E+04</totfact>
</mgrwt>
</event>
<event>
 5    1  0.1854763E+000  0.8722654E+02  0.7546771E-02  0.1309710E+00
         21   -1    0    0  503  502  0.00000000000E+00  0.00000000000E+00  0.14773125855E+03  0.14773125855E+03  0.00000000000E+00 0.  1.
         21   -1    0    0  501  503 -0.00000000000E+00 -0.00000000000E+00 -0.88468513112E+02  0.88468513112E+02  0.00000000000E+00 0. -1.
         24    1    1    2    0    0 -0.63799442756E+01  0.23691255432E+02  0.76861305700E+02  0.11391600213E+03  0.80419002446E+02 0.  1.
          1    1    1    2  501    0 -0.25455605666E+02  0.22702414691E+02 -0.47568790502E+02  0.58533557234E+02  0.00000000000E+00 0. -1.
         -2    1    1    2    0  502  0.31835549941E+02 -0.46393670122E+02  0.29970230241E+02  0.63750212299E+02  0.00000000000E+00 0.  1.
<mgrwt>
<rscale>  2 0.87226540E+02</rscale>
<asrwt>0</asrwt>
<pdfrwt beam="1">  1       21 0.22727886E-01 0.87226540E+02</pdfrwt>
<pdfrwt beam="2">  1       21 0.13610540E-01 0.87226540E+02</pdfrwt>
<totfact> 0.84831173E+05</totfact>
</mgrwt>
</event>
<event>
 5    1  0.1854763E+000  0.8362628E+02  0.7546771E-02  0.1319065E+00
         21   -1    0    0  501  502  0.00000000000E+00  0.00000000000E+00  0.25181934443E+03  0.25181934443E+03  0.00000000000E+00 0. -1.
         21   -1    0    0  502  503 -0.00000000000E+00 -0.00000000000E+00 -0.88612938128E+02  0.88612938128E+02  0.00000000000E+00 0.  1.
         24    1    1    2    0    0  0.52944327162E+02 -0.13209917183E+02  0.67527723815E+02  0.11834193309E+03  0.80419002446E+02 0. -1.
          1    1    1    2  501    0 -0.47480367802E+02 -0.80141650429E+01  0.15317154612E+03  0.16056193419E+03  0.00000000000E+00 0. -1.
         -2    1    1    2    0  503 -0.54639593600E+01  0.21224082226E+02 -0.57492863632E+02  0.61528415280E+02  0.00000000000E+00 0.  1.
<mgrwt>
<rscale>  2 0.83626278E+02</rscale>
<asrwt>0</asrwt>
<pdfrwt beam="1">  1       21 0.38741437E-01 0.83626278E+02</pdfrwt>
<pdfrwt beam="2">  1       21 0.13632760E-01 0.83626278E+02</pdfrwt>
<totfact> 0.30616683E+05</totfact>
</mgrwt>
</event>
<event>
 5    1  0.1854763E+000  0.1287415E+03  0.7546771E-02  0.1229335E+00
         21   -1    0    0  501  502  0.00000000000E+00  0.00000000000E+00  0.62166253709E+03  0.62166253709E+03  0.00000000000E+00 0. -1.
         21   -1    0    0  502  503 -0.00000000000E+00 -0.00000000000E+00 -0.61252782193E+02  0.61252782193E+02  0.00000000000E+00 0. -1.
         24    1    1    2    0    0 -0.85852717226E+02  0.19593674632E+02  0.31772927981E+02  0.12341529908E+03  0.80419002446E+02 0. -1.
          1    1    1    2  501    0  0.72920386815E+02 -0.60861099394E+02  0.49680166133E+03  0.50579971030E+03  0.00000000000E+00 0. -1.
         -2    1    1    2    0  503  0.12932330410E+02  0.41267424762E+02  0.31835165587E+02  0.53700309909E+02  0.00000000000E+00 0.  1.
<mgrwt>
<rscale>  2 0.12874147E+03</rscale>
<asrwt>0</asrwt>
<pdfrwt beam="1">  1       21 0.95640386E-01 0.12874147E+03</pdfrwt>
<pdfrwt beam="2">  1       21 0.94235054E-02 0.12874147E+03</pdfrwt>
<totfact> 0.84540123E+04</totfact>
</mgrwt>
</event>
<event>
 5    1  0.1854763E+000  0.1520547E+03  0.7546771E-02  0.1197971E+00
         21   -1    0    0  503  502  0.00000000000E+00  0.00000000000E+00  0.77196706577E+02  0.77196706577E+02  0.00000000000E+00 0.  1.
         21   -1    0    0  501  503 -0.00000000000E+00 -0.00000000000E+00 -0.11200309489E+04  0.11200309489E+04  0.00000000000E+00 0. -1.
         24    1    1    2    0    0  0.12793664084E+03  0.10138805829E+02 -0.54936749396E+02  0.16110816814E+03  0.80419002446E+02 0.  0.
          1    1    1    2  501    0 -0.77157389279E+02  0.34991584035E+02 -0.95826394533E+03  0.96200179968E+03  0.00000000000E+00 0. -1.
         -2    1    1    2    0  502 -0.50779251562E+02 -0.45130389864E+02 -0.29633547584E+02  0.74117687639E+02  0.00000000000E+00 0.  1.
<mgrwt>
<rscale>  2 0.15205466E+03</rscale>
<asrwt>0</asrwt>
<pdfrwt beam="1">  1       21 0.11876417E-01 0.15205466E+03</pdfrwt>
<pdfrwt beam="2">  1       21 0.17231244E+00 0.15205466E+03</pdfrwt>
<totfact> 0.12704413E+04</totfact>
</mgrwt>
</event>
<event>
 5    1  0.1854763E+000  0.8589428E+02  0.7546771E-02  0.1313110E+00
         21   -1    0    0  503  502  0.00000000000E+00  0.00000000000E+00  0.20340547109E+03  0.20340547109E+03  0.00000000000E+00 0.  1.
         21   -1    0    0  501  503 -0.00000000000E+00 -0.00000000000E+00 -0.41113251271E+02  0.41113251271E+02  0.00000000000E+00 0. -1.
         24    1    1    2    0    0  0.49688644664E+01 -0.16382793643E+02  0.75138526719E+02  0.11138267232E+03  0.80419002446E+02 0. -1.
          1    1    1    2  501    0 -0.58951222717E+01  0.52805244677E+02  0.20071173520E+02  0.56797872658E+02  0.00000000000E+00 0. -1.
         -2    1    1    2    0  502  0.92625780529E+00 -0.36422451034E+02  0.67082519583E+02  0.76338177385E+02  0.00000000000E+00 0.  1.
<mgrwt>
<rscale>  2 0.85894284E+02</rscale>
<asrwt>0</asrwt>
<pdfrwt beam="1">  1       21 0.31293149E-01 0.85894284E+02</pdfrwt>
<pdfrwt beam="2">  1       21 0.63251157E-02 0.85894284E+02</pdfrwt>
<totfact> 0.17397439E+06</totfact>
</mgrwt>
</event>
<event>
 5    1  0.1854763E+000  0.7160675E+02  0.7546771E-02  0.1354713E+00
         21   -1    0    0  501  502  0.00000000000E+00  0.00000000000E+00  0.19625970779E+04  0.19625970779E+04  0.00000000000E+00 0. -1.
         21   -1    0    0  502  503 -0.00000000000E+00 -0.00000000000E+00 -0.17938852921E+02  0.17938852921E+02  0.00000000000E+00 0.  1.
         24    1    1    2    0    0 -0.21595561979E+02 -0.18789670130E+02  0.38319085116E+03  0.39258357628E+03  0.80419002446E+02 0. -1.
          1    1    1    2  501    0  0.19820464641E+02 -0.14472701210E+02  0.15535119870E+04  0.15537058292E+04  0.00000000000E+00 0. -1.
         -2    1    1    2    0  503  0.17750973377E+01  0.33262371340E+02  0.79553867943E+01  0.34246525324E+02  0.00000000000E+00 0.  1.
<mgrwt>
<rscale>  2 0.71606750E+02</rscale>
<asrwt>0</asrwt>
<pdfrwt beam="1">  1       21 0.30193784E+00 0.71606750E+02</pdfrwt>
<pdfrwt beam="2">  1       21 0.27598251E-02 0.71606750E+02</pdfrwt>
<totfact> 0.28793426E+04</totfact>
</mgrwt>
</event>
<event>
 5    1  0.1854763E+000  0.1117664E+03  0.7546771E-02  0.1257333E+00
         21   -1    0    0  503  502  0.00000000000E+00  0.00000000000E+00  0.37037531421E+02  0.37037531421E+02  0.00000000000E+00 0.  1.
         21   -1    0    0  501  503 -0.00000000000E+00 -0.00000000000E+00 -0.61599500099E+03  0.61599500099E+03  0.00000000000E+00 0. -1.
         24    1    1    2    0    0  0.44688637136E+02 -0.74542662135E+02 -0.34846447873E+03  0.36803313935E+03  0.80419002446E+02 0.  1.
          1    1    1    2  501    0 -0.15304876631E+02  0.74174342692E+02 -0.24189836656E+03  0.25347759685E+03  0.00000000000E+00 0. -1.
         -2    1    1    2    0  502 -0.29383760505E+02  0.36831944365E+00  0.11405375724E+02  0.31521796206E+02  0.00000000000E+00 0.  1.
<mgrwt>
<rscale>  2 0.11176640E+03</rscale>
<asrwt>0</asrwt>
<pdfrwt beam="1">  1       21 0.56980817E-02 0.11176640E+03</pdfrwt>
<pdfrwt beam="2">  1       21 0.94768462E-01 0.11176640E+03</pdfrwt>
<totfact> 0.20580439E+05</totfact>
</mgrwt>
</event>
<event>
 5    1  0.1854763E+000  0.1174479E+03  0.7546771E-02  0.1247368E+00
         21   -1    0    0  501  502  0.00000000000E+00  0.00000000000E+00  0.36785875619E+02  0.36785875619E+02  0.00000000000E+00 0.  1.
         21   -1    0    0  502  503 -0.00000000000E+00 -0.00000000000E+00 -0.40910518920E+03  0.40910518920E+03  0.00000000000E+00 0. -1.
         24    1    1    2    0    0 -0.37638572284E+01  0.81930721481E+02 -0.24384304354E+03  0.26954304958E+03  0.80419002446E+02 0.  0.
          1    1    1    2  501    0 -0.41513825301E+02 -0.30527646574E+02 -0.45438254932E+02  0.68702037144E+02  0.00000000000E+00 0. -1.
         -2    1    1    2    0  503  0.45277682529E+02 -0.51403074907E+02 -0.83038015114E+02  0.10764597809E+03  0.00000000000E+00 0.  1.
<mgrwt>
<rscale>  2 0.11744794E+03</rscale>
<asrwt>0</asrwt>
<pdfrwt beam="1">  1       21 0.56593653E-02 0.11744794E+03</pdfrwt>
<pdfrwt beam="2">  1       21 0.62939262E-01 0.11744794E+03</pdfrwt>
<totfact> 0.51449267E+05</totfact>
</mgrwt>
</event>
<event>
 5    1  0.1854763E+000  0.8084463E+02  0.7546771E-02  0.1326671E+00
         21   -1    0    0  503  502  0.00000000000E+00  0.00000000000E+00  0.21309836784E+03  0.21309836784E+03  0.00000000000E+00 0. -1.
         21   -1    0    0  501  503 -0.00000000000E+00 -0.00000000000E+00 -0.49104564078E+02  0.49104564078E+02  0.00000000000E+00 0.  1.
         24    1    1    2    0    0  0.53087215179E+02 -0.21445358145E+02  0.17206207185E+02  0.10020691254E+03  0.80419002446E+02 0.  1.
          1    1    1    2  501    0 -0.30212560866E+02  0.25746787490E+02  0.58530879625E+02  0.70721706497E+02  0.00000000000E+00 0. -1.
         -2    1    1    2    0  502 -0.22874654312E+02 -0.43014293452E+01  0.88256716956E+02  0.91274312882E+02  0.00000000000E+00 0.  1.
<mgrwt>
<rscale>  2 0.80844627E+02</rscale>
<asrwt>0</asrwt>
<pdfrwt beam="1">  1       21 0.32784364E-01 0.80844627E+02</pdfrwt>
<pdfrwt beam="2">  1       21 0.75545484E-02 0.80844627E+02</pdfrwt>
<totfact> 0.11762257E+06</totfact>
</mgrwt>
</event>
<event>
 5    1  0.1854763E+000  0.6689929E+02  0.7546771E-02  0.1370966E+00
         21   -1    0    0  501  502  0.00000000000E+00  0.00000000000E+00  0.78766738404E+02  0.78766738404E+02  0.00000000000E+00 0.  1.
         21   -1    0    0  502  503 -0.00000000000E+00 -0.00000000000E+00 -0.13084549190E+03  0.13084549190E+03  0.00000000000E+00 0. -1.
         24    1    1    2    0    0  0.25689619177E+02 -0.93293217285E+01 -0.77138410326E+02  0.11473684273E+03  0.80419002446E+02 0. -1.
          1    1    1    2  501    0  0.31679485154E+00  0.20539864665E+02  0.51924561142E+02  0.55840365769E+02  0.00000000000E+00 0. -1.
         -2    1    1    2    0  503 -0.26006414029E+02 -0.11210542937E+02 -0.26864904309E+02  0.39035021802E+02  0.00000000000E+00 0.  1.
<mgrwt>
<rscale>  2 0.66899292E+02</rscale>
<asrwt>0</asrwt>
<pdfrwt beam="1">  1       21 0.12117960E-01 0.66899292E+02</pdfrwt>
<pdfrwt beam="2">  1       21 0.20130075E-01 0.66899292E+02</pdfrwt>
<totfact> 0.12901312E+06</totfact>
</mgrwt>
</event>
<event>
 5    1  0.1854763E+000  0.1078468E+03  0.7546771E-02  0.1264610E+00
         21   -1    0    0  503  502  0.00000000000E+00  0.00000000000E+00  0.11131920125E+03  0.11131920125E+03  0.00000000000E+00 0.  1.
         21   -1    0    0  501  503 -0.00000000000E+00 -0.00000000000E+00 -0.11129850428E+03  0.11129850428E+03  0.00000000000E+00 0.  1.
         24    1    1    2    0    0 -0.85872275651E+02  0.27629211808E+02 -0.21716815421E+02  0.12278541077E+03  0.80419002446E+02 0.  1.
          1    1    1    2  501    0  0.66198559858E+02 -0.73758913125E+01  0.45203413875E+01  0.66761415400E+02  0.00000000000E+00 0. -1.
         -2    1    1    2    0  502  0.19673715793E+02 -0.20253320495E+02  0.17217171011E+02  0.33070879362E+02  0.00000000000E+00 0.  1.
<mgrwt>
<rscale>  2 0.10784675E+03</rscale>
<asrwt>0</asrwt>
<pdfrwt beam="1">  1       21 0.17126031E-01 0.10784675E+03</pdfrwt>
<pdfrwt beam="2">  1       21 0.17122847E-01 0.10784675E+03</pdfrwt>
<totfact> 0.94719317E+05</totfact>
</mgrwt>
</event>
<event>
 5    1  0.1854763E+000  0.1083693E+03  0.7546771E-02  0.1263620E+00
         21   -1    0    0  501  502  0.00000000000E+00  0.00000000000E+00  0.21639919244E+03  0.21639919244E+03  0.00000000000E+00 0. -1.
         21   -1    0    0  502  503 -0.00000000000E+00 -0.00000000000E+00 -0.57586260113E+02  0.57586260113E+02  0.00000000000E+00 0. -1.
         24    1    1    2    0    0  0.19104898870E+02 -0.91123826488E+02  0.59166822950E+02  0.13651548559E+03  0.80419002446E+02 0. -1.
          1    1    1    2  501    0 -0.10339225708E+02  0.71164651457E+02  0.84330300027E+02  0.11082827576E+03  0.00000000000E+00 0. -1.
         -2    1    1    2    0  503 -0.87656731621E+01  0.19959175030E+02  0.15315809351E+02  0.26641691199E+02  0.00000000000E+00 0.  1.
<mgrwt>
<rscale>  2 0.10836926E+03</rscale>
<asrwt>0</asrwt>
<pdfrwt beam="1">  1       21 0.33292183E-01 0.10836926E+03</pdfrwt>
<pdfrwt beam="2">  1       21 0.88594248E-02 0.10836926E+03</pdfrwt>
<totfact> 0.87378953E+05</totfact>
</mgrwt>
</event>
<event>
 5    1  0.1854763E+000  0.7331023E+02  0.7546771E-02  0.1349185E+00
         21   -1    0    0  501  502  0.00000000000E+00  0.00000000000E+00  0.21901330302E+02  0.21901330302E+02  0.00000000000E+00 0. -1.
         21   -1    0    0  502  503 -0.00000000000E+00 -0.00000000000E+00 -0.51192894181E+03  0.51192894181E+03  0.00000000000E+00 0.  1.
         24    1    1    2    0    0  0.21951095521E+02 -0.98033230049E+01 -0.15732660096E+03  0.17831665951E+03  0.80419002446E+02 0.  0.
          1    1    1    2  501    0  0.10912806004E+02 -0.17051233563E+02 -0.12922060743E+00  0.20244767197E+02  0.00000000000E+00 0. -1.
         -2    1    1    2    0  503 -0.32863901525E+02  0.26854556568E+02 -0.33257178994E+03  0.33526884540E+03  0.00000000000E+00 0.  1.
<mgrwt>
<rscale>  2 0.73310230E+02</rscale>
<asrwt>0</asrwt>
<pdfrwt beam="1">  1       21 0.33694356E-02 0.73310230E+02</pdfrwt>
<pdfrwt beam="2">  1       21 0.78758296E-01 0.73310230E+02</pdfrwt>
<totfact> 0.74744877E+05</totfact>
</mgrwt>
</event>
<event>
 5    1  0.1854763E+000  0.6937309E+02  0.7546771E-02  0.1362238E+00
         21   -1    0    0  501  502  0.00000000000E+00  0.00000000000E+00  0.25158147227E+03  0.25158147227E+03  0.00000000000E+00 0. -1.
         21   -1    0    0  502  503 -0.00000000000E+00 -0.00000000000E+00 -0.37940417642E+02  0.37940417642E+02  0.00000000000E+00 0.  1.
         24    1    1    2    0    0  0.43794848646E+02 -0.11595464564E+02  0.43648376575E+02  0.10210210722E+03  0.80419002446E+02 0.  1.
          1    1    1    2  501    0 -0.25623014086E+02  0.15247287604E+01  0.16371673362E+03  0.16571672371E+03  0.00000000000E+00 0. -1.
         -2    1    1    2    0  503 -0.18171834560E+02  0.10070735804E+02  0.62759444334E+01  0.21703058988E+02  0.00000000000E+00 0.  1.
<mgrwt>
<rscale>  2 0.69373088E+02</rscale>
<asrwt>0</asrwt>
<pdfrwt beam="1">  1       21 0.38704841E-01 0.69373088E+02</pdfrwt>
<pdfrwt beam="2">  1       21 0.58369875E-02 0.69373088E+02</pdfrwt>
<totfact> 0.13091885E+06</totfact>
</mgrwt>
</event>
<event>
 5    1  0.1854763E+000  0.8031679E+02  0.7546771E-02  0.1328155E+00
         21   -1    0    0  503  502  0.00000000000E+00  0.00000000000E+00  0.10866967963E+03  0.10866967963E+03  0.00000000000E+00 0. -1.
         21   -1    0    0  501  503 -0.00000000000E+00 -0.00000000000E+00 -0.91618212092E+02  0.91618212092E+02  0.00000000000E+00 0.  1.
         24    1    1    2    0    0 -0.24099469880E+02 -0.27930419568E+02 -0.22622155951E+02  0.91322892420E+02  0.80419002446E+02 0.  0.
          1    1    1    2  501    0 -0.21113049236E+02  0.62746236334E+01 -0.20882066302E+02  0.30351152248E+02  0.00000000000E+00 0. -1.
         -2    1    1    2    0  502  0.45212519116E+02  0.21655795935E+02  0.60555689786E+02  0.78613847049E+02  0.00000000000E+00 0.  1.
<mgrwt>
<rscale>  2 0.80316794E+02</rscale>
<asrwt>0</asrwt>
<pdfrwt beam="1">  1       21 0.16718412E-01 0.80316794E+02</pdfrwt>
<pdfrwt beam="2">  1       21 0.14095110E-01 0.80316794E+02</pdfrwt>
<totfact> 0.13926058E+06</totfact>
</mgrwt>
</event>
<event>
 5    1  0.1854763E+000  0.6791781E+02  0.7546771E-02  0.1367320E+00
         21   -1    0    0  501  502  0.00000000000E+00  0.00000000000E+00  0.51507420711E+02  0.51507420711E+02  0.00000000000E+00 0.  1.
         21   -1    0    0  502  503 -0.00000000000E+00 -0.00000000000E+00 -0.17112532685E+03  0.17112532685E+03  0.00000000000E+00 0.  1.
         24    1    1    2    0    0  0.37730511852E+02  0.22437271685E+02 -0.38438021031E+02  0.99356530235E+02  0.80419002446E+02 0.  1.
          1    1    1    2  501    0 -0.19850872699E+02 -0.87275859757E+01  0.13771582582E+02  0.25688215015E+02  0.00000000000E+00 0. -1.
         -2    1    1    2    0  503 -0.17879639153E+02 -0.13709685709E+02 -0.94951467689E+02  0.97588002310E+02  0.00000000000E+00 0.  1.
<mgrwt>
<rscale>  2 0.67917809E+02</rscale>
<asrwt>0</asrwt>
<pdfrwt beam="1">  1       21 0.79242187E-02 0.67917809E+02</pdfrwt>
<pdfrwt beam="2">  1       21 0.26326973E-01 0.67917809E+02</pdfrwt>
<totfact> 0.16332936E+06</totfact>
</mgrwt>
</event>
<event>
 5    1  0.1854763E+000  0.8569929E+02  0.7546771E-02  0.1313614E+00
         21   -1    0    0  501  502  0.00000000000E+00  0.00000000000E+00  0.10596199406E+04  0.10596199406E+04  0.00000000000E+00 0. -1.
         21   -1    0    0  502  503 -0.00000000000E+00 -0.00000000000E+00 -0.20164411957E+02  0.20164411957E+02  0.00000000000E+00 0. -1.
         24    1    1    2    0    0 -0.24769691900E+01 -0.27631132846E+02  0.15462498979E+03  0.17648149563E+03  0.80419002446E+02 0. -1.
          1    1    1    2  501    0  0.22641752501E+02 -0.22728860403E+02  0.81126530043E+03  0.81189940124E+03  0.00000000000E+00 0. -1.
         -2    1    1    2    0  503 -0.20164783311E+02  0.50359993249E+02  0.73565238397E+02  0.91403455659E+02  0.00000000000E+00 0.  1.
<mgrwt>
<rscale>  2 0.85699294E+02</rscale>
<asrwt>0</asrwt>
<pdfrwt beam="1">  1       21 0.16301841E+00 0.85699294E+02</pdfrwt>
<pdfrwt beam="2">  1       21 0.31022180E-02 0.85699294E+02</pdfrwt>
<totfact> 0.15141340E+05</totfact>
</mgrwt>
</event>
<event>
 5    1  0.1854763E+000  0.7214700E+02  0.7546771E-02  0.1352941E+00
         21   -1    0    0  501  502  0.00000000000E+00  0.00000000000E+00  0.36794653900E+03  0.36794653900E+03  0.00000000000E+00 0. -1.
         21   -1    0    0  502  503 -0.00000000000E+00 -0.00000000000E+00 -0.14321364881E+02  0.14321364881E+02  0.00000000000E+00 0. -1.
         24    1    1    2    0    0  0.35247168031E+02 -0.22474724571E+02  0.22796983475E+03  0.24532618614E+03  0.80419002446E+02 0. -1.
          1    1    1    2  501    0 -0.37017378153E+01  0.21794159525E+02  0.63466686092E+02  0.67206461712E+02  0.00000000000E+00 0. -1.
         -2    1    1    2    0  503 -0.31545430216E+02  0.68056504530E+00  0.62188653279E+02  0.69735256026E+02  0.00000000000E+00 0.  1.
<mgrwt>
<rscale>  2 0.72147002E+02</rscale>
<asrwt>0</asrwt>
<pdfrwt beam="1">  1       21 0.56607153E-01 0.72147002E+02</pdfrwt>
<pdfrwt beam="2">  1       21 0.22032872E-02 0.72147002E+02</pdfrwt>
<totfact> 0.29871926E+06</totfact>
</mgrwt>
</event>
<event>
 5    1  0.1854763E+000  0.1056812E+03  0.7546771E-02  0.1268783E+00
         21   -1    0    0  501  502  0.00000000000E+00  0.00000000000E+00  0.37013336520E+03  0.37013336520E+03  0.00000000000E+00 0.  1.
         21   -1    0    0  502  503 -0.00000000000E+00 -0.00000000000E+00 -0.19153237040E+03  0.19153237040E+03  0.00000000000E+00 0.  1.
         24    1    1    2    0    0  0.87458058785E+02  0.21691709826E+02  0.24228033868E+03  0.27071464827E+03  0.80419002446E+02 0.  1.
          1    1    1    2  501    0 -0.26542932278E+02 -0.11042497302E+02  0.10627572701E+03  0.11009538661E+03  0.00000000000E+00 0. -1.
         -2    1    1    2    0  503 -0.60915126508E+02 -0.10649212524E+02 -0.16995507089E+03  0.18085570073E+03  0.00000000000E+00 0.  1.
<mgrwt>
<rscale>  2 0.10568125E+03</rscale>
<asrwt>0</asrwt>
<pdfrwt beam="1">  1       21 0.56943595E-01 0.10568125E+03</pdfrwt>
<pdfrwt beam="2">  1       21 0.29466518E-01 0.10568125E+03</pdfrwt>
<totfact> 0.33701710E+04</totfact>
</mgrwt>
</event>
<event>
 5    1  0.1854763E+000  0.1209988E+03  0.7546771E-02  0.1241458E+00
         21   -1    0    0  503  502  0.00000000000E+00  0.00000000000E+00  0.18084612133E+04  0.18084612133E+04  0.00000000000E+00 0.  1.
         21   -1    0    0  501  503 -0.00000000000E+00 -0.00000000000E+00 -0.13060621642E+03  0.13060621642E+03  0.00000000000E+00 0. -1.
         24    1    1    2    0    0  0.25766365144E+02  0.65923343540E+02  0.55538394872E+03  0.56562208165E+03  0.80419002446E+02 0. -1.
          1    1    1    2  501    0  0.42099004506E+02 -0.28144472855E+01 -0.12016555948E+03  0.12735779905E+03  0.00000000000E+00 0. -1.
         -2    1    1    2    0  502 -0.67865369651E+02 -0.63108896254E+02  0.12426366076E+04  0.12460875490E+04  0.00000000000E+00 0.  1.
<mgrwt>
<rscale>  2 0.12099881E+03</rscale>
<asrwt>0</asrwt>
<pdfrwt beam="1">  1       21 0.27822478E+00 0.12099881E+03</pdfrwt>
<pdfrwt beam="2">  1       21 0.20093265E-01 0.12099881E+03</pdfrwt>
<totfact> 0.11671948E+03</totfact>
</mgrwt>
</event>
<event>
 5    1  0.1854763E+000  0.2003043E+03  0.7546771E-02  0.1149482E+00
         21   -1    0    0  501  502  0.00000000000E+00  0.00000000000E+00  0.12298042829E+04  0.12298042829E+04  0.00000000000E+00 0. -1.
         21   -1    0    0  502  503 -0.00000000000E+00 -0.00000000000E+00 -0.75804356874E+02  0.75804356874E+02  0.00000000000E+00 0.  1.
         24    1    1    2    0    0  0.12718018888E+03 -0.10384079724E+03  0.30619192541E+03  0.35662083892E+03  0.80419002446E+02 0.  1.
          1    1    1    2  501    0  0.27821988863E+02  0.43111345044E+02  0.75818966274E+03  0.75992382238E+03  0.00000000000E+00 0. -1.
         -2    1    1    2    0  503 -0.15500217774E+03  0.60729452192E+02  0.89618337867E+02  0.18906397846E+03  0.00000000000E+00 0.  1.
<mgrwt>
<rscale>  2 0.20030433E+03</rscale>
<asrwt>0</asrwt>
<pdfrwt beam="1">  1       21 0.18920064E+00 0.20030433E+03</pdfrwt>
<pdfrwt beam="2">  1       21 0.11662210E-01 0.20030433E+03</pdfrwt>
<totfact> 0.96882055E+03</totfact>
</mgrwt>
</event>
<event>
 5    1  0.1854763E+000  0.1535060E+03  0.7546771E-02  0.1196230E+00
         21   -1    0    0  503  502  0.00000000000E+00  0.00000000000E+00  0.97003961611E+02  0.97003961611E+02  0.00000000000E+00 0.  1.
         21   -1    0    0  501  503 -0.00000000000E+00 -0.00000000000E+00 -0.29364153630E+03  0.29364153630E+03  0.00000000000E+00 0.  1.
         24    1    1    2    0    0  0.12665000928E+03  0.44030627189E+02 -0.74254679038E+02  0.17308926684E+03  0.80419002446E+02 0.  1.
          1    1    1    2  501    0 -0.72710065229E+01 -0.29519311610E+02 -0.87063999443E+02  0.92219289158E+02  0.00000000000E+00 0. -1.
         -2    1    1    2    0  502 -0.11937900276E+03 -0.14511315579E+02 -0.35318896207E+02  0.12533694191E+03  0.00000000000E+00 0.  1.
<mgrwt>
<rscale>  2 0.15350597E+03</rscale>
<asrwt>0</asrwt>
<pdfrwt beam="1">  1       21 0.14923686E-01 0.15350597E+03</pdfrwt>
<pdfrwt beam="2">  1       21 0.45175621E-01 0.15350597E+03</pdfrwt>
<totfact> 0.18831017E+05</totfact>
</mgrwt>
</event>
<event>
 5    1  0.1854763E+000  0.9875351E+02  0.7546771E-02  0.1282939E+00
         21   -1    0    0  501  502  0.00000000000E+00  0.00000000000E+00  0.31900075677E+02  0.31900075677E+02  0.00000000000E+00 0.  1.
         21   -1    0    0  502  503 -0.00000000000E+00 -0.00000000000E+00 -0.33191052965E+03  0.33191052965E+03  0.00000000000E+00 0. -1.
         24    1    1    2    0    0 -0.51426658272E+02  0.10861569143E+02 -0.15576157496E+03  0.18300699182E+03  0.80419002446E+02 0. -1.
          1    1    1    2  501    0 -0.24691305576E+02 -0.14001948001E+01 -0.11026675131E+02  0.27077826371E+02  0.00000000000E+00 0. -1.
         -2    1    1    2    0  503  0.76117963848E+02 -0.94613743434E+01 -0.13322220388E+03  0.15372578714E+03  0.00000000000E+00 0.  1.
<mgrwt>
<rscale>  2 0.98753512E+02</rscale>
<asrwt>0</asrwt>
<pdfrwt beam="1">  1       21 0.49077038E-02 0.98753512E+02</pdfrwt>
<pdfrwt beam="2">  1       21 0.51063159E-01 0.98753512E+02</pdfrwt>
<totfact> 0.10118440E+06</totfact>
</mgrwt>
</event>
<event>
 5    1  0.1854763E+000  0.1125584E+03  0.7546771E-02  0.1255904E+00
         21   -1    0    0  501  502  0.00000000000E+00  0.00000000000E+00  0.14978890790E+03  0.14978890790E+03  0.00000000000E+00 0. -1.
         21   -1    0    0  502  503 -0.00000000000E+00 -0.00000000000E+00 -0.96266472977E+03  0.96266472977E+03  0.00000000000E+00 0. -1.
         24    1    1    2    0    0 -0.20831105497E+02 -0.81240893467E+02 -0.80035117115E+03  0.80874175782E+03  0.80419002446E+02 0. -1.
          1    1    1    2  501    0  0.41199459880E+02  0.22918225131E+02  0.13541748653E+03  0.14338945636E+03  0.00000000000E+00 0. -1.
         -2    1    1    2    0  503 -0.20368354383E+02  0.58322668336E+02 -0.14794213725E+03  0.16032242349E+03  0.00000000000E+00 0.  1.
<mgrwt>
<rscale>  2 0.11255837E+03</rscale>
<asrwt>0</asrwt>
<pdfrwt beam="1">  1       21 0.23044449E-01 0.11255837E+03</pdfrwt>
<pdfrwt beam="2">  1       21 0.14810226E+00 0.11255837E+03</pdfrwt>
<totfact> 0.59160257E+03</totfact>
</mgrwt>
</event>
<event>
 5    1  0.1854763E+000  0.1010262E+03  0.7546771E-02  0.1278153E+00
         21   -1    0    0  503  502  0.00000000000E+00  0.00000000000E+00  0.14849456762E+04  0.14849456762E+04  0.00000000000E+00 0. -1.
         21   -1    0    0  501  503 -0.00000000000E+00 -0.00000000000E+00 -0.13513177893E+02  0.13513177893E+02  0.00000000000E+00 0. -1.
         24    1    1    2    0    0 -0.11865707632E+02 -0.66172049868E+02  0.65452203535E+03  0.66286186036E+03  0.80419002446E+02 0. -1.
          1    1    1    2  501    0  0.41555284720E+02  0.38569024350E+02  0.82699566464E+02  0.10026778955E+03  0.00000000000E+00 0. -1.
         -2    1    1    2    0  502 -0.29689577088E+02  0.27603025518E+02  0.73421089650E+03  0.73532920420E+03  0.00000000000E+00 0.  1.
<mgrwt>
<rscale>  2 0.10102616E+03</rscale>
<asrwt>0</asrwt>
<pdfrwt beam="1">  1       21 0.22845305E+00 0.10102616E+03</pdfrwt>
<pdfrwt beam="2">  1       21 0.20789516E-02 0.10102616E+03</pdfrwt>
<totfact> 0.11059372E+05</totfact>
</mgrwt>
</event>
<event>
 5    1  0.1854763E+000  0.1814910E+03  0.7546771E-02  0.1166368E+00
         21   -1    0    0  501  502  0.00000000000E+00  0.00000000000E+00  0.60057734051E+03  0.60057734051E+03  0.00000000000E+00 0. -1.
         21   -1    0    0  502  503 -0.00000000000E+00 -0.00000000000E+00 -0.23310638697E+03  0.23310638697E+03  0.00000000000E+00 0.  1.
         24    1    1    2    0    0 -0.12550352033E+02 -0.17199773711E+03  0.21120955880E+03  0.28428405968E+03  0.80419002446E+02 0. -1.
          1    1    1    2  501    0  0.76919310647E+01  0.14871784677E+03  0.33630066006E+03  0.36779654391E+03  0.00000000000E+00 0. -1.
         -2    1    1    2    0  503  0.48584209681E+01  0.23279890339E+02 -0.18003926532E+03  0.18160312389E+03  0.00000000000E+00 0.  1.
<mgrwt>
<rscale>  2 0.18149098E+03</rscale>
<asrwt>0</asrwt>
<pdfrwt beam="1">  1       21 0.92396513E-01 0.18149098E+03</pdfrwt>
<pdfrwt beam="2">  1       21 0.35862521E-01 0.18149098E+03</pdfrwt>
<totfact> 0.74726099E+03</totfact>
</mgrwt>
</event>
<event>
 5    1  0.1854763E+000  0.8282576E+02  0.7546771E-02  0.1321218E+00
         21   -1    0    0  503  502  0.00000000000E+00  0.00000000000E+00  0.16934623849E+03  0.16934623849E+03  0.00000000000E+00 0.  1.
         21   -1    0    0  501  503 -0.00000000000E+00 -0.00000000000E+00 -0.58659838690E+03  0.58659838690E+03  0.00000000000E+00 0.  1.
         24    1    1    2    0    0  0.25412282345E+02 -0.50917600745E+02 -0.36889472633E+03  0.38182315439E+03  0.80419002446E+02 0.  1.
          1    1    1    2  501    0  0.84394706286E+01  0.18174103099E+02 -0.20734189125E+03  0.20830790325E+03  0.00000000000E+00 0. -1.
         -2    1    1    2    0  502 -0.33851752973E+02  0.32743497647E+02  0.15898446917E+03  0.16581356776E+03  0.00000000000E+00 0.  1.
<mgrwt>
<rscale>  2 0.82825759E+02</rscale>
<asrwt>0</asrwt>
<pdfrwt beam="1">  1       21 0.26053268E-01 0.82825759E+02</pdfrwt>
<pdfrwt beam="2">  1       21 0.90245905E-01 0.82825759E+02</pdfrwt>
<totfact> 0.16017654E+04</totfact>
</mgrwt>
</event>
<event>
 5    1  0.1854763E+000  0.1340093E+03  0.7546771E-02  0.1221625E+00
         21   -1    0    0  501  502  0.00000000000E+00  0.00000000000E+00  0.11625926761E+03  0.11625926761E+03  0.00000000000E+00 0. -1.
         21   -1    0    0  502  503 -0.00000000000E+00 -0.00000000000E+00 -0.27854700104E+03  0.27854700104E+03  0.00000000000E+00 0.  1.
         24    1    1    2    0    0  0.58529211704E+01  0.22275157647E+02 -0.81895068500E+02  0.11706603920E+03  0.80419002446E+02 0.  0.
          1    1    1    2  501    0 -0.78519452673E+01 -0.10315934668E+03  0.57129107749E+02  0.11818307326E+03  0.00000000000E+00 0. -1.
         -2    1    1    2    0  503  0.19990240969E+01  0.80884189034E+02 -0.13752177268E+03  0.15955715619E+03  0.00000000000E+00 0.  1.
<mgrwt>
<rscale>  2 0.13400931E+03</rscale>
<asrwt>0</asrwt>
<pdfrwt beam="1">  1       21 0.17886041E-01 0.13400931E+03</pdfrwt>
<pdfrwt beam="2">  1       21 0.42853385E-01 0.13400931E+03</pdfrwt>
<totfact> 0.15159607E+05</totfact>
</mgrwt>
</event>
<event>
 5    1  0.2776660E+000  0.1122791E+03  0.7546771E-02  0.1256407E+00
         21   -1    0    0  501  502  0.00000000000E+00  0.00000000000E+00  0.39011694223E+03  0.39011694223E+03  0.00000000000E+00 0. -1.
         21   -1    0    0  502  503 -0.00000000000E+00 -0.00000000000E+00 -0.50098104400E+03  0.50098104400E+03  0.00000000000E+00 0.  1.
         24    1    1    2    0    0 -0.66397821565E+02 -0.32287775568E+02  0.31169164456E+03  0.33025757887E+03  0.80419002446E+02 0.  1.
          1    1    1    2  501    0  0.17266699947E+01 -0.27356326637E+02  0.62302248715E+02  0.68065558040E+02  0.00000000000E+00 0. -1.
         -2    1    1    2    0  503  0.64671151570E+02  0.59644102205E+02 -0.48485799504E+03  0.49277484933E+03  0.00000000000E+00 0.  1.
<mgrwt>
<rscale>  2 0.11227907E+03</rscale>
<asrwt>0</asrwt>
<pdfrwt beam="1">  1       21 0.60017991E-01 0.11227907E+03</pdfrwt>
<pdfrwt beam="2">  1       21 0.77074007E-01 0.11227907E+03</pdfrwt>
<totfact> 0.41890142E+03</totfact>
</mgrwt>
</event>
<event>
 5    1  0.1854763E+000  0.7159228E+02  0.7546771E-02  0.1354761E+00
         21   -1    0    0  501  502  0.00000000000E+00  0.00000000000E+00  0.32004131067E+03  0.32004131067E+03  0.00000000000E+00 0.  1.
         21   -1    0    0  502  503 -0.00000000000E+00 -0.00000000000E+00 -0.50889637346E+02  0.50889637346E+02  0.00000000000E+00 0.  1.
         24    1    1    2    0    0 -0.19101846102E+02  0.36306719529E+02  0.14680696448E+03  0.17234430418E+03  0.80419002446E+02 0.  1.
          1    1    1    2  501    0  0.24093067065E+02 -0.99271777850E+01  0.15450841812E+03  0.15669038263E+03  0.00000000000E+00 0. -1.
         -2    1    1    2    0  503 -0.49912209629E+01 -0.26379541744E+02 -0.32163709273E+02  0.41896261212E+02  0.00000000000E+00 0.  1.
<mgrwt>
<rscale>  2 0.71592276E+02</rscale>
<asrwt>0</asrwt>
<pdfrwt beam="1">  1       21 0.49237124E-01 0.71592276E+02</pdfrwt>
<pdfrwt beam="2">  1       21 0.78291752E-02 0.71592276E+02</pdfrwt>
<totfact> 0.49576474E+05</totfact>
</mgrwt>
</event>
<event>
 5    1  0.1854763E+000  0.7017455E+02  0.7546771E-02  0.1359500E+00
         21   -1    0    0  501  502  0.00000000000E+00  0.00000000000E+00  0.76542931495E+02  0.76542931495E+02  0.00000000000E+00 0. -1.
         21   -1    0    0  502  503 -0.00000000000E+00 -0.00000000000E+00 -0.75636305151E+02  0.75636305151E+02  0.00000000000E+00 0.  1.
         24    1    1    2    0    0 -0.29552769708E+02 -0.34368597787E+02 -0.24395237400E+02  0.95482512920E+02  0.80419002446E+02 0.  1.
          1    1    1    2  501    0  0.19562701573E+02  0.10593324220E+02  0.20920645759E+02  0.30538356698E+02  0.00000000000E+00 0. -1.
         -2    1    1    2    0  503  0.99900681348E+01  0.23775273568E+02  0.43812179847E+01  0.26158367028E+02  0.00000000000E+00 0.  1.
<mgrwt>
<rscale>  2 0.70174553E+02</rscale>
<asrwt>0</asrwt>
<pdfrwt beam="1">  1       21 0.11775836E-01 0.70174553E+02</pdfrwt>
<pdfrwt beam="2">  1       21 0.11636355E-01 0.70174553E+02</pdfrwt>
<totfact> 0.35957316E+06</totfact>
</mgrwt>
</event>
<event>
 5    1  0.1854763E+000  0.6621080E+02  0.7546771E-02  0.1373474E+00
         21   -1    0    0  503  502  0.00000000000E+00  0.00000000000E+00  0.34094986165E+02  0.34094986165E+02  0.00000000000E+00 0.  1.
         21   -1    0    0  501  503 -0.00000000000E+00 -0.00000000000E+00 -0.44651569694E+03  0.44651569694E+03  0.00000000000E+00 0. -1.
         24    1    1    2    0    0  0.24257510556E+02  0.25508185888E+02 -0.13996031784E+03  0.16521259301E+03  0.80419002446E+02 0. -1.
          1    1    1    2  501    0 -0.22277298328E+02 -0.35138585855E+01 -0.28768991471E+03  0.28857254244E+03  0.00000000000E+00 0. -1.
         -2    1    1    2    0  502 -0.19802122284E+01 -0.21994327303E+02  0.15229521769E+02  0.26825547660E+02  0.00000000000E+00 0.  1.
<mgrwt>
<rscale>  2 0.66210802E+02</rscale>
<asrwt>0</asrwt>
<pdfrwt beam="1">  1       21 0.52453830E-02 0.66210802E+02</pdfrwt>
<pdfrwt beam="2">  1       21 0.68694716E-01 0.66210802E+02</pdfrwt>
<totfact> 0.48565153E+05</totfact>
</mgrwt>
</event>
<event>
 5    1  0.1854763E+000  0.7697121E+02  0.7546771E-02  0.1337873E+00
         21   -1    0    0  501  502  0.00000000000E+00  0.00000000000E+00  0.10975083712E+02  0.10975083712E+02  0.00000000000E+00 0. -1.
         21   -1    0    0  502  503 -0.00000000000E+00 -0.00000000000E+00 -0.10177055322E+04  0.10177055322E+04  0.00000000000E+00 0. -1.
         24    1    1    2    0    0 -0.20353920471E+02  0.29153421071E+02 -0.43633977652E+03  0.44511102049E+03  0.80419002446E+02 0. -1.
          1    1    1    2  501    0 -0.19433714590E+02 -0.91154724170E+01 -0.14516351301E+02  0.25913038325E+02  0.00000000000E+00 0. -1.
         -2    1    1    2    0  503  0.39787635061E+02 -0.20037948654E+02 -0.55587432064E+03  0.55765655707E+03  0.00000000000E+00 0.  1.
<mgrwt>
<rscale>  2 0.76971206E+02</rscale>
<asrwt>0</asrwt>
<pdfrwt beam="1">  1       21 0.16884747E-02 0.76971206E+02</pdfrwt>
<pdfrwt beam="2">  1       21 0.15657006E+00 0.76971206E+02</pdfrwt>
<totfact> 0.44796256E+05</totfact>
</mgrwt>
</event>
<event>
 5    1  0.1854763E+000  0.1442956E+03  0.7546771E-02  0.1207663E+00
         21   -1    0    0  503  502  0.00000000000E+00  0.00000000000E+00  0.40180272678E+03  0.40180272678E+03  0.00000000000E+00 0. -1.
         21   -1    0    0  501  503 -0.00000000000E+00 -0.00000000000E+00 -0.13682996214E+03  0.13682996214E+03  0.00000000000E+00 0.  1.
         24    1    1    2    0    0 -0.49231924836E+02 -0.27069620322E+02 -0.91432553828E+02  0.13410322375E+03  0.80419002446E+02 0.  1.
          1    1    1    2  501    0  0.11540483691E+02 -0.78008175383E+02  0.12882457020E+03  0.15104379523E+03  0.00000000000E+00 0. -1.
         -2    1    1    2    0  502  0.37691441145E+02  0.10507779570E+03  0.22758074826E+03  0.25348566994E+03  0.00000000000E+00 0.  1.
<mgrwt>
<rscale>  2 0.14429563E+03</rscale>
<asrwt>0</asrwt>
<pdfrwt beam="1">  1       21 0.61815804E-01 0.14429563E+03</pdfrwt>
<pdfrwt beam="2">  1       21 0.21050763E-01 0.14429563E+03</pdfrwt>
<totfact> 0.52183954E+04</totfact>
</mgrwt>
</event>
<event>
 5    1  0.1854763E+000  0.1001269E+03  0.7546771E-02  0.1280029E+00
         21   -1    0    0  501  502  0.00000000000E+00  0.00000000000E+00  0.40781674516E+02  0.40781674516E+02  0.00000000000E+00 0.  1.
         21   -1    0    0  502  503 -0.00000000000E+00 -0.00000000000E+00 -0.45652679317E+03  0.45652679317E+03  0.00000000000E+00 0.  1.
         24    1    1    2    0    0  0.57917141435E+02  0.39511528770E+02 -0.69267151476E+02  0.12720342136E+03  0.80419002446E+02 0.  1.
          1    1    1    2  501    0 -0.32755175146E+02  0.13074149871E+02 -0.24622474788E+02  0.43012802261E+02  0.00000000000E+00 0. -1.
         -2    1    1    2    0  503 -0.25161966289E+02 -0.52585678641E+02 -0.32185549239E+03  0.32709224407E+03  0.00000000000E+00 0.  1.
<mgrwt>
<rscale>  2 0.10012686E+03</rscale>
<asrwt>0</asrwt>
<pdfrwt beam="1">  1       21 0.62741037E-02 0.10012686E+03</pdfrwt>
<pdfrwt beam="2">  1       21 0.70234892E-01 0.10012686E+03</pdfrwt>
<totfact> 0.34226765E+05</totfact>
</mgrwt>
</event>
<event>
 5    1  0.1854763E+000  0.8117636E+02  0.7546771E-02  0.1325746E+00
         21   -1    0    0  501  502  0.00000000000E+00  0.00000000000E+00  0.16829894820E+04  0.16829894820E+04  0.00000000000E+00 0. -1.
         21   -1    0    0  502  503 -0.00000000000E+00 -0.00000000000E+00 -0.64710210880E+01  0.64710210880E+01  0.00000000000E+00 0.  1.
         24    1    1    2    0    0  0.19217288787E+02  0.16240869517E+02  0.12867595263E+04  0.12895155542E+04  0.80419002446E+02 0.  0.
          1    1    1    2  501    0 -0.20232785175E+02  0.27608407191E+02  0.27444356428E+03  0.27656980985E+03  0.00000000000E+00 0. -1.
         -2    1    1    2    0  503  0.10154963887E+01 -0.43849276708E+02  0.11531537037E+03  0.12337513908E+03  0.00000000000E+00 0.  1.
<mgrwt>
<rscale>  2 0.81176361E+02</rscale>
<asrwt>0</asrwt>
<pdfrwt beam="1">  1       21 0.25892111E+00 0.81176361E+02</pdfrwt>
<pdfrwt beam="2">  1       21 0.99554305E-03 0.81176361E+02</pdfrwt>
<totfact> 0.24348571E+05</totfact>
</mgrwt>
</event>
<event>
 5    1  0.1854763E+000  0.9730966E+02  0.7546771E-02  0.1286057E+00
         21   -1    0    0  503  502  0.00000000000E+00  0.00000000000E+00  0.52345426814E+02  0.52345426814E+02  0.00000000000E+00 0.  1.
         21   -1    0    0  501  503 -0.00000000000E+00 -0.00000000000E+00 -0.22627305887E+03  0.22627305887E+03  0.00000000000E+00 0. -1.
         24    1    1    2    0    0 -0.11513094846E+02 -0.74438967079E+02 -0.34440123966E+02  0.11544283982E+03  0.80419002446E+02 0.  1.
          1    1    1    2  501    0  0.25680361543E+02  0.48083442448E+02 -0.95809718768E+02  0.11023157722E+03  0.00000000000E+00 0. -1.
         -2    1    1    2    0  502 -0.14167266698E+02  0.26355524631E+02 -0.43677789324E+02  0.52944068643E+02  0.00000000000E+00 0.  1.
<mgrwt>
<rscale>  2 0.97309656E+02</rscale>
<asrwt>0</asrwt>
<pdfrwt beam="1">  1       21 0.80531425E-02 0.97309656E+02</pdfrwt>
<pdfrwt beam="2">  1       21 0.34811240E-01 0.97309656E+02</pdfrwt>
<totfact> 0.94275374E+05</totfact>
</mgrwt>
</event>
<event>
 5    1  0.1854763E+000  0.7485101E+02  0.7546771E-02  0.1344333E+00
         21   -1    0    0  503  502  0.00000000000E+00  0.00000000000E+00  0.80601593078E+03  0.80601593078E+03  0.00000000000E+00 0.  1.
         21   -1    0    0  501  503 -0.00000000000E+00 -0.00000000000E+00 -0.40187868725E+02  0.40187868725E+02  0.00000000000E+00 0. -1.
         24    1    1    2    0    0 -0.33945845591E+02  0.18094377180E+02  0.15227855245E+03  0.17645311108E+03  0.80419002446E+02 0.  0.
          1    1    1    2  501    0  0.24158809502E+02  0.13365375716E+02 -0.20786575932E+02  0.34559558498E+02  0.00000000000E+00 0. -1.
         -2    1    1    2    0  502  0.97870360883E+01 -0.31459752896E+02  0.63433608553E+03  0.63519112993E+03  0.00000000000E+00 0.  1.
<mgrwt>
<rscale>  2 0.74851015E+02</rscale>
<asrwt>0</asrwt>
<pdfrwt beam="1">  1       21 0.12400244E+00 0.74851015E+02</pdfrwt>
<pdfrwt beam="2">  1       21 0.61827496E-02 0.74851015E+02</pdfrwt>
<totfact> 0.97051192E+04</totfact>
</mgrwt>
</event>
<event>
 5    1  0.1854763E+000  0.1042809E+03  0.7546771E-02  0.1271543E+00
         21   -1    0    0  503  502  0.00000000000E+00  0.00000000000E+00  0.91536205166E+02  0.91536205166E+02  0.00000000000E+00 0. -1.
         21   -1    0    0  501  503 -0.00000000000E+00 -0.00000000000E+00 -0.19050211919E+03  0.19050211919E+03  0.00000000000E+00 0. -1.
         24    1    1    2    0    0 -0.50105180053E+02  0.46210191945E+02  0.33927398293E+02  0.11074382699E+03  0.80419002446E+02 0. -1.
          1    1    1    2  501    0  0.50069261918E+02  0.64498588720E+01 -0.90752745330E+02  0.10384889240E+03  0.00000000000E+00 0. -1.
         -2    1    1    2    0  502  0.35918135717E-01 -0.52660050817E+02 -0.42140566983E+02  0.67445604955E+02  0.00000000000E+00 0.  1.
<mgrwt>
<rscale>  2 0.10428093E+03</rscale>
<asrwt>0</asrwt>
<pdfrwt beam="1">  1       21 0.14082493E-01 0.10428093E+03</pdfrwt>
<pdfrwt beam="2">  1       21 0.29308018E-01 0.10428093E+03</pdfrwt>
<totfact> 0.49539368E+05</totfact>
</mgrwt>
</event>
<event>
 5    1  0.1854763E+000  0.6917712E+02  0.7546771E-02  0.1362914E+00
         21   -1    0    0  503  502  0.00000000000E+00  0.00000000000E+00  0.35243386654E+02  0.35243386654E+02  0.00000000000E+00 0.  1.
         21   -1    0    0  501  503 -0.00000000000E+00 -0.00000000000E+00 -0.33844490180E+03  0.33844490180E+03  0.00000000000E+00 0. -1.
         24    1    1    2    0    0  0.18588571263E+02  0.36207560180E+02 -0.30397672485E+03  0.31705770390E+03  0.80419002446E+02 0. -1.
          1    1    1    2  501    0  0.61229086483E+00 -0.26860283764E+02 -0.14352124425E+02  0.30460354881E+02  0.00000000000E+00 0. -1.
         -2    1    1    2    0  502 -0.19200862128E+02 -0.93472764162E+01  0.15127334135E+02  0.26170229668E+02  0.00000000000E+00 0.  1.
<mgrwt>
<rscale>  2 0.69177124E+02</rscale>
<asrwt>0</asrwt>
<pdfrwt beam="1">  1       21 0.54220593E-02 0.69177124E+02</pdfrwt>
<pdfrwt beam="2">  1       21 0.52068449E-01 0.69177124E+02</pdfrwt>
<totfact> 0.81893568E+05</totfact>
</mgrwt>
</event>
<event>
 5    1  0.1854763E+000  0.8462543E+02  0.7546771E-02  0.1316415E+00
         21   -1    0    0  503  502  0.00000000000E+00  0.00000000000E+00  0.71227368619E+03  0.71227368619E+03  0.00000000000E+00 0.  1.
         21   -1    0    0  501  503 -0.00000000000E+00 -0.00000000000E+00 -0.12465253955E+02  0.12465253955E+02  0.00000000000E+00 0.  1.
         24    1    1    2    0    0  0.12204792440E+02  0.16155489375E+02  0.18721663268E+03  0.20476142289E+03  0.80419002446E+02 0.  1.
          1    1    1    2  501    0  0.60144309695E+01  0.33184850466E+02  0.16312387883E+03  0.16657372999E+03  0.00000000000E+00 0. -1.
         -2    1    1    2    0  502 -0.18219223409E+02 -0.49340339841E+02  0.34946792073E+03  0.35340378727E+03  0.00000000000E+00 0.  1.
<mgrwt>
<rscale>  2 0.84625431E+02</rscale>
<asrwt>0</asrwt>
<pdfrwt beam="1">  1       21 0.10958054E+00 0.84625431E+02</pdfrwt>
<pdfrwt beam="2">  1       21 0.19177319E-02 0.84625431E+02</pdfrwt>
<totfact> 0.87636273E+05</totfact>
</mgrwt>
</event>
<event>
 5    1  0.1854763E+000  0.6415505E+02  0.7546771E-02  0.1381178E+00
         21   -1    0    0  503  502  0.00000000000E+00  0.00000000000E+00  0.16445083282E+03  0.16445083282E+03  0.00000000000E+00 0.  1.
         21   -1    0    0  501  503 -0.00000000000E+00 -0.00000000000E+00 -0.44790725149E+02  0.44790725149E+02  0.00000000000E+00 0. -1.
         24    1    1    2    0    0 -0.16012414995E+02 -0.35999467819E+01  0.91743051397E+02  0.12309898653E+03  0.80419002446E+02 0.  1.
          1    1    1    2  501    0  0.91102679149E+01  0.23482061719E+02 -0.21062086110E+02  0.32833149032E+02  0.00000000000E+00 0. -1.
         -2    1    1    2    0  502  0.69021470801E+01 -0.19882114937E+02  0.48979142384E+02  0.53309422407E+02  0.00000000000E+00 0.  1.
<mgrwt>
<rscale>  2 0.64155053E+02</rscale>
<asrwt>0</asrwt>
<pdfrwt beam="1">  1       21 0.25300128E-01 0.64155053E+02</pdfrwt>
<pdfrwt beam="2">  1       21 0.68908809E-02 0.64155053E+02</pdfrwt>
<totfact> 0.22194390E+06</totfact>
</mgrwt>
</event>
<event>
 5    1  0.1854763E+000  0.8821555E+02  0.7546771E-02  0.1307231E+00
         21   -1    0    0  503  502  0.00000000000E+00  0.00000000000E+00  0.31627581139E+03  0.31627581139E+03  0.00000000000E+00 0. -1.
         21   -1    0    0  501  503 -0.00000000000E+00 -0.00000000000E+00 -0.32112259655E+02  0.32112259655E+02  0.00000000000E+00 0.  1.
         24    1    1    2    0    0 -0.28077867624E+02 -0.12222781090E+02  0.22360701948E+03  0.23959356866E+03  0.80419002446E+02 0. -1.
          1    1    1    2  501    0  0.47408188699E+02  0.36150396976E+02  0.39434911568E+02  0.71480765298E+02  0.00000000000E+00 0. -1.
         -2    1    1    2    0  502 -0.19330321075E+02 -0.23927615886E+02  0.21121620683E+02  0.37313737083E+02  0.00000000000E+00 0.  1.
<mgrwt>
<rscale>  2 0.88215554E+02</rscale>
<asrwt>0</asrwt>
<pdfrwt beam="1">  1       21 0.48657815E-01 0.88215554E+02</pdfrwt>
<pdfrwt beam="2">  1       21 0.49403478E-02 0.88215554E+02</pdfrwt>
<totfact> 0.11023941E+06</totfact>
</mgrwt>
</event>
<event>
 5    1  0.1854763E+000  0.7755258E+02  0.7546771E-02  0.1336144E+00
         21   -1    0    0  501  502  0.00000000000E+00  0.00000000000E+00  0.92732576646E+02  0.92732576646E+02  0.00000000000E+00 0. -1.
         21   -1    0    0  502  503 -0.00000000000E+00 -0.00000000000E+00 -0.12063538000E+03  0.12063538000E+03  0.00000000000E+00 0. -1.
         24    1    1    2    0    0  0.47529585256E+02  0.30568696459E+02  0.39128253800E+02  0.10579103401E+03  0.80419002446E+02 0.  0.
          1    1    1    2  501    0 -0.28131018363E+02 -0.14620947833E+02  0.42632976903E+01  0.31989092154E+02  0.00000000000E+00 0. -1.
         -2    1    1    2    0  503 -0.19398566893E+02 -0.15947748627E+02 -0.71294354839E+02  0.75587830473E+02  0.00000000000E+00 0.  1.
<mgrwt>
<rscale>  2 0.77552575E+02</rscale>
<asrwt>0</asrwt>
<pdfrwt beam="1">  1       21 0.14266550E-01 0.77552575E+02</pdfrwt>
<pdfrwt beam="2">  1       21 0.18559289E-01 0.77552575E+02</pdfrwt>
<totfact> 0.11280607E+06</totfact>
</mgrwt>
</event>
<event>
 5    1  0.1854763E+000  0.6463066E+02  0.7546771E-02  0.1379366E+00
         21   -1    0    0  501  502  0.00000000000E+00  0.00000000000E+00  0.17210586329E+03  0.17210586329E+03  0.00000000000E+00 0. -1.
         21   -1    0    0  502  503 -0.00000000000E+00 -0.00000000000E+00 -0.68868669628E+02  0.68868669628E+02  0.00000000000E+00 0. -1.
         24    1    1    2    0    0  0.29318363426E+02  0.84642441617E+01 -0.54575670823E+01  0.86187068961E+02  0.80419002446E+02 0. -1.
          1    1    1    2  501    0 -0.82933415589E+01 -0.18257834192E+02  0.12489580753E+03  0.12649541795E+03  0.00000000000E+00 0. -1.
         -2    1    1    2    0  503 -0.21025021867E+02  0.97935900305E+01 -0.16201046787E+02  0.28292046006E+02  0.00000000000E+00 0.  1.
<mgrwt>
<rscale>  2 0.64630663E+02</rscale>
<asrwt>0</asrwt>
<pdfrwt beam="1">  1       21 0.26477825E-01 0.64630663E+02</pdfrwt>
<pdfrwt beam="2">  1       21 0.10595180E-01 0.64630663E+02</pdfrwt>
<totfact> 0.98228859E+05</totfact>
</mgrwt>
</event>
<event>
 5    1  0.1854763E+000  0.1019700E+03  0.7546771E-02  0.1276207E+00
         21   -1    0    0  501  502  0.00000000000E+00  0.00000000000E+00  0.24578183926E+03  0.24578183926E+03  0.00000000000E+00 0.  1.
         21   -1    0    0  502  503 -0.00000000000E+00 -0.00000000000E+00 -0.51582529280E+02  0.51582529280E+02  0.00000000000E+00 0. -1.
         24    1    1    2    0    0  0.37492717226E+02 -0.57880744166E+02  0.95113715145E+02  0.14237176389E+03  0.80419002446E+02 0.  0.
          1    1    1    2  501    0  0.18921799220E+02  0.28990334585E+02  0.82511306478E+02  0.89479548958E+02  0.00000000000E+00 0. -1.
         -2    1    1    2    0  503 -0.56414516446E+02  0.28890409581E+02  0.16574288357E+02  0.65513055692E+02  0.00000000000E+00 0.  1.
<mgrwt>
<rscale>  2 0.10196996E+03</rscale>
<asrwt>0</asrwt>
<pdfrwt beam="1">  1       21 0.37812590E-01 0.10196996E+03</pdfrwt>
<pdfrwt beam="2">  1       21 0.79357739E-02 0.10196996E+03</pdfrwt>
<totfact> 0.82259533E+05</totfact>
</mgrwt>
</event>
<event>
 5    1  0.1854763E+000  0.9792975E+02  0.7546771E-02  0.1284711E+00
         21   -1    0    0  501  502  0.00000000000E+00  0.00000000000E+00  0.38619250105E+03  0.38619250105E+03  0.00000000000E+00 0.  1.
         21   -1    0    0  502  503 -0.00000000000E+00 -0.00000000000E+00 -0.71531802643E+02  0.71531802643E+02  0.00000000000E+00 0. -1.
         24    1    1    2    0    0  0.20622395498E+02 -0.29808557361E+02 -0.32483203491E+02  0.94001105054E+02  0.80419002446E+02 0. -1.
          1    1    1    2  501    0  0.31971111074E+02 -0.17899938410E+02  0.14140734179E+03  0.14607736323E+03  0.00000000000E+00 0. -1.
         -2    1    1    2    0  503 -0.52593506572E+02  0.47708495771E+02  0.20573656011E+03  0.21764583541E+03  0.00000000000E+00 0.  1.
<mgrwt>
<rscale>  2 0.97929752E+02</rscale>
<asrwt>0</asrwt>
<pdfrwt beam="1">  1       21 0.59414230E-01 0.97929752E+02</pdfrwt>
<pdfrwt beam="2">  1       21 0.11004893E-01 0.97929752E+02</pdfrwt>
<totfact> 0.18647216E+05</totfact>
</mgrwt>
</event>
<event>
 5    1  0.1854763E+000  0.7998713E+02  0.7546771E-02  0.1329088E+00
         21   -1    0    0  503  502  0.00000000000E+00  0.00000000000E+00  0.83955153334E+03  0.83955153334E+03  0.00000000000E+00 0.  1.
         21   -1    0    0  501  503 -0.00000000000E+00 -0.00000000000E+00 -0.13216132639E+02  0.13216132639E+02  0.00000000000E+00 0. -1.
         24    1    1    2    0    0  0.73441969976E+01  0.38642504227E+02  0.22997499524E+03  0.24678511858E+03  0.80419002446E+02 0.  0.
          1    1    1    2  501    0 -0.28366796455E+02 -0.40389845156E+02  0.12858993705E+03  0.13773665686E+03  0.00000000000E+00 0. -1.
         -2    1    1    2    0  502  0.21022599457E+02  0.17473409288E+01  0.46777046840E+03  0.46824589053E+03  0.00000000000E+00 0.  1.
<mgrwt>
<rscale>  2 0.79987126E+02</rscale>
<asrwt>0</asrwt>
<pdfrwt beam="1">  1       21 0.12916173E+00 0.79987126E+02</pdfrwt>
<pdfrwt beam="2">  1       21 0.20332518E-02 0.79987126E+02</pdfrwt>
<totfact> 0.53876951E+05</totfact>
</mgrwt>
</event>
<event>
 5    1  0.1854763E+000  0.9556924E+02  0.7546771E-02  0.1289899E+00
         21   -1    0    0  501  502  0.00000000000E+00  0.00000000000E+00  0.17685418449E+03  0.17685418449E+03  0.00000000000E+00 0. -1.
         21   -1    0    0  502  503 -0.00000000000E+00 -0.00000000000E+00 -0.12528632829E+03  0.12528632829E+03  0.00000000000E+00 0. -1.
         24    1    1    2    0    0  0.26037450674E+02  0.63065465108E+02 -0.70861426288E+02  0.12705809465E+03  0.80419002446E+02 0. -1.
          1    1    1    2  501    0 -0.40771226408E+02 -0.33994301330E+02  0.13103038428E+03  0.14137491655E+03  0.00000000000E+00 0. -1.
         -2    1    1    2    0  503  0.14733775735E+02 -0.29071163778E+02 -0.86011017866E+01  0.33707501580E+02  0.00000000000E+00 0.  1.
<mgrwt>
<rscale>  2 0.95569243E+02</rscale>
<asrwt>0</asrwt>
<pdfrwt beam="1">  1       21 0.27208336E-01 0.95569243E+02</pdfrwt>
<pdfrwt beam="2">  1       21 0.19274820E-01 0.95569243E+02</pdfrwt>
<totfact> 0.32415747E+05</totfact>
</mgrwt>
</event>
<event>
 5    1  0.1854763E+000  0.7055113E+02  0.7546771E-02  0.1358229E+00
         21   -1    0    0  503  502  0.00000000000E+00  0.00000000000E+00  0.22665633570E+02  0.22665633570E+02  0.00000000000E+00 0. -1.
         21   -1    0    0  501  503 -0.00000000000E+00 -0.00000000000E+00 -0.54000876664E+03  0.54000876664E+03  0.00000000000E+00 0. -1.
         24    1    1    2    0    0 -0.21038973163E+01  0.87917022478E+01 -0.98245979844E+02  0.12728396962E+03  0.80419002446E+02 0.  0.
          1    1    1    2  501    0 -0.23069485664E+02 -0.21887809215E+02 -0.39982691688E+03  0.40108956709E+03  0.00000000000E+00 0. -1.
         -2    1    1    2    0  502  0.25173382980E+02  0.13096106967E+02 -0.19270236343E+02  0.34300863503E+02  0.00000000000E+00 0.  1.
<mgrwt>
<rscale>  2 0.70551130E+02</rscale>
<asrwt>0</asrwt>
<pdfrwt beam="1">  1       21 0.34870208E-02 0.70551130E+02</pdfrwt>
<pdfrwt beam="2">  1       21 0.83078266E-01 0.70551130E+02</pdfrwt>
<totfact> 0.62841137E+05</totfact>
</mgrwt>
</event>
<event>
 5    1  0.1854763E+000  0.6631354E+02  0.7546771E-02  0.1373098E+00
         21   -1    0    0  503  502  0.00000000000E+00  0.00000000000E+00  0.28324305492E+03  0.28324305492E+03  0.00000000000E+00 0. -1.
         21   -1    0    0  501  503 -0.00000000000E+00 -0.00000000000E+00 -0.17574074752E+02  0.17574074752E+02  0.00000000000E+00 0.  1.
         24    1    1    2    0    0 -0.11474209218E+01  0.11272906773E+02  0.20939576062E+03  0.22459340044E+03  0.80419002446E+02 0.  0.
          1    1    1    2  501    0 -0.19750623175E+02  0.95273668347E+01  0.23922295134E+02  0.32452026733E+02  0.00000000000E+00 0. -1.
         -2    1    1    2    0  502  0.20898044096E+02 -0.20800273608E+02  0.32350924421E+02  0.43771702504E+02  0.00000000000E+00 0.  1.
<mgrwt>
<rscale>  2 0.66313541E+02</rscale>
<asrwt>0</asrwt>
<pdfrwt beam="1">  1       21 0.43575851E-01 0.66313541E+02</pdfrwt>
<pdfrwt beam="2">  1       21 0.27037040E-02 0.66313541E+02</pdfrwt>
<totfact> 0.36369484E+06</totfact>
</mgrwt>
</event>
<event>
 5    1  0.1854763E+000  0.6777707E+02  0.7546771E-02  0.1367820E+00
         21   -1    0    0  501  502  0.00000000000E+00  0.00000000000E+00  0.11877916432E+04  0.11877916432E+04  0.00000000000E+00 0. -1.
         21   -1    0    0  502  503 -0.00000000000E+00 -0.00000000000E+00 -0.11579411647E+02  0.11579411647E+02  0.00000000000E+00 0.  1.
         24    1    1    2    0    0  0.16739029431E+02  0.15937907524E+02  0.78819429701E+03  0.79262328871E+03  0.80419002446E+02 0.  0.
          1    1    1    2  501    0 -0.25125483480E+02  0.81174909085E+01  0.37870368089E+03  0.37962305185E+03  0.00000000000E+00 0. -1.
         -2    1    1    2    0  503  0.83864540491E+01 -0.24055398433E+02  0.93142536825E+01  0.27124714320E+02  0.00000000000E+00 0.  1.
<mgrwt>
<rscale>  2 0.67777073E+02</rscale>
<asrwt>0</asrwt>
<pdfrwt beam="1">  1       21 0.18273708E+00 0.67777073E+02</pdfrwt>
<pdfrwt beam="2">  1       21 0.17814489E-02 0.67777073E+02</pdfrwt>
<totfact> 0.27551981E+05</totfact>
</mgrwt>
</event>
<event>
 5    1  0.1854763E+000  0.9407174E+02  0.7546771E-02  0.1293281E+00
         21   -1    0    0  501  502  0.00000000000E+00  0.00000000000E+00  0.10611838070E+03  0.10611838070E+03  0.00000000000E+00 0.  1.
         21   -1    0    0  502  503 -0.00000000000E+00 -0.00000000000E+00 -0.12580240534E+03  0.12580240534E+03  0.00000000000E+00 0.  1.
         24    1    1    2    0    0 -0.42586594505E+02 -0.43989451544E+02  0.45772508212E+02  0.11095507353E+03  0.80419002446E+02 0.  1.
          1    1    1    2  501    0  0.21811254412E+02  0.58030763819E+02 -0.13751690865E+02  0.63501254871E+02  0.00000000000E+00 0. -1.
         -2    1    1    2    0  503  0.20775340093E+02 -0.14041312275E+02 -0.51704841990E+02  0.57464457637E+02  0.00000000000E+00 0.  1.
<mgrwt>
<rscale>  2 0.94071736E+02</rscale>
<asrwt>0</asrwt>
<pdfrwt beam="1">  1       21 0.16325905E-01 0.94071736E+02</pdfrwt>
<pdfrwt beam="2">  1       21 0.19354216E-01 0.94071736E+02</pdfrwt>
<totfact> 0.82487643E+05</totfact>
</mgrwt>
</event>
<event>
 5    1  0.2574355E+000  0.9799244E+02  0.7546771E-02  0.1284575E+00
         21   -1    0    0  503  502  0.00000000000E+00  0.00000000000E+00  0.69866730908E+03  0.69866730908E+03  0.00000000000E+00 0. -1.
         21   -1    0    0  501  503 -0.00000000000E+00 -0.00000000000E+00 -0.84843091697E+02  0.84843091697E+02  0.00000000000E+00 0. -1.
         24    1    1    2    0    0  0.36968972975E+02 -0.70478296227E+02  0.59096114687E+03  0.60169443097E+03  0.80419002446E+02 0. -1.
          1    1    1    2  501    0 -0.15837653801E+02  0.53320759965E+02 -0.67486652623E+02  0.87455034180E+02  0.00000000000E+00 0. -1.
         -2    1    1    2    0  502 -0.21131319174E+02  0.17157536262E+02  0.90349723135E+02  0.94360935620E+02  0.00000000000E+00 0.  1.
<mgrwt>
<rscale>  2 0.97992437E+02</rscale>
<asrwt>0</asrwt>
<pdfrwt beam="1">  1       21 0.10748727E+00 0.97992437E+02</pdfrwt>
<pdfrwt beam="2">  1       21 0.13052784E-01 0.97992437E+02</pdfrwt>
<totfact> 0.37036556E+04</totfact>
</mgrwt>
</event>
<event>
 5    1  0.1854763E+000  0.7351827E+02  0.7546771E-02  0.1348522E+00
         21   -1    0    0  501  502  0.00000000000E+00  0.00000000000E+00  0.19465083588E+02  0.19465083588E+02  0.00000000000E+00 0. -1.
         21   -1    0    0  502  503 -0.00000000000E+00 -0.00000000000E+00 -0.35129095158E+03  0.35129095158E+03  0.00000000000E+00 0. -1.
         24    1    1    2    0    0 -0.48439592983E+01 -0.38408449749E+02 -0.27372155021E+03  0.28790515098E+03  0.80419002446E+02 0. -1.
          1    1    1    2  501    0  0.20287371189E+02  0.48733234304E+01 -0.13083279443E+02  0.24627198623E+02  0.00000000000E+00 0. -1.
         -2    1    1    2    0  503 -0.15443411891E+02  0.33535126319E+02 -0.45021038331E+02  0.58223685562E+02  0.00000000000E+00 0.  1.
<mgrwt>
<rscale>  2 0.73518273E+02</rscale>
<asrwt>0</asrwt>
<pdfrwt beam="1">  1       21 0.29946285E-02 0.73518273E+02</pdfrwt>
<pdfrwt beam="2">  1       21 0.54044757E-01 0.73518273E+02</pdfrwt>
<totfact> 0.20092927E+06</totfact>
</mgrwt>
</event>
<event>
 5    1  0.2501461E+000  0.1806851E+03  0.7546771E-02  0.1167142E+00
         21   -1    0    0  501  502  0.00000000000E+00  0.00000000000E+00  0.11404987852E+03  0.11404987852E+03  0.00000000000E+00 0. -1.
         21   -1    0    0  502  503 -0.00000000000E+00 -0.00000000000E+00 -0.48571654851E+03  0.48571654851E+03  0.00000000000E+00 0.  1.
         24    1    1    2    0    0  0.78074291254E+02  0.37214249973E+02 -0.43767266982E+02  0.12594953342E+03  0.80419002446E+02 0.  1.
          1    1    1    2  501    0 -0.74832722111E+01  0.93986572464E+02  0.19087904417E+02  0.96196794445E+02  0.00000000000E+00 0. -1.
         -2    1    1    2    0  503 -0.70591019042E+02 -0.13120082244E+03 -0.34698730743E+03  0.37762009916E+03  0.00000000000E+00 0.  1.
<mgrwt>
<rscale>  2 0.18068509E+03</rscale>
<asrwt>0</asrwt>
<pdfrwt beam="1">  1       21 0.17546135E-01 0.18068509E+03</pdfrwt>
<pdfrwt beam="2">  1       21 0.74725624E-01 0.18068509E+03</pdfrwt>
<totfact> 0.47454249E+04</totfact>
</mgrwt>
</event>
<event>
 5    1  0.1854763E+000  0.6669931E+02  0.7546771E-02  0.1371691E+00
         21   -1    0    0  503  502  0.00000000000E+00  0.00000000000E+00  0.18314245972E+03  0.18314245972E+03  0.00000000000E+00 0.  1.
         21   -1    0    0  501  503 -0.00000000000E+00 -0.00000000000E+00 -0.31832632742E+02  0.31832632742E+02  0.00000000000E+00 0. -1.
         24    1    1    2    0    0 -0.53195040553E+01  0.90622918679E+01  0.47982920719E+02  0.94233746038E+02  0.80419002446E+02 0. -1.
          1    1    1    2  501    0  0.39226617931E+01 -0.30530955949E+02  0.25428438501E+02  0.39926583015E+02  0.00000000000E+00 0. -1.
         -2    1    1    2    0  502  0.13968422622E+01  0.21468664081E+02  0.77898467754E+02  0.80814763405E+02  0.00000000000E+00 0.  1.
<mgrwt>
<rscale>  2 0.66699309E+02</rscale>
<asrwt>0</asrwt>
<pdfrwt beam="1">  1       21 0.28175762E-01 0.66699309E+02</pdfrwt>
<pdfrwt beam="2">  1       21 0.48973282E-02 0.66699309E+02</pdfrwt>
<totfact> 0.32101783E+06</totfact>
</mgrwt>
</event>
<event>
 5    1  0.1854763E+000  0.1910300E+03  0.7546771E-02  0.1157536E+00
         21   -1    0    0  503  502  0.00000000000E+00  0.00000000000E+00  0.10409320149E+03  0.10409320149E+03  0.00000000000E+00 0. -1.
         21   -1    0    0  501  503 -0.00000000000E+00 -0.00000000000E+00 -0.36986700670E+03  0.36986700670E+03  0.00000000000E+00 0. -1.
         24    1    1    2    0    0  0.24331084510E+02  0.18046430098E+03 -0.91023655793E+02  0.21888784221E+03  0.80419002446E+02 0. -1.
          1    1    1    2  501    0 -0.10103014883E+02 -0.13452001030E+03 -0.14711741546E+03  0.19960270042E+03  0.00000000000E+00 0. -1.
         -2    1    1    2    0  502 -0.14228069627E+02 -0.45944290676E+02 -0.27632733960E+02  0.55469665558E+02  0.00000000000E+00 0.  1.
<mgrwt>
<rscale>  2 0.19103004E+03</rscale>
<asrwt>0</asrwt>
<pdfrwt beam="1">  1       21 0.16014339E-01 0.19103004E+03</pdfrwt>
<pdfrwt beam="2">  1       21 0.56902615E-01 0.19103004E+03</pdfrwt>
<totfact> 0.10109057E+05</totfact>
</mgrwt>
</event>
<event>
 5    1  0.1854763E+000  0.1460154E+03  0.7546771E-02  0.1205457E+00
         21   -1    0    0  501  502  0.00000000000E+00  0.00000000000E+00  0.14873709410E+03  0.14873709410E+03  0.00000000000E+00 0. -1.
         21   -1    0    0  502  503 -0.00000000000E+00 -0.00000000000E+00 -0.13265190027E+04  0.13265190027E+04  0.00000000000E+00 0.  1.
         24    1    1    2    0    0 -0.33035746480E+02  0.66935824240E+02 -0.31603679742E+03  0.33454183354E+03  0.80419002446E+02 0.  0.
          1    1    1    2  501    0 -0.29753243265E+02  0.45010558524E+02  0.12997158193E+03  0.14072603871E+03  0.00000000000E+00 0. -1.
         -2    1    1    2    0  503  0.62788989745E+02 -0.11194638276E+03 -0.99171669305E+03  0.99998822449E+03  0.00000000000E+00 0.  1.
<mgrwt>
<rscale>  2 0.14601536E+03</rscale>
<asrwt>0</asrwt>
<pdfrwt beam="1">  1       21 0.22882631E-01 0.14601536E+03</pdfrwt>
<pdfrwt beam="2">  1       21 0.20407984E+00 0.14601536E+03</pdfrwt>
<totfact> 0.23902034E+03</totfact>
</mgrwt>
</event>
<event>
 5    1  0.1854763E+000  0.9179425E+02  0.7546771E-02  0.1298564E+00
         21   -1    0    0  501  502  0.00000000000E+00  0.00000000000E+00  0.92490741115E+03  0.92490741115E+03  0.00000000000E+00 0. -1.
         21   -1    0    0  502  503 -0.00000000000E+00 -0.00000000000E+00 -0.11270608643E+03  0.11270608643E+03  0.00000000000E+00 0.  1.
         24    1    1    2    0    0  0.58143970914E+02 -0.44504045593E+02  0.25427763183E+03  0.27656041190E+03  0.80419002446E+02 0.  0.
          1    1    1    2  501    0 -0.32400764893E+02  0.34170462587E+02  0.65673540509E+03  0.65842146257E+03  0.00000000000E+00 0. -1.
         -2    1    1    2    0  503 -0.25743206021E+02  0.10333583006E+02 -0.98811712196E+02  0.10263162310E+03  0.00000000000E+00 0.  1.
<mgrwt>
<rscale>  2 0.91794253E+02</rscale>
<asrwt>0</asrwt>
<pdfrwt beam="1">  1       21 0.14229344E+00 0.91794253E+02</pdfrwt>
<pdfrwt beam="2">  1       21 0.17339399E-01 0.91794253E+02</pdfrwt>
<totfact> 0.11348409E+04</totfact>
</mgrwt>
</event>
<event>
 5    1  0.1854763E+000  0.8372547E+02  0.7546771E-02  0.1318800E+00
         21   -1    0    0  503  502  0.00000000000E+00  0.00000000000E+00  0.68475535398E+02  0.68475535398E+02  0.00000000000E+00 0.  1.
         21   -1    0    0  501  503 -0.00000000000E+00 -0.00000000000E+00 -0.34325866313E+03  0.34325866313E+03  0.00000000000E+00 0. -1.
         24    1    1    2    0    0 -0.17999860734E+02  0.49933927154E+02 -0.44058039981E+02  0.10595149319E+03  0.80419002446E+02 0.  0.
          1    1    1    2  501    0 -0.70902442089E+01 -0.44960317887E+02 -0.26169043732E+03  0.26561925144E+03  0.00000000000E+00 0. -1.
         -2    1    1    2    0  502  0.25090104943E+02 -0.49736092677E+01  0.30965349572E+02  0.40163453902E+02  0.00000000000E+00 0.  1.
<mgrwt>
<rscale>  2 0.83725468E+02</rscale>
<asrwt>0</asrwt>
<pdfrwt beam="1">  1       21 0.10534697E-01 0.83725468E+02</pdfrwt>
<pdfrwt beam="2">  1       21 0.52809026E-01 0.83725468E+02</pdfrwt>
<totfact> 0.25808363E+05</totfact>
</mgrwt>
</event>
<event>
 5    1  0.1854763E+000  0.6521988E+02  0.7546771E-02  0.1377146E+00
         21   -1    0    0  501  502  0.00000000000E+00  0.00000000000E+00  0.10179841924E+03  0.10179841924E+03  0.00000000000E+00 0. -1.
         21   -1    0    0  502  503 -0.00000000000E+00 -0.00000000000E+00 -0.43190190129E+02  0.43190190129E+02  0.00000000000E+00 0.  1.
         24    1    1    2    0    0  0.21545250746E+02  0.19015923889E+02  0.26517467707E+02  0.89421447310E+02  0.80419002446E+02 0.  0.
          1    1    1    2  501    0 -0.22153868118E+02  0.35758670567E+01  0.12677749237E+02  0.25774134778E+02  0.00000000000E+00 0. -1.
         -2    1    1    2    0  503  0.60861737197E+00 -0.22591790945E+02  0.19413012167E+02  0.29793027282E+02  0.00000000000E+00 0.  1.
<mgrwt>
<rscale>  2 0.65219883E+02</rscale>
<asrwt>0</asrwt>
<pdfrwt beam="1">  1       21 0.15661295E-01 0.65219883E+02</pdfrwt>
<pdfrwt beam="2">  1       21 0.66446447E-02 0.65219883E+02</pdfrwt>
<totfact> 0.56326523E+06</totfact>
</mgrwt>
</event>
<event>
 5    1  0.1854763E+000  0.8472777E+02  0.7546771E-02  0.1316146E+00
         21   -1    0    0  503  502  0.00000000000E+00  0.00000000000E+00  0.15623570980E+02  0.15623570980E+02  0.00000000000E+00 0. -1.
         21   -1    0    0  501  503 -0.00000000000E+00 -0.00000000000E+00 -0.71257489306E+03  0.71257489306E+03  0.00000000000E+00 0. -1.
         24    1    1    2    0    0  0.37609875585E+02 -0.13046573645E+02 -0.48140620842E+03  0.48969773257E+03  0.80419002446E+02 0.  0.
          1    1    1    2  501    0 -0.26293864247E+02 -0.27250246866E+02 -0.17892031970E+03  0.18288363528E+03  0.00000000000E+00 0. -1.
         -2    1    1    2    0  502 -0.11316011338E+02  0.40296820512E+02 -0.36624793961E+02  0.55617096190E+02  0.00000000000E+00 0.  1.
<mgrwt>
<rscale>  2 0.84727768E+02</rscale>
<asrwt>0</asrwt>
<pdfrwt beam="1">  1       21 0.24036262E-02 0.84727768E+02</pdfrwt>
<pdfrwt beam="2">  1       21 0.10962691E+00 0.84727768E+02</pdfrwt>
<totfact> 0.60979188E+05</totfact>
</mgrwt>
</event>
<event>
 5    1  0.1854763E+000  0.8945394E+02  0.7546771E-02  0.1304179E+00
         21   -1    0    0  503  502  0.00000000000E+00  0.00000000000E+00  0.27452624298E+02  0.27452624298E+02  0.00000000000E+00 0.  1.
         21   -1    0    0  501  503 -0.00000000000E+00 -0.00000000000E+00 -0.41053003356E+03  0.41053003356E+03  0.00000000000E+00 0. -1.
         24    1    1    2    0    0 -0.64262248166E+02  0.26650460846E+02 -0.18265919218E+03  0.21135628698E+03  0.80419002446E+02 0.  1.
          1    1    1    2  501    0  0.35366814061E+02 -0.34849600483E+01 -0.18167569009E+03  0.18511891544E+03  0.00000000000E+00 0. -1.
         -2    1    1    2    0  502  0.28895434105E+02 -0.23165500798E+02 -0.18742526993E+02  0.41507455443E+02  0.00000000000E+00 0.  1.
<mgrwt>
<rscale>  2 0.89453941E+02</rscale>
<asrwt>0</asrwt>
<pdfrwt beam="1">  1       21 0.42234808E-02 0.89453941E+02</pdfrwt>
<pdfrwt beam="2">  1       21 0.63158465E-01 0.89453941E+02</pdfrwt>
<totfact> 0.83224197E+05</totfact>
</mgrwt>
</event>
<event>
 5    1  0.1854763E+000  0.7399113E+02  0.7546771E-02  0.1347024E+00
         21   -1    0    0  503  502  0.00000000000E+00  0.00000000000E+00  0.33605964489E+02  0.33605964489E+02  0.00000000000E+00 0. -1.
         21   -1    0    0  501  503 -0.00000000000E+00 -0.00000000000E+00 -0.24361142805E+03  0.24361142805E+03  0.00000000000E+00 0.  1.
         24    1    1    2    0    0  0.42046103916E+02  0.29546350445E+02 -0.53894396758E+02  0.10960238882E+03  0.80419002446E+02 0.  0.
          1    1    1    2  501    0 -0.19438953171E+02 -0.71188848270E+01 -0.10768480052E+03  0.10965658979E+03  0.00000000000E+00 0. -1.
         -2    1    1    2    0  502 -0.22607150744E+02 -0.22427465618E+02 -0.48426266288E+02  0.57958413931E+02  0.00000000000E+00 0.  1.
<mgrwt>
<rscale>  2 0.73991134E+02</rscale>
<asrwt>0</asrwt>
<pdfrwt beam="1">  1       21 0.51701485E-02 0.73991134E+02</pdfrwt>
<pdfrwt beam="2">  1       21 0.37478680E-01 0.73991134E+02</pdfrwt>
<totfact> 0.17097163E+06</totfact>
</mgrwt>
</event>
<event>
 5    1  0.1854763E+000  0.1278598E+03  0.7546771E-02  0.1230666E+00
         21   -1    0    0  501  502  0.00000000000E+00  0.00000000000E+00  0.18905550287E+02  0.18905550287E+02  0.00000000000E+00 0. -1.
         21   -1    0    0  502  503 -0.00000000000E+00 -0.00000000000E+00 -0.15250053698E+04  0.15250053698E+04  0.00000000000E+00 0.  1.
         24    1    1    2    0    0  0.25296811088E+02  0.30740070799E+02 -0.34761026689E+03  0.35900556292E+03  0.80419002446E+02 0. -1.
          1    1    1    2  501    0 -0.83854435734E+02  0.22524928327E+02 -0.15002722795E+03  0.17334101625E+03  0.00000000000E+00 0. -1.
         -2    1    1    2    0  503  0.58557624646E+02 -0.53264999126E+02 -0.10084623246E+04  0.10115643409E+04  0.00000000000E+00 0.  1.
<mgrwt>
<rscale>  2 0.12785979E+03</rscale>
<asrwt>0</asrwt>
<pdfrwt beam="1">  1       21 0.29085465E-02 0.12785979E+03</pdfrwt>
<pdfrwt beam="2">  1       21 0.23461619E+00 0.12785979E+03</pdfrwt>
<totfact> 0.57548656E+04</totfact>
</mgrwt>
</event>
<event>
 5    1  0.1854763E+000  0.1662381E+03  0.7546771E-02  0.1181829E+00
         21   -1    0    0  501  502  0.00000000000E+00  0.00000000000E+00  0.69553093970E+03  0.69553093970E+03  0.00000000000E+00 0. -1.
         21   -1    0    0  502  503 -0.00000000000E+00 -0.00000000000E+00 -0.40210455224E+02  0.40210455224E+02  0.00000000000E+00 0.  1.
         24    1    1    2    0    0  0.12906864897E+03 -0.74300931245E+02  0.35926127503E+03  0.39713376112E+03  0.80419002446E+02 0. -1.
          1    1    1    2  501    0 -0.19704988303E+02  0.46319566958E+02  0.11019584875E+03  0.12114831376E+03  0.00000000000E+00 0. -1.
         -2    1    1    2    0  503 -0.10936366066E+03  0.27981364287E+02  0.18586336070E+03  0.21745932004E+03  0.00000000000E+00 0.  1.
<mgrwt>
<rscale>  2 0.16623811E+03</rscale>
<asrwt>0</asrwt>
<pdfrwt beam="1">  1       21 0.10700475E+00 0.16623811E+03</pdfrwt>
<pdfrwt beam="2">  1       21 0.61862244E-02 0.16623811E+03</pdfrwt>
<totfact> 0.13200205E+05</totfact>
</mgrwt>
</event>
<event>
 5    1  0.1854763E+000  0.1053275E+03  0.7546771E-02  0.1269476E+00
         21   -1    0    0  501  502  0.00000000000E+00  0.00000000000E+00  0.17480778825E+02  0.17480778825E+02  0.00000000000E+00 0. -1.
         21   -1    0    0  502  503 -0.00000000000E+00 -0.00000000000E+00 -0.10915469470E+04  0.10915469470E+04  0.00000000000E+00 0.  1.
         24    1    1    2    0    0 -0.23817936526E+02 -0.17705630723E+02 -0.34295750638E+03  0.35350792154E+03  0.80419002446E+02 0.  1.
          1    1    1    2  501    0  0.21335230510E+02  0.69694161435E+02 -0.10831455348E+03  0.13055462724E+03  0.00000000000E+00 0. -1.
         -2    1    1    2    0  503  0.24827060159E+01 -0.51988530711E+02 -0.62279410831E+03  0.62496517703E+03  0.00000000000E+00 0.  1.
<mgrwt>
<rscale>  2 0.10532747E+03</rscale>
<asrwt>0</asrwt>
<pdfrwt beam="1">  1       21 0.26893504E-02 0.10532747E+03</pdfrwt>
<pdfrwt beam="2">  1       21 0.16793031E+00 0.10532747E+03</pdfrwt>
<totfact> 0.17442060E+05</totfact>
</mgrwt>
</event>
<event>
 5    1  0.1854763E+000  0.7018536E+02  0.7546771E-02  0.1359464E+00
         21   -1    0    0  503  502  0.00000000000E+00  0.00000000000E+00  0.80858851799E+01  0.80858851799E+01  0.00000000000E+00 0.  1.
         21   -1    0    0  501  503 -0.00000000000E+00 -0.00000000000E+00 -0.93398052339E+03  0.93398052339E+03  0.00000000000E+00 0. -1.
         24    1    1    2    0    0 -0.10922141265E+02  0.45619653574E+02 -0.42856671499E+03  0.43856252816E+03  0.80419002446E+02 0.  1.
          1    1    1    2  501    0  0.86335411807E+01 -0.23554176452E+02 -0.45521156109E+03  0.45590229503E+03  0.00000000000E+00 0. -1.
         -2    1    1    2    0  502  0.22886000845E+01 -0.22065477123E+02 -0.42116362132E+02  0.47601585375E+02  0.00000000000E+00 0.  1.
<mgrwt>
<rscale>  2 0.70185359E+02</rscale>
<asrwt>0</asrwt>
<pdfrwt beam="1">  1       21 0.12439824E-02 0.70185359E+02</pdfrwt>
<pdfrwt beam="2">  1       21 0.14368931E+00 0.70185359E+02</pdfrwt>
<totfact> 0.90088363E+05</totfact>
</mgrwt>
</event>
<event>
 5    1  0.1854763E+000  0.8088685E+02  0.7546771E-02  0.1326553E+00
         21   -1    0    0  503  502  0.00000000000E+00  0.00000000000E+00  0.53924625754E+03  0.53924625754E+03  0.00000000000E+00 0.  1.
         21   -1    0    0  501  503 -0.00000000000E+00 -0.00000000000E+00 -0.63852386238E+02  0.63852386238E+02  0.00000000000E+00 0. -1.
         24    1    1    2    0    0  0.96500170864E+01  0.41297648522E+02  0.29770023336E+03  0.31127361517E+03  0.80419002446E+02 0. -1.
          1    1    1    2  501    0  0.23614232465E+02 -0.22658032472E+02 -0.50659140004E+02  0.60310586769E+02  0.00000000000E+00 0. -1.
         -2    1    1    2    0  502 -0.33264249552E+02 -0.18639616050E+02  0.22835277795E+03  0.23151444184E+03  0.00000000000E+00 0.  1.
<mgrwt>
<rscale>  2 0.80886846E+02</rscale>
<asrwt>0</asrwt>
<pdfrwt beam="1">  1       21 0.82960960E-01 0.80886846E+02</pdfrwt>
<pdfrwt beam="2">  1       21 0.98234444E-02 0.80886846E+02</pdfrwt>
<totfact> 0.11132649E+05</totfact>
</mgrwt>
</event>
<event>
 5    1  0.1854763E+000  0.8531697E+02  0.7546771E-02  0.1314606E+00
         21   -1    0    0  503  502  0.00000000000E+00  0.00000000000E+00  0.54881732678E+03  0.54881732678E+03  0.00000000000E+00 0. -1.
         21   -1    0    0  501  503 -0.00000000000E+00 -0.00000000000E+00 -0.38446988663E+02  0.38446988663E+02  0.00000000000E+00 0. -1.
         24    1    1    2    0    0  0.43343075620E+02  0.42235934957E+02  0.31561326332E+03  0.33127246240E+03  0.80419002446E+02 0. -1.
          1    1    1    2  501    0 -0.78909394208E+01 -0.32184848724E+02 -0.19593291103E+02  0.38497122861E+02  0.00000000000E+00 0. -1.
         -2    1    1    2    0  502 -0.35452136200E+02 -0.10051086233E+02  0.21435036590E+03  0.21749473018E+03  0.00000000000E+00 0.  1.
<mgrwt>
<rscale>  2 0.85316969E+02</rscale>
<asrwt>0</asrwt>
<pdfrwt beam="1">  1       21 0.84433429E-01 0.85316969E+02</pdfrwt>
<pdfrwt beam="2">  1       21 0.59149217E-02 0.85316969E+02</pdfrwt>
<totfact> 0.25310619E+05</totfact>
</mgrwt>
</event>
<event>
 5    1  0.1854763E+000  0.1428123E+03  0.7546771E-02  0.1209594E+00
         21   -1    0    0  503  502  0.00000000000E+00  0.00000000000E+00  0.10560794032E+03  0.10560794032E+03  0.00000000000E+00 0.  1.
         21   -1    0    0  501  503 -0.00000000000E+00 -0.00000000000E+00 -0.48641182627E+03  0.48641182627E+03  0.00000000000E+00 0. -1.
         24    1    1    2    0    0 -0.13120197259E+03 -0.87153992407E+01 -0.12989489177E+03  0.20156838705E+03  0.80419002446E+02 0. -1.
          1    1    1    2  501    0  0.94751629771E+02  0.62671160580E+01 -0.30820368710E+03  0.32250063695E+03  0.00000000000E+00 0. -1.
         -2    1    1    2    0  502  0.36450342818E+02  0.24482831827E+01  0.57294692925E+02  0.67950742597E+02  0.00000000000E+00 0.  1.
<mgrwt>
<rscale>  2 0.14281231E+03</rscale>
<asrwt>0</asrwt>
<pdfrwt beam="1">  1       21 0.16247375E-01 0.14281231E+03</pdfrwt>
<pdfrwt beam="2">  1       21 0.74832589E-01 0.14281231E+03</pdfrwt>
<totfact> 0.55499341E+04</totfact>
</mgrwt>
</event>
<event>
 5    1  0.1854763E+000  0.9948089E+02  0.7546771E-02  0.1281391E+00
         21   -1    0    0  501  502  0.00000000000E+00  0.00000000000E+00  0.38054034245E+02  0.38054034245E+02  0.00000000000E+00 0.  1.
         21   -1    0    0  502  503 -0.00000000000E+00 -0.00000000000E+00 -0.70100311929E+03  0.70100311929E+03  0.00000000000E+00 0.  1.
         24    1    1    2    0    0  0.92819126916E+01 -0.67088183536E+01 -0.10797219191E+03  0.13511614384E+03  0.80419002446E+02 0.  1.
          1    1    1    2  501    0 -0.63409626923E+02  0.32195934344E+01 -0.20499752467E+02  0.66718711165E+02  0.00000000000E+00 0. -1.
         -2    1    1    2    0  503  0.54127714231E+02  0.34892249192E+01 -0.53447714067E+03  0.53722229852E+03  0.00000000000E+00 0.  1.
<mgrwt>
<rscale>  2 0.99480886E+02</rscale>
<asrwt>0</asrwt>
<pdfrwt beam="1">  1       21 0.58544676E-02 0.99480886E+02</pdfrwt>
<pdfrwt beam="2">  1       21 0.10784662E+00 0.99480886E+02</pdfrwt>
<totfact> 0.14615741E+05</totfact>
</mgrwt>
</event>
<event>
 5    1  0.1854763E+000  0.1331676E+03  0.7546771E-02  0.1222830E+00
         21   -1    0    0  501  502  0.00000000000E+00  0.00000000000E+00  0.48012363845E+03  0.48012363845E+03  0.00000000000E+00 0. -1.
         21   -1    0    0  502  503 -0.00000000000E+00 -0.00000000000E+00 -0.11723337948E+03  0.11723337948E+03  0.00000000000E+00 0.  1.
         24    1    1    2    0    0  0.80651374219E+02 -0.81071855156E+02  0.29319074449E+03  0.32481582238E+03  0.80419002446E+02 0. -1.
          1    1    1    2  501    0 -0.83783919579E+02  0.54886087574E+02  0.15428159280E+03  0.18394302831E+03  0.00000000000E+00 0. -1.
         -2    1    1    2    0  503  0.31325453600E+01  0.26185767582E+02 -0.84582078314E+02  0.88598167228E+02  0.00000000000E+00 0.  1.
<mgrwt>
<rscale>  2 0.13316757E+03</rscale>
<asrwt>0</asrwt>
<pdfrwt beam="1">  1       21 0.73865174E-01 0.13316757E+03</pdfrwt>
<pdfrwt beam="2">  1       21 0.18035905E-01 0.13316757E+03</pdfrwt>
<totfact> 0.47444790E+04</totfact>
</mgrwt>
</event>
<event>
 5    1  0.1854763E+000  0.1038852E+03  0.7546771E-02  0.1272332E+00
         21   -1    0    0  503  502  0.00000000000E+00  0.00000000000E+00  0.15706795173E+02  0.15706795173E+02  0.00000000000E+00 0. -1.
         21   -1    0    0  501  503 -0.00000000000E+00 -0.00000000000E+00 -0.10635688573E+04  0.10635688573E+04  0.00000000000E+00 0. -1.
         24    1    1    2    0    0 -0.56730941653E+02  0.61866289431E+02 -0.76876106396E+03  0.77750024239E+03  0.80419002446E+02 0. -1.
          1    1    1    2  501    0  0.14649454863E+02 -0.42964181888E+02 -0.22986626972E+03  0.23430541908E+03  0.00000000000E+00 0. -1.
         -2    1    1    2    0  502  0.42081486790E+02 -0.18902107543E+02 -0.49234728428E+02  0.67469990985E+02  0.00000000000E+00 0.  1.
<mgrwt>
<rscale>  2 0.10388524E+03</rscale>
<asrwt>0</asrwt>
<pdfrwt beam="1">  1       21 0.24164297E-02 0.10388524E+03</pdfrwt>
<pdfrwt beam="2">  1       21 0.16362600E+00 0.10388524E+03</pdfrwt>
<totfact> 0.22242310E+05</totfact>
</mgrwt>
</event>
<event>
 5    1  0.1854763E+000  0.1132368E+03  0.7546771E-02  0.1254691E+00
         21   -1    0    0  503  502  0.00000000000E+00  0.00000000000E+00  0.79871015108E+01  0.79871015108E+01  0.00000000000E+00 0.  1.
         21   -1    0    0  501  503 -0.00000000000E+00 -0.00000000000E+00 -0.36561574317E+04  0.36561574317E+04  0.00000000000E+00 0. -1.
         24    1    1    2    0    0  0.50748187169E+02  0.83501147758E+02 -0.55226917405E+03  0.56658298310E+03  0.80419002446E+02 0.  1.
          1    1    1    2  501    0 -0.29461812563E+02 -0.66314262299E+02 -0.24642804229E+04  0.24653485722E+04  0.00000000000E+00 0. -1.
         -2    1    1    2    0  502 -0.21286374606E+02 -0.17186885459E+02 -0.63162073321E+03  0.63221297788E+03  0.00000000000E+00 0.  1.
<mgrwt>
<rscale>  2 0.11323677E+03</rscale>
<asrwt>0</asrwt>
<pdfrwt beam="1">  1       21 0.12287889E-02 0.11323677E+03</pdfrwt>
<pdfrwt beam="2">  1       21 0.56248389E+00 0.11323677E+03</pdfrwt>
<totfact> 0.20822749E+03</totfact>
</mgrwt>
</event>
<event>
 5    1  0.1854763E+000  0.1828678E+03  0.7546771E-02  0.1165056E+00
         21   -1    0    0  503  502  0.00000000000E+00  0.00000000000E+00  0.15330769520E+03  0.15330769520E+03  0.00000000000E+00 0.  1.
         21   -1    0    0  501  503 -0.00000000000E+00 -0.00000000000E+00 -0.25650995896E+03  0.25650995896E+03  0.00000000000E+00 0.  1.
         24    1    1    2    0    0 -0.70110491724E+02  0.15093165072E+03 -0.30315555579E+02  0.18730214388E+03  0.80419002446E+02 0.  1.
          1    1    1    2  501    0  0.55939433139E+02 -0.39273720674E+02 -0.85270519835E+02  0.10928269245E+03  0.00000000000E+00 0. -1.
         -2    1    1    2    0  502  0.14171058585E+02 -0.11165793004E+03  0.12383811655E+02  0.11323281783E+03  0.00000000000E+00 0.  1.
<mgrwt>
<rscale>  2 0.18286778E+03</rscale>
<asrwt>0</asrwt>
<pdfrwt beam="1">  1       21 0.23585799E-01 0.18286778E+03</pdfrwt>
<pdfrwt beam="2">  1       21 0.39463071E-01 0.18286778E+03</pdfrwt>
<totfact> 0.10512837E+05</totfact>
</mgrwt>
</event>
<event>
 5    1  0.1854763E+000  0.1069202E+03  0.7546771E-02  0.1266382E+00
         21   -1    0    0  503  502  0.00000000000E+00  0.00000000000E+00  0.23847988543E+03  0.23847988543E+03  0.00000000000E+00 0. -1.
         21   -1    0    0  501  503 -0.00000000000E+00 -0.00000000000E+00 -0.10603302646E+03  0.10603302646E+03  0.00000000000E+00 0. -1.
         24    1    1    2    0    0 -0.14747828632E+02  0.49533005531E+02  0.13929180415E+03  0.16893915989E+03  0.80419002446E+02 0. -1.
          1    1    1    2  501    0  0.53182926906E+02 -0.58206957669E+02 -0.67131984286E+02  0.10355277374E+03  0.00000000000E+00 0. -1.
         -2    1    1    2    0  502 -0.38435098274E+02  0.86739521378E+01  0.60287039110E+02  0.72020978261E+02  0.00000000000E+00 0.  1.
<mgrwt>
<rscale>  2 0.10692021E+03</rscale>
<asrwt>0</asrwt>
<pdfrwt beam="1">  1       21 0.36689213E-01 0.10692021E+03</pdfrwt>
<pdfrwt beam="2">  1       21 0.16312773E-01 0.10692021E+03</pdfrwt>
<totfact> 0.24609852E+05</totfact>
</mgrwt>
</event>
<event>
 5    1  0.1854763E+000  0.8477721E+02  0.7546771E-02  0.1316016E+00
         21   -1    0    0  503  502  0.00000000000E+00  0.00000000000E+00  0.13978218033E+03  0.13978218033E+03  0.00000000000E+00 0. -1.
         21   -1    0    0  501  503 -0.00000000000E+00 -0.00000000000E+00 -0.69286873701E+02  0.69286873701E+02  0.00000000000E+00 0.  1.
         24    1    1    2    0    0  0.44586504394E+02  0.11387467381E+02  0.24743175395E+02  0.95901363235E+02  0.80419002446E+02 0.  0.
          1    1    1    2  501    0 -0.55403665068E+02  0.67177519286E+01 -0.71034297801E+01  0.56259692574E+02  0.00000000000E+00 0. -1.
         -2    1    1    2    0  502  0.10817160674E+02 -0.18105219309E+02  0.52855561014E+02  0.56907998220E+02  0.00000000000E+00 0.  1.
<mgrwt>
<rscale>  2 0.84777206E+02</rscale>
<asrwt>0</asrwt>
<pdfrwt beam="1">  1       21 0.21504951E-01 0.84777206E+02</pdfrwt>
<pdfrwt beam="2">  1       21 0.10659519E-01 0.84777206E+02</pdfrwt>
<totfact> 0.14409106E+06</totfact>
</mgrwt>
</event>
<event>
 5    1  0.1854763E+000  0.6826675E+02  0.7546771E-02  0.1366088E+00
         21   -1    0    0  503  502  0.00000000000E+00  0.00000000000E+00  0.63678334793E+02  0.63678334793E+02  0.00000000000E+00 0. -1.
         21   -1    0    0  501  503 -0.00000000000E+00 -0.00000000000E+00 -0.79678025051E+02  0.79678025051E+02  0.00000000000E+00 0.  1.
         24    1    1    2    0    0 -0.15545073991E+02 -0.48653180194E+00 -0.23984793553E+02  0.85348534344E+02  0.80419002446E+02 0.  1.
          1    1    1    2  501    0  0.30863741722E+02 -0.13679682560E+02 -0.39185526680E+01  0.33986163700E+02  0.00000000000E+00 0. -1.
         -2    1    1    2    0  502 -0.15318667730E+02  0.14166214362E+02  0.11903655963E+02  0.24021661801E+02  0.00000000000E+00 0.  1.
<mgrwt>
<rscale>  2 0.68266747E+02</rscale>
<asrwt>0</asrwt>
<pdfrwt beam="1">  1       21 0.97966669E-02 0.68266747E+02</pdfrwt>
<pdfrwt beam="2">  1       21 0.12258158E-01 0.68266747E+02</pdfrwt>
<totfact> 0.45045909E+06</totfact>
</mgrwt>
</event>
<event>
 5    1  0.1854763E+000  0.8451114E+02  0.7546771E-02  0.1316716E+00
         21   -1    0    0  503  502  0.00000000000E+00  0.00000000000E+00  0.99837818100E+02  0.99837818100E+02  0.00000000000E+00 0.  1.
         21   -1    0    0  501  503 -0.00000000000E+00 -0.00000000000E+00 -0.73150714272E+02  0.73150714272E+02  0.00000000000E+00 0. -1.
         24    1    1    2    0    0  0.74242000731E+01 -0.45492555078E+02  0.26749915211E+02  0.96475205273E+02  0.80419002446E+02 0.  1.
          1    1    1    2  501    0 -0.31945420511E+02  0.40017739671E+02  0.24476948753E+01  0.51263247948E+02  0.00000000000E+00 0. -1.
         -2    1    1    2    0  502  0.24521220438E+02  0.54748154063E+01 -0.25105062586E+01  0.25250079152E+02  0.00000000000E+00 0.  1.
<mgrwt>
<rscale>  2 0.84511143E+02</rscale>
<asrwt>0</asrwt>
<pdfrwt beam="1">  1       21 0.15359664E-01 0.84511143E+02</pdfrwt>
<pdfrwt beam="2">  1       21 0.11253956E-01 0.84511143E+02</pdfrwt>
<totfact> 0.24118301E+06</totfact>
</mgrwt>
</event>
<event>
 5    1  0.1854763E+000  0.7961366E+02  0.7546771E-02  0.1330151E+00
         21   -1    0    0  501  502  0.00000000000E+00  0.00000000000E+00  0.72985635199E+03  0.72985635199E+03  0.00000000000E+00 0. -1.
         21   -1    0    0  502  503 -0.00000000000E+00 -0.00000000000E+00 -0.73716033798E+02  0.73716033798E+02  0.00000000000E+00 0.  1.
         24    1    1    2    0    0 -0.33433246013E+02 -0.92015392128E+01  0.18378579382E+03  0.20358507859E+03  0.80419002446E+02 0.  0.
          1    1    1    2  501    0  0.35403258484E+02 -0.21147073099E+02  0.53170325319E+03  0.53330004581E+03  0.00000000000E+00 0. -1.
         -2    1    1    2    0  503 -0.19700124704E+01  0.30348612312E+02 -0.59348728815E+02  0.66687261380E+02  0.00000000000E+00 0.  1.
<mgrwt>
<rscale>  2 0.79613659E+02</rscale>
<asrwt>0</asrwt>
<pdfrwt beam="1">  1       21 0.11228559E+00 0.79613659E+02</pdfrwt>
<pdfrwt beam="2">  1       21 0.11340929E-01 0.79613659E+02</pdfrwt>
<totfact> 0.43485347E+04</totfact>
</mgrwt>
</event>
<event>
 5    1  0.1854763E+000  0.7508860E+02  0.7546771E-02  0.1343597E+00
         21   -1    0    0  503  502  0.00000000000E+00  0.00000000000E+00  0.19646662488E+02  0.19646662488E+02  0.00000000000E+00 0.  1.
         21   -1    0    0  501  503 -0.00000000000E+00 -0.00000000000E+00 -0.38612258315E+03  0.38612258315E+03  0.00000000000E+00 0.  1.
         24    1    1    2    0    0 -0.91401559730E+01 -0.49816839399E+02 -0.23261178820E+03  0.25127817235E+03  0.80419002446E+02 0.  1.
          1    1    1    2  501    0  0.15600556477E+02  0.24787306834E+02 -0.12302077338E+03  0.12645907886E+03  0.00000000000E+00 0. -1.
         -2    1    1    2    0  502 -0.64604005040E+01  0.25029532566E+02 -0.10843359080E+02  0.28031994422E+02  0.00000000000E+00 0.  1.
<mgrwt>
<rscale>  2 0.75088598E+02</rscale>
<asrwt>0</asrwt>
<pdfrwt beam="1">  1       21 0.30225638E-02 0.75088598E+02</pdfrwt>
<pdfrwt beam="2">  1       21 0.59403468E-01 0.75088598E+02</pdfrwt>
<totfact> 0.16290604E+06</totfact>
</mgrwt>
</event>
<event>
 5    1  0.1854763E+000  0.9647716E+02  0.7546771E-02  0.1287883E+00
         21   -1    0    0  501  502  0.00000000000E+00  0.00000000000E+00  0.23347675472E+03  0.23347675472E+03  0.00000000000E+00 0.  1.
         21   -1    0    0  502  503 -0.00000000000E+00 -0.00000000000E+00 -0.69297007647E+02  0.69297007647E+02  0.00000000000E+00 0. -1.
         24    1    1    2    0    0  0.69173642001E+02 -0.13964063909E+02  0.16499226912E+03  0.19664600848E+03  0.80419002446E+02 0.  0.
          1    1    1    2  501    0 -0.52393135956E+01  0.20998785436E+02  0.28216062787E+02  0.35560449884E+02  0.00000000000E+00 0. -1.
         -2    1    1    2    0  503 -0.63934328406E+02 -0.70347215269E+01 -0.29028584837E+02  0.70567303996E+02  0.00000000000E+00 0.  1.
<mgrwt>
<rscale>  2 0.96477162E+02</rscale>
<asrwt>0</asrwt>
<pdfrwt beam="1">  1       21 0.35919500E-01 0.96477162E+02</pdfrwt>
<pdfrwt beam="2">  1       21 0.10661078E-01 0.96477162E+02</pdfrwt>
<totfact> 0.54619456E+05</totfact>
</mgrwt>
</event>
<event>
 5    1  0.1854763E+000  0.1247985E+03  0.7546771E-02  0.1235385E+00
         21   -1    0    0  501  502  0.00000000000E+00  0.00000000000E+00  0.10736199563E+03  0.10736199563E+03  0.00000000000E+00 0. -1.
         21   -1    0    0  502  503 -0.00000000000E+00 -0.00000000000E+00 -0.17625460372E+03  0.17625460372E+03  0.00000000000E+00 0. -1.
         24    1    1    2    0    0 -0.43818694626E+02  0.94892349024E+02 -0.81820424412E+02  0.15519804673E+03  0.80419002446E+02 0. -1.
          1    1    1    2  501    0  0.17919637758E+02 -0.89484547726E+02  0.30994635661E+02  0.96380833877E+02  0.00000000000E+00 0. -1.
         -2    1    1    2    0  503  0.25899056868E+02 -0.54078012987E+01 -0.18066819342E+02  0.32037718750E+02  0.00000000000E+00 0.  1.
<mgrwt>
<rscale>  2 0.12479847E+03</rscale>
<asrwt>0</asrwt>
<pdfrwt beam="1">  1       21 0.16517230E-01 0.12479847E+03</pdfrwt>
<pdfrwt beam="2">  1       21 0.27116093E-01 0.12479847E+03</pdfrwt>
<totfact> 0.43060579E+05</totfact>
</mgrwt>
</event>
<event>
 5    1  0.1854763E+000  0.7785314E+02  0.7546771E-02  0.1335257E+00
         21   -1    0    0  501  502  0.00000000000E+00  0.00000000000E+00  0.25953816487E+02  0.25953816487E+02  0.00000000000E+00 0. -1.
         21   -1    0    0  502  503 -0.00000000000E+00 -0.00000000000E+00 -0.23444953954E+03  0.23444953954E+03  0.00000000000E+00 0. -1.
         24    1    1    2    0    0  0.21166689998E+02  0.11836960045E+02 -0.12001472532E+03  0.14648854097E+03  0.80419002446E+02 0. -1.
          1    1    1    2  501    0 -0.40369574268E+02 -0.25851111424E+02 -0.57402427627E+02  0.74786504036E+02  0.00000000000E+00 0. -1.
         -2    1    1    2    0  503  0.19202884270E+02  0.14014151380E+02 -0.31078570109E+02  0.39128311018E+02  0.00000000000E+00 0.  1.
<mgrwt>
<rscale>  2 0.77853141E+02</rscale>
<asrwt>0</asrwt>
<pdfrwt beam="1">  1       21 0.39928948E-02 0.77853141E+02</pdfrwt>
<pdfrwt beam="2">  1       21 0.36069160E-01 0.77853141E+02</pdfrwt>
<totfact> 0.28271699E+06</totfact>
</mgrwt>
</event>
<event>
 5    1  0.1854763E+000  0.8506193E+02  0.7546771E-02  0.1315271E+00
         21   -1    0    0  501  502  0.00000000000E+00  0.00000000000E+00  0.14026173401E+03  0.14026173401E+03  0.00000000000E+00 0. -1.
         21   -1    0    0  502  503 -0.00000000000E+00 -0.00000000000E+00 -0.13579137667E+03  0.13579137667E+03  0.00000000000E+00 0.  1.
         24    1    1    2    0    0  0.31023175050E+02  0.22308811459E+02  0.10668328484E+02  0.89672457566E+02  0.80419002446E+02 0.  1.
          1    1    1    2  501    0  0.34295197368E+01  0.23511533578E+02  0.79668172775E+02  0.83135862118E+02  0.00000000000E+00 0. -1.
         -2    1    1    2    0  503 -0.34452694787E+02 -0.45820345038E+02 -0.85866143916E+02  0.10324479100E+03  0.00000000000E+00 0.  1.
<mgrwt>
<rscale>  2 0.85061934E+02</rscale>
<asrwt>0</asrwt>
<pdfrwt beam="1">  1       21 0.21578728E-01 0.85061934E+02</pdfrwt>
<pdfrwt beam="2">  1       21 0.20890981E-01 0.85061934E+02</pdfrwt>
<totfact> 0.43145610E+05</totfact>
</mgrwt>
</event>
<event>
 5    1  0.2421115E+000  0.1173903E+03  0.7546771E-02  0.1247465E+00
         21   -1    0    0  503  502  0.00000000000E+00  0.00000000000E+00  0.14855672445E+03  0.14855672445E+03  0.00000000000E+00 0.  1.
         21   -1    0    0  501  503 -0.00000000000E+00 -0.00000000000E+00 -0.90698966263E+03  0.90698966263E+03  0.00000000000E+00 0. -1.
         24    1    1    2    0    0 -0.58514432434E+02 -0.28154238207E+01 -0.26779236839E+02  0.10303498869E+03  0.80419002446E+02 0. -1.
          1    1    1    2  501    0  0.96683351247E+02  0.67302604193E+01 -0.83586296343E+03  0.84146292874E+03  0.00000000000E+00 0. -1.
         -2    1    1    2    0  502 -0.38168918814E+02 -0.39148365986E+01  0.10420926209E+03  0.11104846966E+03  0.00000000000E+00 0.  1.
<mgrwt>
<rscale>  2 0.11739030E+03</rscale>
<asrwt>0</asrwt>
<pdfrwt beam="1">  1       21 0.22854881E-01 0.11739030E+03</pdfrwt>
<pdfrwt beam="2">  1       21 0.13953687E+00 0.11739030E+03</pdfrwt>
<totfact> 0.69525662E+03</totfact>
</mgrwt>
</event>
<event>
 5    1  0.1854763E+000  0.7184000E+02  0.7546771E-02  0.1353946E+00
         21   -1    0    0  501  502  0.00000000000E+00  0.00000000000E+00  0.13056556396E+02  0.13056556396E+02  0.00000000000E+00 0.  1.
         21   -1    0    0  502  503 -0.00000000000E+00 -0.00000000000E+00 -0.14382969445E+04  0.14382969445E+04  0.00000000000E+00 0. -1.
         24    1    1    2    0    0 -0.50935967860E+01 -0.18700727236E+02 -0.98926650259E+03  0.99271903932E+03  0.80419002446E+02 0. -1.
          1    1    1    2  501    0  0.13519534680E+01 -0.21019151461E+02 -0.22577112603E+00  0.21063795454E+02  0.00000000000E+00 0. -1.
         -2    1    1    2    0  503  0.37416433180E+01  0.39719878697E+02 -0.43574811438E+03  0.43757066612E+03  0.00000000000E+00 0.  1.
<mgrwt>
<rscale>  2 0.71839999E+02</rscale>
<asrwt>0</asrwt>
<pdfrwt beam="1">  1       21 0.20087009E-02 0.71839999E+02</pdfrwt>
<pdfrwt beam="2">  1       21 0.22127647E+00 0.71839999E+02</pdfrwt>
<totfact> 0.13268770E+05</totfact>
</mgrwt>
</event>
<event>
 5    1  0.1854763E+000  0.6710504E+02  0.7546771E-02  0.1370224E+00
         21   -1    0    0  501  502  0.00000000000E+00  0.00000000000E+00  0.50822392447E+01  0.50822392447E+01  0.00000000000E+00 0.  1.
         21   -1    0    0  502  503 -0.00000000000E+00 -0.00000000000E+00 -0.11230313446E+04  0.11230313446E+04  0.00000000000E+00 0. -1.
         24    1    1    2    0    0 -0.37764504797E+00 -0.20972863468E+02 -0.85556725262E+03  0.85959440629E+03  0.80419002446E+02 0. -1.
          1    1    1    2  501    0  0.20059498196E+02 -0.27817389595E+01 -0.50596580663E+02  0.54498949663E+02  0.00000000000E+00 0. -1.
         -2    1    1    2    0  503 -0.19681853148E+02  0.23754602427E+02 -0.21178527212E+03  0.21402022794E+03  0.00000000000E+00 0.  1.
<mgrwt>
<rscale>  2 0.67105036E+02</rscale>
<asrwt>0</asrwt>
<pdfrwt beam="1">  1       21 0.78188309E-03 0.67105036E+02</pdfrwt>
<pdfrwt beam="2">  1       21 0.17277402E+00 0.67105036E+02</pdfrwt>
<totfact> 0.11558507E+06</totfact>
</mgrwt>
</event>
<event>
 5    1  0.1854763E+000  0.1070615E+03  0.7546771E-02  0.1266110E+00
         21   -1    0    0  503  502  0.00000000000E+00  0.00000000000E+00  0.17035141762E+03  0.17035141762E+03  0.00000000000E+00 0.  1.
         21   -1    0    0  501  503 -0.00000000000E+00 -0.00000000000E+00 -0.79041800657E+02  0.79041800657E+02  0.00000000000E+00 0.  1.
         24    1    1    2    0    0 -0.51159648856E+02 -0.13594458072E+02 -0.49656301630E+00  0.96278665812E+02  0.80419002446E+02 0.  1.
          1    1    1    2  501    0  0.16546016986E+02 -0.46023822957E+02  0.17985434911E+02  0.52109872640E+02  0.00000000000E+00 0. -1.
         -2    1    1    2    0  502  0.34613631871E+02  0.59618281029E+02  0.73820745073E+02  0.10100467983E+03  0.00000000000E+00 0.  1.
<mgrwt>
<rscale>  2 0.10706152E+03</rscale>
<asrwt>0</asrwt>
<pdfrwt beam="1">  1       21 0.26207910E-01 0.10706152E+03</pdfrwt>
<pdfrwt beam="2">  1       21 0.12160277E-01 0.10706152E+03</pdfrwt>
<totfact> 0.79497648E+05</totfact>
</mgrwt>
</event>
<event>
 5    1  0.1854763E+000  0.1155642E+03  0.7546771E-02  0.1250599E+00
         21   -1    0    0  503  502  0.00000000000E+00  0.00000000000E+00  0.46626228976E+02  0.46626228976E+02  0.00000000000E+00 0.  1.
         21   -1    0    0  501  503 -0.00000000000E+00 -0.00000000000E+00 -0.10253316768E+04  0.10253316768E+04  0.00000000000E+00 0. -1.
         24    1    1    2    0    0 -0.32931644035E+02 -0.89114964985E+02 -0.32224587481E+03  0.34544983709E+03  0.80419002446E+02 0. -1.
          1    1    1    2  501    0  0.45717059789E+02  0.66984369589E+02 -0.68408367282E+03  0.68887402821E+03  0.00000000000E+00 0. -1.
         -2    1    1    2    0  502 -0.12785415755E+02  0.22130595396E+02  0.27624099831E+02  0.37634040443E+02  0.00000000000E+00 0.  1.
<mgrwt>
<rscale>  2 0.11556421E+03</rscale>
<asrwt>0</asrwt>
<pdfrwt beam="1">  1       21 0.71732664E-02 0.11556421E+03</pdfrwt>
<pdfrwt beam="2">  1       21 0.15774333E+00 0.11556421E+03</pdfrwt>
<totfact> 0.39953782E+04</totfact>
</mgrwt>
</event>
<event>
 5    1  0.1854763E+000  0.7090014E+02  0.7546771E-02  0.1357059E+00
         21   -1    0    0  503  502  0.00000000000E+00  0.00000000000E+00  0.72527606968E+02  0.72527606968E+02  0.00000000000E+00 0.  1.
         21   -1    0    0  501  503 -0.00000000000E+00 -0.00000000000E+00 -0.56862499441E+03  0.56862499441E+03  0.00000000000E+00 0. -1.
         24    1    1    2    0    0  0.40328939527E+02  0.16399752753E+02 -0.14858809830E+03  0.17447353428E+03  0.80419002446E+02 0.  1.
          1    1    1    2  501    0 -0.18841226445E+02 -0.21172229060E+02 -0.40454853268E+03  0.40554009714E+03  0.00000000000E+00 0. -1.
         -2    1    1    2    0  502 -0.21487713082E+02  0.47724763071E+01  0.57039243538E+02  0.61138969953E+02  0.00000000000E+00 0.  1.
<mgrwt>
<rscale>  2 0.70900141E+02</rscale>
<asrwt>0</asrwt>
<pdfrwt beam="1">  1       21 0.11158093E-01 0.70900141E+02</pdfrwt>
<pdfrwt beam="2">  1       21 0.87480769E-01 0.70900141E+02</pdfrwt>
<totfact> 0.79897534E+04</totfact>
</mgrwt>
</event>
<event>
 5    1  0.1854763E+000  0.7592608E+02  0.7546771E-02  0.1341027E+00
         21   -1    0    0  501  502  0.00000000000E+00  0.00000000000E+00  0.13501569321E+02  0.13501569321E+02  0.00000000000E+00 0.  1.
         21   -1    0    0  502  503 -0.00000000000E+00 -0.00000000000E+00 -0.66915731819E+03  0.66915731819E+03  0.00000000000E+00 0. -1.
         24    1    1    2    0    0 -0.27043414169E+02  0.47464063371E+02 -0.19564546273E+03  0.21846863986E+03  0.80419002446E+02 0.  1.
          1    1    1    2  501    0  0.11279730081E+02 -0.20618418715E+02 -0.95359714050E+02  0.98213168998E+02  0.00000000000E+00 0. -1.
         -2    1    1    2    0  503  0.15763684088E+02 -0.26845644656E+02 -0.36465057209E+03  0.36597707865E+03  0.00000000000E+00 0.  1.
<mgrwt>
<rscale>  2 0.75926081E+02</rscale>
<asrwt>0</asrwt>
<pdfrwt beam="1">  1       21 0.20771640E-02 0.75926081E+02</pdfrwt>
<pdfrwt beam="2">  1       21 0.10294730E+00 0.75926081E+02</pdfrwt>
<totfact> 0.89206350E+05</totfact>
</mgrwt>
</event>
<event>
 5    1  0.1854763E+000  0.6963045E+02  0.7546771E-02  0.1361354E+00
         21   -1    0    0  503  502  0.00000000000E+00  0.00000000000E+00  0.48416908487E+02  0.48416908487E+02  0.00000000000E+00 0.  1.
         21   -1    0    0  501  503 -0.00000000000E+00 -0.00000000000E+00 -0.23368628540E+03  0.23368628540E+03  0.00000000000E+00 0. -1.
         24    1    1    2    0    0 -0.46634319351E+01 -0.56499226745E+00 -0.35282106156E+02  0.87943787631E+02  0.80419002446E+02 0.  0.
          1    1    1    2  501    0  0.20231331194E+02  0.23485032586E+02 -0.16128549042E+03  0.16423721544E+03  0.00000000000E+00 0. -1.
         -2    1    1    2    0  502 -0.15567899259E+02 -0.22920040318E+02  0.11298219661E+02  0.29922190813E+02  0.00000000000E+00 0.  1.
<mgrwt>
<rscale>  2 0.69630450E+02</rscale>
<asrwt>0</asrwt>
<pdfrwt beam="1">  1       21 0.74487550E-02 0.69630450E+02</pdfrwt>
<pdfrwt beam="2">  1       21 0.35951737E-01 0.69630450E+02</pdfrwt>
<totfact> 0.10041796E+06</totfact>
</mgrwt>
</event>
<event>
 5    1  0.1854763E+000  0.7027519E+02  0.7546771E-02  0.1359160E+00
         21   -1    0    0  503  502  0.00000000000E+00  0.00000000000E+00  0.34088945675E+02  0.34088945675E+02  0.00000000000E+00 0.  1.
         21   -1    0    0  501  503 -0.00000000000E+00 -0.00000000000E+00 -0.36580765366E+03  0.36580765366E+03  0.00000000000E+00 0. -1.
         24    1    1    2    0    0 -0.15993871316E+02 -0.10239895786E+02 -0.16982252588E+03  0.18885858634E+03  0.80419002446E+02 0.  0.
          1    1    1    2  501    0  0.10150388918E+02 -0.22488677009E+02 -0.17393726662E+03  0.17567852375E+03  0.00000000000E+00 0. -1.
         -2    1    1    2    0  502  0.58434823979E+01  0.32728572794E+02  0.12041084506E+02  0.35359489246E+02  0.00000000000E+00 0.  1.
<mgrwt>
<rscale>  2 0.70275191E+02</rscale>
<asrwt>0</asrwt>
<pdfrwt beam="1">  1       21 0.52444530E-02 0.70275191E+02</pdfrwt>
<pdfrwt beam="2">  1       21 0.56278102E-01 0.70275191E+02</pdfrwt>
<totfact> 0.73814263E+05</totfact>
</mgrwt>
</event>
<event>
 5    1  0.1854763E+000  0.8243216E+02  0.7546771E-02  0.1322288E+00
         21   -1    0    0  503  502  0.00000000000E+00  0.00000000000E+00  0.45041287418E+02  0.45041287418E+02  0.00000000000E+00 0.  1.
         21   -1    0    0  501  503 -0.00000000000E+00 -0.00000000000E+00 -0.16183237186E+03  0.16183237186E+03  0.00000000000E+00 0. -1.
         24    1    1    2    0    0 -0.21222561485E+02 -0.42811305544E+01 -0.56911237647E+02  0.10087036294E+03  0.80419002446E+02 0.  0.
          1    1    1    2  501    0 -0.30030127602E+02  0.42495608583E+01 -0.41823302168E+02  0.51662906766E+02  0.00000000000E+00 0. -1.
         -2    1    1    2    0  502  0.51252689087E+02  0.31569696124E-01 -0.18056544632E+02  0.54340389576E+02  0.00000000000E+00 0.  1.
<mgrwt>
<rscale>  2 0.82432156E+02</rscale>
<asrwt>0</asrwt>
<pdfrwt beam="1">  1       21 0.69294287E-02 0.82432156E+02</pdfrwt>
<pdfrwt beam="2">  1       21 0.24897289E-01 0.82432156E+02</pdfrwt>
<totfact> 0.22941245E+06</totfact>
</mgrwt>
</event>
<event>
 5    1  0.1854763E+000  0.1115239E+03  0.7546771E-02  0.1257774E+00
         21   -1    0    0  501  502  0.00000000000E+00  0.00000000000E+00  0.25947726272E+03  0.25947726272E+03  0.00000000000E+00 0. -1.
         21   -1    0    0  502  503 -0.00000000000E+00 -0.00000000000E+00 -0.17799120404E+03  0.17799120404E+03  0.00000000000E+00 0.  1.
         24    1    1    2    0    0  0.22194207710E+02 -0.65697683544E+02  0.50084760562E+02  0.11740727266E+03  0.80419002446E+02 0. -1.
          1    1    1    2  501    0 -0.38687778906E+02  0.83842776319E+02  0.16238463023E+03  0.18680236484E+03  0.00000000000E+00 0. -1.
         -2    1    1    2    0  503  0.16493571196E+02 -0.18145092774E+02 -0.13098333211E+03  0.13325882925E+03  0.00000000000E+00 0.  1.
<mgrwt>
<rscale>  2 0.11152388E+03</rscale>
<asrwt>0</asrwt>
<pdfrwt beam="1">  1       21 0.39919579E-01 0.11152388E+03</pdfrwt>
<pdfrwt beam="2">  1       21 0.27383262E-01 0.11152388E+03</pdfrwt>
<totfact> 0.79701436E+04</totfact>
</mgrwt>
</event>
<event>
 5    1  0.1854763E+000  0.7814331E+02  0.7546771E-02  0.1334405E+00
         21   -1    0    0  503  502  0.00000000000E+00  0.00000000000E+00  0.43504743029E+03  0.43504743029E+03  0.00000000000E+00 0. -1.
         21   -1    0    0  501  503 -0.00000000000E+00 -0.00000000000E+00 -0.29480001156E+02  0.29480001156E+02  0.00000000000E+00 0. -1.
         24    1    1    2    0    0  0.32977823791E+02 -0.22744979345E+02  0.27270789407E+03  0.28712659645E+03  0.80419002446E+02 0. -1.
          1    1    1    2  501    0 -0.17349536003E+02  0.39734742359E+02  0.82674038642E+00  0.43365189375E+02  0.00000000000E+00 0. -1.
         -2    1    1    2    0  502 -0.15628287788E+02 -0.16989763013E+02  0.13203279468E+03  0.13403564562E+03  0.00000000000E+00 0.  1.
<mgrwt>
<rscale>  2 0.78143315E+02</rscale>
<asrwt>0</asrwt>
<pdfrwt beam="1">  1       21 0.66930369E-01 0.78143315E+02</pdfrwt>
<pdfrwt beam="2">  1       21 0.45353851E-02 0.78143315E+02</pdfrwt>
<totfact> 0.65335906E+05</totfact>
</mgrwt>
</event>
<event>
 5    1  0.1854763E+000  0.1299361E+03  0.7546771E-02  0.1227551E+00
         21   -1    0    0  501  502  0.00000000000E+00  0.00000000000E+00  0.20685691078E+03  0.20685691078E+03  0.00000000000E+00 0. -1.
         21   -1    0    0  502  503 -0.00000000000E+00 -0.00000000000E+00 -0.11808555963E+03  0.11808555963E+03  0.00000000000E+00 0. -1.
         24    1    1    2    0    0  0.40472194451E+02  0.10756260999E+03 -0.15571509081E+02  0.14112902409E+03  0.80419002446E+02 0. -1.
          1    1    1    2  501    0 -0.42306203972E+02 -0.68581073006E+02  0.11763479533E+03  0.14258724888E+03  0.00000000000E+00 0. -1.
         -2    1    1    2    0  503  0.18340095211E+01 -0.38981536987E+02 -0.13291935103E+02  0.41226197442E+02  0.00000000000E+00 0.  1.
<mgrwt>
<rscale>  2 0.12993613E+03</rscale>
<asrwt>0</asrwt>
<pdfrwt beam="1">  1       21 0.31824140E-01 0.12993613E+03</pdfrwt>
<pdfrwt beam="2">  1       21 0.18167009E-01 0.12993613E+03</pdfrwt>
<totfact> 0.26582228E+05</totfact>
</mgrwt>
</event>
<event>
 5    1  0.1854763E+000  0.1376039E+03  0.7546771E-02  0.1216590E+00
         21   -1    0    0  501  502  0.00000000000E+00  0.00000000000E+00  0.10899821055E+03  0.10899821055E+03  0.00000000000E+00 0.  1.
         21   -1    0    0  502  503 -0.00000000000E+00 -0.00000000000E+00 -0.18130932392E+03  0.18130932392E+03  0.00000000000E+00 0. -1.
         24    1    1    2    0    0  0.49599378913E+02 -0.78453403123E+02 -0.42191036342E+02  0.12985505132E+03  0.80419002446E+02 0. -1.
          1    1    1    2  501    0 -0.70239510631E+02  0.10023170078E+03 -0.70355373948E+01  0.12259478570E+03  0.00000000000E+00 0. -1.
         -2    1    1    2    0  503  0.20640131718E+02 -0.21778297655E+02 -0.23084539633E+02  0.37857697449E+02  0.00000000000E+00 0.  1.
<mgrwt>
<rscale>  2 0.13760385E+03</rscale>
<asrwt>0</asrwt>
<pdfrwt beam="1">  1       21 0.16768956E-01 0.13760385E+03</pdfrwt>
<pdfrwt beam="2">  1       21 0.27893742E-01 0.13760385E+03</pdfrwt>
<totfact> 0.39631476E+05</totfact>
</mgrwt>
</event>
<event>
 5    1  0.1854763E+000  0.6654972E+02  0.7546771E-02  0.1372235E+00
         21   -1    0    0  503  502  0.00000000000E+00  0.00000000000E+00  0.88417655316E+02  0.88417655316E+02  0.00000000000E+00 0.  1.
         21   -1    0    0  501  503 -0.00000000000E+00 -0.00000000000E+00 -0.17273711929E+03  0.17273711929E+03  0.00000000000E+00 0.  1.
         24    1    1    2    0    0  0.15165617887E+02  0.12707910765E+02 -0.12461901047E+03  0.14962820819E+03  0.80419002446E+02 0.  1.
          1    1    1    2  501    0 -0.19034982994E+02  0.13788745464E+02 -0.28944035797E+02  0.37285617700E+02  0.00000000000E+00 0. -1.
         -2    1    1    2    0  502  0.38693651071E+01 -0.26496656229E+02  0.69243582292E+02  0.74240948716E+02  0.00000000000E+00 0.  1.
<mgrwt>
<rscale>  2 0.66549724E+02</rscale>
<asrwt>0</asrwt>
<pdfrwt beam="1">  1       21 0.13602716E-01 0.66549724E+02</pdfrwt>
<pdfrwt beam="2">  1       21 0.26574941E-01 0.66549724E+02</pdfrwt>
<totfact> 0.63223878E+05</totfact>
</mgrwt>
</event>
<event>
 5    1  0.1854763E+000  0.8030494E+02  0.7546771E-02  0.1328188E+00
         21   -1    0    0  503  502  0.00000000000E+00  0.00000000000E+00  0.24726264611E+04  0.24726264611E+04  0.00000000000E+00 0.  1.
         21   -1    0    0  501  503 -0.00000000000E+00 -0.00000000000E+00 -0.29611075941E+01  0.29611075941E+01  0.00000000000E+00 0.  1.
         24    1    1    2    0    0 -0.23360191262E+02  0.39869823822E+01  0.14867093678E+04  0.14890713733E+04  0.80419002446E+02 0.  0.
          1    1    1    2  501    0 -0.13586331522E+02 -0.29088506960E+02  0.22916283288E+03  0.23140080729E+03  0.00000000000E+00 0. -1.
         -2    1    1    2    0  502  0.36946522784E+02  0.25101524577E+02  0.75379315290E+03  0.75511538816E+03  0.00000000000E+00 0.  1.
<mgrwt>
<rscale>  2 0.80304941E+02</rscale>
<asrwt>0</asrwt>
<pdfrwt beam="1">  1       21 0.38040242E+00 0.80304941E+02</pdfrwt>
<pdfrwt beam="2">  1       21 0.45555699E-03 0.80304941E+02</pdfrwt>
<totfact> 0.17308125E+05</totfact>
</mgrwt>
</event>
<event>
 5    1  0.1854763E+000  0.6846734E+02  0.7546771E-02  0.1365384E+00
         21   -1    0    0  503  502  0.00000000000E+00  0.00000000000E+00  0.21158486145E+03  0.21158486145E+03  0.00000000000E+00 0. -1.
         21   -1    0    0  501  503 -0.00000000000E+00 -0.00000000000E+00 -0.64227461759E+02  0.64227461759E+02  0.00000000000E+00 0. -1.
         24    1    1    2    0    0  0.12741606315E+01 -0.13031518294E+02  0.10826983997E+02  0.82194181614E+02  0.80419002446E+02 0.  1.
          1    1    1    2  501    0 -0.23983011505E+02 -0.72024371333E+01 -0.21305514148E+02  0.32878334425E+02  0.00000000000E+00 0. -1.
         -2    1    1    2    0  502  0.22708850873E+02  0.20233955427E+02  0.15783592984E+03  0.16073980717E+03  0.00000000000E+00 0.  1.
<mgrwt>
<rscale>  2 0.68467337E+02</rscale>
<asrwt>0</asrwt>
<pdfrwt beam="1">  1       21 0.32551517E-01 0.68467337E+02</pdfrwt>
<pdfrwt beam="2">  1       21 0.98811481E-02 0.68467337E+02</pdfrwt>
<totfact> 0.75108492E+05</totfact>
</mgrwt>
</event>
<event>
 5    1  0.1854763E+000  0.7252248E+02  0.7546771E-02  0.1351719E+00
         21   -1    0    0  501  502  0.00000000000E+00  0.00000000000E+00  0.19280848400E+03  0.19280848400E+03  0.00000000000E+00 0.  1.
         21   -1    0    0  502  503 -0.00000000000E+00 -0.00000000000E+00 -0.60574186190E+02  0.60574186190E+02  0.00000000000E+00 0.  1.
         24    1    1    2    0    0  0.38222874843E+02 -0.32253905430E+02  0.16289911385E+03  0.18842674923E+03  0.80419002446E+02 0.  1.
          1    1    1    2  501    0 -0.22556989884E+02  0.15284415703E+02 -0.87425703620E+00  0.27261611863E+02  0.00000000000E+00 0. -1.
         -2    1    1    2    0  503 -0.15665884958E+02  0.16969489728E+02 -0.29790559001E+02  0.37694309103E+02  0.00000000000E+00 0.  1.
<mgrwt>
<rscale>  2 0.72522475E+02</rscale>
<asrwt>0</asrwt>
<pdfrwt beam="1">  1       21 0.29662843E-01 0.72522475E+02</pdfrwt>
<pdfrwt beam="2">  1       21 0.93191056E-02 0.72522475E+02</pdfrwt>
<totfact> 0.99251743E+05</totfact>
</mgrwt>
</event>
<event>
 5    1  0.1854763E+000  0.9484528E+02  0.7546771E-02  0.1291525E+00
         21   -1    0    0  503  502  0.00000000000E+00  0.00000000000E+00  0.48981444395E+02  0.48981444395E+02  0.00000000000E+00 0.  1.
         21   -1    0    0  501  503 -0.00000000000E+00 -0.00000000000E+00 -0.37227036877E+03  0.37227036877E+03  0.00000000000E+00 0. -1.
         24    1    1    2    0    0 -0.69027751750E+02 -0.16653867727E+02 -0.93650364841E+02  0.14240712275E+03  0.80419002446E+02 0.  0.
          1    1    1    2  501    0  0.42947802940E+02 -0.11064243453E+02 -0.23611054618E+03  0.24023971628E+03  0.00000000000E+00 0. -1.
         -2    1    1    2    0  502  0.26079948810E+02  0.27718111180E+02  0.64719866378E+01  0.38604974140E+02  0.00000000000E+00 0.  1.
<mgrwt>
<rscale>  2 0.94845283E+02</rscale>
<asrwt>0</asrwt>
<pdfrwt beam="1">  1       21 0.75356069E-02 0.94845283E+02</pdfrwt>
<pdfrwt beam="2">  1       21 0.57272364E-01 0.94845283E+02</pdfrwt>
<totfact> 0.38737853E+05</totfact>
</mgrwt>
</event>
<event>
 5    1  0.1854763E+000  0.1556655E+03  0.7546771E-02  0.1193679E+00
         21   -1    0    0  501  502  0.00000000000E+00  0.00000000000E+00  0.74308865450E+02  0.74308865450E+02  0.00000000000E+00 0. -1.
         21   -1    0    0  502  503 -0.00000000000E+00 -0.00000000000E+00 -0.50097068999E+03  0.50097068999E+03  0.00000000000E+00 0. -1.
         24    1    1    2    0    0  0.77329048570E+02 -0.64803158704E+02 -0.29618008406E+02  0.13237701276E+03  0.80419002446E+02 0. -1.
          1    1    1    2  501    0 -0.11898606734E+03  0.73359787984E+02 -0.21867662102E+03  0.25953575340E+03  0.00000000000E+00 0. -1.
         -2    1    1    2    0  503  0.41657018768E+02 -0.85566292803E+01 -0.17836719512E+03  0.18336678928E+03  0.00000000000E+00 0.  1.
<mgrwt>
<rscale>  2 0.15566552E+03</rscale>
<asrwt>0</asrwt>
<pdfrwt beam="1">  1       21 0.11432133E-01 0.15566552E+03</pdfrwt>
<pdfrwt beam="2">  1       21 0.77072413E-01 0.15566552E+03</pdfrwt>
<totfact> 0.97177760E+04</totfact>
</mgrwt>
</event>
<event>
 5    1  0.1854763E+000  0.9094950E+02  0.7546771E-02  0.1300569E+00
         21   -1    0    0  501  502  0.00000000000E+00  0.00000000000E+00  0.67113183518E+03  0.67113183518E+03  0.00000000000E+00 0. -1.
         21   -1    0    0  502  503 -0.00000000000E+00 -0.00000000000E+00 -0.14201852951E+02  0.14201852951E+02  0.00000000000E+00 0. -1.
         24    1    1    2    0    0 -0.23850535443E+01  0.71695375208E+02  0.35643462307E+03  0.37236913377E+03  0.80419002446E+02 0. -1.
          1    1    1    2  501    0 -0.65976418760E+01 -0.52825715850E+02  0.27447825010E+03  0.27959326693E+03  0.00000000000E+00 0. -1.
         -2    1    1    2    0  503  0.89826954203E+01 -0.18869659358E+02  0.26017109062E+02  0.33371287437E+02  0.00000000000E+00 0.  1.
<mgrwt>
<rscale>  2 0.90949499E+02</rscale>
<asrwt>0</asrwt>
<pdfrwt beam="1">  1       21 0.10325103E+00 0.90949499E+02</pdfrwt>
<pdfrwt beam="2">  1       21 0.21849010E-02 0.90949499E+02</pdfrwt>
<totfact> 0.81790881E+05</totfact>
</mgrwt>
</event>
<event>
 5    1  0.1854763E+000  0.8671448E+02  0.7546771E-02  0.1311009E+00
         21   -1    0    0  503  502  0.00000000000E+00  0.00000000000E+00  0.27421827696E+02  0.27421827696E+02  0.00000000000E+00 0. -1.
         21   -1    0    0  501  503 -0.00000000000E+00 -0.00000000000E+00 -0.94257298204E+03  0.94257298204E+03  0.00000000000E+00 0. -1.
         24    1    1    2    0    0 -0.52164841720E+02 -0.28933104481E+02 -0.89716096911E+02  0.13444139707E+03  0.80419002446E+02 0. -1.
          1    1    1    2  501    0  0.49001060646E+02  0.51072505137E+01 -0.79612887848E+03  0.79765179063E+03  0.00000000000E+00 0. -1.
         -2    1    1    2    0  502  0.31637810739E+01  0.23825853968E+02 -0.29306178958E+02  0.37901622038E+02  0.00000000000E+00 0.  1.
<mgrwt>
<rscale>  2 0.86714483E+02</rscale>
<asrwt>0</asrwt>
<pdfrwt beam="1">  1       21 0.42187432E-02 0.86714483E+02</pdfrwt>
<pdfrwt beam="2">  1       21 0.14501121E+00 0.86714483E+02</pdfrwt>
<totfact> 0.12352463E+05</totfact>
</mgrwt>
</event>
<event>
 5    1  0.1854763E+000  0.6650191E+02  0.7546771E-02  0.1372409E+00
         21   -1    0    0  503  502  0.00000000000E+00  0.00000000000E+00  0.56565356368E+03  0.56565356368E+03  0.00000000000E+00 0. -1.
         21   -1    0    0  501  503 -0.00000000000E+00 -0.00000000000E+00 -0.13258916214E+02  0.13258916214E+02  0.00000000000E+00 0.  1.
         24    1    1    2    0    0  0.37248344034E+01  0.87072258383E+01  0.49393593365E+03  0.50052933248E+03  0.80419002446E+02 0. -1.
          1    1    1    2  501    0 -0.63628160940E+01 -0.29952394469E+02  0.31107866367E+02  0.43650094078E+02  0.00000000000E+00 0. -1.
         -2    1    1    2    0  502  0.26379816906E+01  0.21245168631E+02  0.27350847454E+02  0.34733053335E+02  0.00000000000E+00 0.  1.
<mgrwt>
<rscale>  2 0.66501906E+02</rscale>
<asrwt>0</asrwt>
<pdfrwt beam="1">  1       21 0.87023606E-01 0.66501906E+02</pdfrwt>
<pdfrwt beam="2">  1       21 0.20398337E-02 0.66501906E+02</pdfrwt>
<totfact> 0.13402102E+06</totfact>
</mgrwt>
</event>
<event>
 5    1  0.1854763E+000  0.9336252E+02  0.7546771E-02  0.1294907E+00
         21   -1    0    0  501  502  0.00000000000E+00  0.00000000000E+00  0.34385737530E+03  0.34385737530E+03  0.00000000000E+00 0. -1.
         21   -1    0    0  502  503 -0.00000000000E+00 -0.00000000000E+00 -0.41972498755E+02  0.41972498755E+02  0.00000000000E+00 0. -1.
         24    1    1    2    0    0  0.20739040191E+02 -0.43061864652E+02  0.50451777687E+02  0.10628748657E+03  0.80419002446E+02 0. -1.
          1    1    1    2  501    0 -0.50474079869E+02  0.15947473933E+02  0.22559077238E+03  0.23171782678E+03  0.00000000000E+00 0. -1.
         -2    1    1    2    0  503  0.29735039679E+02  0.27114390719E+02  0.25842326472E+02  0.47824560701E+02  0.00000000000E+00 0.  1.
<mgrwt>
<rscale>  2 0.93362521E+02</rscale>
<asrwt>0</asrwt>
<pdfrwt beam="1">  1       21 0.52901133E-01 0.93362521E+02</pdfrwt>
<pdfrwt beam="2">  1       21 0.64573077E-02 0.93362521E+02</pdfrwt>
<totfact> 0.59357858E+05</totfact>
</mgrwt>
</event>
<event>
 5    1  0.1854763E+000  0.9262660E+02  0.7546771E-02  0.1296613E+00
         21   -1    0    0  501  502  0.00000000000E+00  0.00000000000E+00  0.87604964853E+02  0.87604964853E+02  0.00000000000E+00 0. -1.
         21   -1    0    0  502  503 -0.00000000000E+00 -0.00000000000E+00 -0.24423774670E+03  0.24423774670E+03  0.00000000000E+00 0.  1.
         24    1    1    2    0    0  0.52092376827E+02 -0.13742602474E+02 -0.55972571035E+02  0.11181511306E+03  0.80419002446E+02 0. -1.
          1    1    1    2  501    0  0.95486005037E+01  0.24125803578E+02  0.50321717890E+02  0.56617183445E+02  0.00000000000E+00 0. -1.
         -2    1    1    2    0  503 -0.61640977330E+02 -0.10383201104E+02 -0.15098192870E+03  0.16341041505E+03  0.00000000000E+00 0.  1.
<mgrwt>
<rscale>  2 0.92626605E+02</rscale>
<asrwt>0</asrwt>
<pdfrwt beam="1">  1       21 0.13477687E-01 0.92626605E+02</pdfrwt>
<pdfrwt beam="2">  1       21 0.37575038E-01 0.92626605E+02</pdfrwt>
<totfact> 0.33133744E+05</totfact>
</mgrwt>
</event>
<event>
 5    1  0.2107436E+000  0.7453708E+02  0.7546771E-02  0.1345311E+00
         21   -1    0    0  503  502  0.00000000000E+00  0.00000000000E+00  0.44430038267E+03  0.44430038267E+03  0.00000000000E+00 0.  1.
         21   -1    0    0  501  503 -0.00000000000E+00 -0.00000000000E+00 -0.13045945821E+03  0.13045945821E+03  0.00000000000E+00 0. -1.
         24    1    1    2    0    0  0.26899486036E+02 -0.18284596568E+02  0.44033798638E+02  0.97283607034E+02  0.80419002446E+02 0.  0.
          1    1    1    2  501    0 -0.41818592041E+02  0.45803263727E+01 -0.99284320003E+02  0.10782926425E+03  0.00000000000E+00 0. -1.
         -2    1    1    2    0  502  0.14919106004E+02  0.13704270195E+02  0.36909144583E+03  0.36964696959E+03  0.00000000000E+00 0.  1.
<mgrwt>
<rscale>  2 0.74537082E+02</rscale>
<asrwt>0</asrwt>
<pdfrwt beam="1">  1       21 0.68353904E-01 0.74537082E+02</pdfrwt>
<pdfrwt beam="2">  1       21 0.20070686E-01 0.74537082E+02</pdfrwt>
<totfact> 0.48128181E+04</totfact>
</mgrwt>
</event>
<event>
 5    1  0.1854763E+000  0.7668549E+02  0.7546771E-02  0.1338730E+00
         21   -1    0    0  503  502  0.00000000000E+00  0.00000000000E+00  0.11711554877E+03  0.11711554877E+03  0.00000000000E+00 0.  1.
         21   -1    0    0  501  503 -0.00000000000E+00 -0.00000000000E+00 -0.16241157521E+03  0.16241157521E+03  0.00000000000E+00 0.  1.
         24    1    1    2    0    0  0.37289084801E+02  0.95009270854E+01 -0.96525112021E+02  0.13139656261E+03  0.80419002446E+02 0.  1.
          1    1    1    2  501    0 -0.12890700333E+02  0.21317786898E+02 -0.40943254134E+02  0.47926696657E+02  0.00000000000E+00 0. -1.
         -2    1    1    2    0  502 -0.24398384467E+02 -0.30818713983E+02  0.92172339717E+02  0.10020386472E+03  0.00000000000E+00 0.  1.
<mgrwt>
<rscale>  2 0.76685486E+02</rscale>
<asrwt>0</asrwt>
<pdfrwt beam="1">  1       21 0.18017777E-01 0.76685486E+02</pdfrwt>
<pdfrwt beam="2">  1       21 0.24986396E-01 0.76685486E+02</pdfrwt>
<totfact> 0.43061100E+05</totfact>
</mgrwt>
</event>
<event>
 5    1  0.1854763E+000  0.6246080E+02  0.7546771E-02  0.1387786E+00
         21   -1    0    0  501  502  0.00000000000E+00  0.00000000000E+00  0.42837645728E+02  0.42837645728E+02  0.00000000000E+00 0.  1.
         21   -1    0    0  502  503 -0.00000000000E+00 -0.00000000000E+00 -0.16615125030E+03  0.16615125030E+03  0.00000000000E+00 0.  1.
         24    1    1    2    0    0 -0.11322870171E+02  0.19158138829E+02 -0.61348014002E+01  0.83666560912E+02  0.80419002446E+02 0.  1.
          1    1    1    2  501    0  0.20745495664E+02 -0.70134374744E+00 -0.36150240929E+02  0.41685817643E+02  0.00000000000E+00 0. -1.
         -2    1    1    2    0  503 -0.94226254934E+01 -0.18456795081E+02 -0.81028562246E+02  0.83636517476E+02  0.00000000000E+00 0.  1.
<mgrwt>
<rscale>  2 0.62460802E+02</rscale>
<asrwt>0</asrwt>
<pdfrwt beam="1">  1       21 0.65904070E-02 0.62460802E+02</pdfrwt>
<pdfrwt beam="2">  1       21 0.25561731E-01 0.62460802E+02</pdfrwt>
<totfact> 0.23428535E+06</totfact>
</mgrwt>
</event>
<event>
 5    1  0.1854763E+000  0.7803465E+02  0.7546771E-02  0.1334723E+00
         21   -1    0    0  501  502  0.00000000000E+00  0.00000000000E+00  0.51838002650E+03  0.51838002650E+03  0.00000000000E+00 0. -1.
         21   -1    0    0  502  503 -0.00000000000E+00 -0.00000000000E+00 -0.17144245454E+02  0.17144245454E+02  0.00000000000E+00 0.  1.
         24    1    1    2    0    0 -0.17571343259E+02 -0.30413206998E+02  0.16420431011E+03  0.18618267019E+03  0.80419002446E+02 0.  1.
          1    1    1    2  501    0  0.38563546672E+02  0.11990528946E+02  0.30127616722E+03  0.30397080263E+03  0.00000000000E+00 0. -1.
         -2    1    1    2    0  503 -0.20992203414E+02  0.18422678052E+02  0.35755303712E+02  0.45370799137E+02  0.00000000000E+00 0.  1.
<mgrwt>
<rscale>  2 0.78034645E+02</rscale>
<asrwt>0</asrwt>
<pdfrwt beam="1">  1       21 0.79750761E-01 0.78034645E+02</pdfrwt>
<pdfrwt beam="2">  1       21 0.26375766E-02 0.78034645E+02</pdfrwt>
<totfact> 0.10816715E+06</totfact>
</mgrwt>
</event>
<event>
 5    1  0.1854763E+000  0.1122122E+03  0.7546771E-02  0.1256527E+00
         21   -1    0    0  501  502  0.00000000000E+00  0.00000000000E+00  0.16934535185E+02  0.16934535185E+02  0.00000000000E+00 0.  1.
         21   -1    0    0  502  503 -0.00000000000E+00 -0.00000000000E+00 -0.11095151860E+04  0.11095151860E+04  0.00000000000E+00 0. -1.
         24    1    1    2    0    0 -0.37780818054E+02  0.51443440236E+02 -0.36838432101E+03  0.38242390312E+03  0.80419002446E+02 0. -1.
          1    1    1    2  501    0  0.36822189728E+01  0.31688312992E+02 -0.29207387316E+02  0.43252507334E+02  0.00000000000E+00 0. -1.
         -2    1    1    2    0  503  0.34098599082E+02 -0.83131753227E+02 -0.69498894247E+03  0.70077331072E+03  0.00000000000E+00 0.  1.
<mgrwt>
<rscale>  2 0.11221215E+03</rscale>
<asrwt>0</asrwt>
<pdfrwt beam="1">  1       21 0.26053120E-02 0.11221215E+03</pdfrwt>
<pdfrwt beam="2">  1       21 0.17069472E+00 0.11221215E+03</pdfrwt>
<totfact> 0.17511330E+05</totfact>
</mgrwt>
</event>
<event>
 5    1  0.1854763E+000  0.8368419E+02  0.7546771E-02  0.1318910E+00
         21   -1    0    0  501  502  0.00000000000E+00  0.00000000000E+00  0.56717718309E+03  0.56717718309E+03  0.00000000000E+00 0. -1.
         21   -1    0    0  502  503 -0.00000000000E+00 -0.00000000000E+00 -0.34106389932E+02  0.34106389932E+02  0.00000000000E+00 0. -1.
         24    1    1    2    0    0 -0.26007362248E+02 -0.53760342535E+02  0.12095422551E+03  0.15704680176E+03  0.80419002446E+02 0. -1.
          1    1    1    2  501    0  0.28855762540E+02  0.24651995753E+02  0.41322907039E+03  0.41496824040E+03  0.00000000000E+00 0. -1.
         -2    1    1    2    0  503 -0.28484002926E+01  0.29108346782E+02 -0.11125027348E+01  0.29268530865E+02  0.00000000000E+00 0.  1.
<mgrwt>
<rscale>  2 0.83684194E+02</rscale>
<asrwt>0</asrwt>
<pdfrwt beam="1">  1       21 0.87258021E-01 0.83684194E+02</pdfrwt>
<pdfrwt beam="2">  1       21 0.52471373E-02 0.83684194E+02</pdfrwt>
<totfact> 0.28738506E+05</totfact>
</mgrwt>
</event>
<event>
 5    1  0.1854763E+000  0.9308499E+02  0.7546771E-02  0.1295548E+00
         21   -1    0    0  501  502  0.00000000000E+00  0.00000000000E+00  0.82522277820E+02  0.82522277820E+02  0.00000000000E+00 0. -1.
         21   -1    0    0  502  503 -0.00000000000E+00 -0.00000000000E+00 -0.16786292540E+03  0.16786292540E+03  0.00000000000E+00 0. -1.
         24    1    1    2    0    0 -0.20468869423E+02 -0.53226228068E+02 -0.76418804881E+02  0.12473594375E+03  0.80419002446E+02 0. -1.
          1    1    1    2  501    0  0.43059878210E+02  0.47830017174E+02  0.36965872277E+02  0.74218187579E+02  0.00000000000E+00 0. -1.
         -2    1    1    2    0  503 -0.22591008787E+02  0.53962108935E+01 -0.45887714977E+02  0.51431071891E+02  0.00000000000E+00 0.  1.
<mgrwt>
<rscale>  2 0.93084990E+02</rscale>
<asrwt>0</asrwt>
<pdfrwt beam="1">  1       21 0.12695735E-01 0.93084990E+02</pdfrwt>
<pdfrwt beam="2">  1       21 0.25825065E-01 0.93084990E+02</pdfrwt>
<totfact> 0.75657949E+05</totfact>
</mgrwt>
</event>
<event>
 5    1  0.1854763E+000  0.9705935E+02  0.7546771E-02  0.1286604E+00
         21   -1    0    0  503  502  0.00000000000E+00  0.00000000000E+00  0.77888334613E+01  0.77888334613E+01  0.00000000000E+00 0. -1.
         21   -1    0    0  501  503 -0.00000000000E+00 -0.00000000000E+00 -0.17814712939E+04  0.17814712939E+04  0.00000000000E+00 0. -1.
         24    1    1    2    0    0 -0.14500288392E+02  0.78658797491E+02 -0.49255785344E+03  0.50544823645E+03  0.80419002446E+02 0. -1.
          1    1    1    2  501    0  0.61712433173E+01 -0.59317470276E+02 -0.10634882188E+04  0.10651590670E+04  0.00000000000E+00 0. -1.
         -2    1    1    2    0  502  0.83290450748E+01 -0.19341327214E+02 -0.21763638815E+03  0.21865282385E+03  0.00000000000E+00 0.  1.
<mgrwt>
<rscale>  2 0.97059346E+02</rscale>
<asrwt>0</asrwt>
<pdfrwt beam="1">  1       21 0.11982829E-02 0.97059346E+02</pdfrwt>
<pdfrwt beam="2">  1       21 0.27407231E+00 0.97059346E+02</pdfrwt>
<totfact> 0.14739169E+05</totfact>
</mgrwt>
</event>
<event>
 5    1  0.1854763E+000  0.1262980E+03  0.7546771E-02  0.1233055E+00
         21   -1    0    0  501  502  0.00000000000E+00  0.00000000000E+00  0.49508006829E+03  0.49508006829E+03  0.00000000000E+00 0. -1.
         21   -1    0    0  502  503 -0.00000000000E+00 -0.00000000000E+00 -0.74118607623E+02  0.74118607623E+02  0.00000000000E+00 0. -1.
         24    1    1    2    0    0  0.81546331652E+02  0.50632989391E+02  0.26198523419E+03  0.29037386712E+03  0.80419002446E+02 0. -1.
          1    1    1    2  501    0 -0.96177595606E+02 -0.27553208016E+02  0.20339747118E+03  0.22667121664E+03  0.00000000000E+00 0. -1.
         -2    1    1    2    0  503  0.14631263954E+02 -0.23079781375E+02 -0.44421244705E+02  0.52153592151E+02  0.00000000000E+00 0.  1.
<mgrwt>
<rscale>  2 0.12629797E+03</rscale>
<asrwt>0</asrwt>
<pdfrwt beam="1">  1       21 0.76166162E-01 0.12629797E+03</pdfrwt>
<pdfrwt beam="2">  1       21 0.11402863E-01 0.12629797E+03</pdfrwt>
<totfact> 0.10140946E+05</totfact>
</mgrwt>
</event>
<event>
 5    1  0.1854763E+000  0.8595464E+02  0.7546771E-02  0.1312955E+00
         21   -1    0    0  501  502  0.00000000000E+00  0.00000000000E+00  0.67810642288E+02  0.67810642288E+02  0.00000000000E+00 0.  1.
         21   -1    0    0  502  503 -0.00000000000E+00 -0.00000000000E+00 -0.13618112693E+03  0.13618112693E+03  0.00000000000E+00 0. -1.
         24    1    1    2    0    0  0.20683721703E+02  0.42658319515E+02 -0.80979720919E+02  0.12358187457E+03  0.80419002446E+02 0. -1.
          1    1    1    2  501    0 -0.42821691660E+02 -0.21428551925E+02  0.13412587466E+02  0.49727031047E+02  0.00000000000E+00 0. -1.
         -2    1    1    2    0  503  0.22137969957E+02 -0.21229767590E+02 -0.80335119032E+00  0.30682863603E+02  0.00000000000E+00 0.  1.
<mgrwt>
<rscale>  2 0.85954638E+02</rscale>
<asrwt>0</asrwt>
<pdfrwt beam="1">  1       21 0.10432407E-01 0.85954638E+02</pdfrwt>
<pdfrwt beam="2">  1       21 0.20950942E-01 0.85954638E+02</pdfrwt>
<totfact> 0.15700513E+06</totfact>
</mgrwt>
</event>
<event>
 5    1  0.1854763E+000  0.1250346E+03  0.7546771E-02  0.1235015E+00
         21   -1    0    0  501  502  0.00000000000E+00  0.00000000000E+00  0.32356875256E+02  0.32356875256E+02  0.00000000000E+00 0. -1.
         21   -1    0    0  502  503 -0.00000000000E+00 -0.00000000000E+00 -0.11670889837E+04  0.11670889837E+04  0.00000000000E+00 0.  1.
         24    1    1    2    0    0  0.87304380942E+01  0.10549785733E+03 -0.19753949841E+03  0.23810730320E+03  0.80419002446E+02 0. -1.
          1    1    1    2  501    0 -0.26839973769E+02 -0.33701467847E+02 -0.33388897933E+02  0.54506803540E+02  0.00000000000E+00 0. -1.
         -2    1    1    2    0  503  0.18109535675E+02 -0.71796389479E+02 -0.90380371214E+03  0.90683175225E+03  0.00000000000E+00 0.  1.
<mgrwt>
<rscale>  2 0.12503457E+03</rscale>
<asrwt>0</asrwt>
<pdfrwt beam="1">  1       21 0.49779808E-02 0.12503457E+03</pdfrwt>
<pdfrwt beam="2">  1       21 0.17955215E+00 0.12503457E+03</pdfrwt>
<totfact> 0.51958280E+04</totfact>
</mgrwt>
</event>
<event>
 5    1  0.1854763E+000  0.7874441E+02  0.7546771E-02  0.1332653E+00
         21   -1    0    0  503  502  0.00000000000E+00  0.00000000000E+00  0.67794270484E+03  0.67794270484E+03  0.00000000000E+00 0. -1.
         21   -1    0    0  501  503 -0.00000000000E+00 -0.00000000000E+00 -0.15567261981E+02  0.15567261981E+02  0.00000000000E+00 0. -1.
         24    1    1    2    0    0  0.26999720505E+02 -0.46757021699E+02  0.15678127532E+03  0.18428995694E+03  0.80419002446E+02 0. -1.
          1    1    1    2  501    0 -0.32043481709E+01  0.32969285222E+02  0.28463220757E+03  0.28655319785E+03  0.00000000000E+00 0. -1.
         -2    1    1    2    0  502 -0.23795372334E+02  0.13787736477E+02  0.22096195997E+03  0.22266681202E+03  0.00000000000E+00 0.  1.
<mgrwt>
<rscale>  2 0.78744414E+02</rscale>
<asrwt>0</asrwt>
<pdfrwt beam="1">  1       21 0.10429885E+00 0.78744414E+02</pdfrwt>
<pdfrwt beam="2">  1       21 0.23949639E-02 0.78744414E+02</pdfrwt>
<totfact> 0.68926951E+05</totfact>
</mgrwt>
</event>
<event>
 5    1  0.2299711E+000  0.8020303E+02  0.7546771E-02  0.1328476E+00
         21   -1    0    0  501  502  0.00000000000E+00  0.00000000000E+00  0.37125406771E+03  0.37125406771E+03  0.00000000000E+00 0. -1.
         21   -1    0    0  502  503 -0.00000000000E+00 -0.00000000000E+00 -0.22529568799E+03  0.22529568799E+03  0.00000000000E+00 0.  1.
         24    1    1    2    0    0  0.28637075618E+02 -0.54786538804E+01  0.12847300893E+03  0.15434580567E+03  0.80419002446E+02 0. -1.
          1    1    1    2  501    0 -0.27242270880E+02 -0.29329020904E+02  0.22665031223E+03  0.23015798231E+03  0.00000000000E+00 0. -1.
         -2    1    1    2    0  503 -0.13948047379E+01  0.34807674784E+02 -0.20916494143E+03  0.21204596773E+03  0.00000000000E+00 0.  1.
<mgrwt>
<rscale>  2 0.80203029E+02</rscale>
<asrwt>0</asrwt>
<pdfrwt beam="1">  1       21 0.57116010E-01 0.80203029E+02</pdfrwt>
<pdfrwt beam="2">  1       21 0.34660875E-01 0.80203029E+02</pdfrwt>
<totfact> 0.25076799E+04</totfact>
</mgrwt>
</event>
<event>
 5    1  0.1854763E+000  0.1403025E+03  0.7546771E-02  0.1212923E+00
         21   -1    0    0  501  502  0.00000000000E+00  0.00000000000E+00  0.42361168260E+03  0.42361168260E+03  0.00000000000E+00 0. -1.
         21   -1    0    0  502  503 -0.00000000000E+00 -0.00000000000E+00 -0.70722374500E+02  0.70722374500E+02  0.00000000000E+00 0. -1.
         24    1    1    2    0    0  0.96697641167E+02  0.61912554497E+02  0.22663478565E+03  0.26648478425E+03  0.80419002446E+02 0. -1.
          1    1    1    2  501    0 -0.18508749131E+02 -0.59375670694E+02  0.13548366419E+03  0.14907671625E+03  0.00000000000E+00 0. -1.
         -2    1    1    2    0  503 -0.78188892036E+02 -0.25368838027E+01 -0.92291417432E+01  0.78772556608E+02  0.00000000000E+00 0.  1.
<mgrwt>
<rscale>  2 0.14030250E+03</rscale>
<asrwt>0</asrwt>
<pdfrwt beam="1">  1       21 0.65171027E-01 0.14030250E+03</pdfrwt>
<pdfrwt beam="2">  1       21 0.10880366E-01 0.14030250E+03</pdfrwt>
<totfact> 0.15405938E+05</totfact>
</mgrwt>
</event>
<event>
 5    1  0.1854763E+000  0.2215776E+03  0.7546771E-02  0.1132712E+00
         21   -1    0    0  501  502  0.00000000000E+00  0.00000000000E+00  0.16328819639E+04  0.16328819639E+04  0.00000000000E+00 0. -1.
         21   -1    0    0  502  503 -0.00000000000E+00 -0.00000000000E+00 -0.34854074447E+02  0.34854074447E+02  0.00000000000E+00 0.  1.
         24    1    1    2    0    0 -0.45788833391E+01  0.11429098946E+03  0.36514704294E+03  0.39100252604E+03  0.80419002446E+02 0. -1.
          1    1    1    2  501    0  0.10645882028E+03 -0.15958629610E+03  0.10037282770E+04  0.10218961397E+04  0.00000000000E+00 0. -1.
         -2    1    1    2    0  503 -0.10187993694E+03  0.45295306636E+02  0.22915256952E+03  0.25483737259E+03  0.00000000000E+00 0.  1.
<mgrwt>
<rscale>  2 0.22157765E+03</rscale>
<asrwt>0</asrwt>
<pdfrwt beam="1">  1       21 0.25121255E+00 0.22157765E+03</pdfrwt>
<pdfrwt beam="2">  1       21 0.53621666E-02 0.22157765E+03</pdfrwt>
<totfact> 0.15238033E+04</totfact>
</mgrwt>
</event>
<event>
 5    1  0.1854763E+000  0.1088078E+03  0.7546771E-02  0.1262794E+00
         21   -1    0    0  503  502  0.00000000000E+00  0.00000000000E+00  0.50231153140E+02  0.50231153140E+02  0.00000000000E+00 0.  1.
         21   -1    0    0  501  503 -0.00000000000E+00 -0.00000000000E+00 -0.29661819156E+03  0.29661819156E+03  0.00000000000E+00 0.  1.
         24    1    1    2    0    0 -0.64440096466E+02 -0.18023476154E+02 -0.10470705624E+03  0.14801403753E+03  0.80419002446E+02 0.  1.
          1    1    1    2  501    0 -0.61082042770E+01 -0.28070591555E+02 -0.10147723382E+03  0.10546514710E+03  0.00000000000E+00 0. -1.
         -2    1    1    2    0  502  0.70548300743E+02  0.46094067709E+02 -0.40202748366E+02  0.93370160072E+02  0.00000000000E+00 0.  1.
<mgrwt>
<rscale>  2 0.10880780E+03</rscale>
<asrwt>0</asrwt>
<pdfrwt beam="1">  1       21 0.77278695E-02 0.10880780E+03</pdfrwt>
<pdfrwt beam="2">  1       21 0.45633569E-01 0.10880780E+03</pdfrwt>
<totfact> 0.59143108E+05</totfact>
</mgrwt>
</event>
<event>
 5    1  0.1854763E+000  0.1373116E+03  0.7546771E-02  0.1216993E+00
         21   -1    0    0  503  502  0.00000000000E+00  0.00000000000E+00  0.29776865888E+03  0.29776865888E+03  0.00000000000E+00 0.  1.
         21   -1    0    0  501  503 -0.00000000000E+00 -0.00000000000E+00 -0.10705506208E+03  0.10705506208E+03  0.00000000000E+00 0.  1.
         24    1    1    2    0    0  0.93862809454E+02  0.99518099705E+01 -0.22446550940E+02  0.12601717789E+03  0.80419002446E+02 0.  1.
          1    1    1    2  501    0 -0.35683093740E+02  0.53643891242E+02  0.20281145811E+02  0.67544615787E+02  0.00000000000E+00 0. -1.
         -2    1    1    2    0  502 -0.58179715714E+02 -0.63595701212E+02  0.19287900193E+03  0.21126192728E+03  0.00000000000E+00 0.  1.
<mgrwt>
<rscale>  2 0.13731158E+03</rscale>
<asrwt>0</asrwt>
<pdfrwt beam="1">  1       21 0.45810562E-01 0.13731158E+03</pdfrwt>
<pdfrwt beam="2">  1       21 0.16470010E-01 0.13731158E+03</pdfrwt>
<totfact> 0.15373395E+05</totfact>
</mgrwt>
</event>
<event>
 5    1  0.1854763E+000  0.8717249E+02  0.7546771E-02  0.1309847E+00
         21   -1    0    0  503  502  0.00000000000E+00  0.00000000000E+00  0.84608951021E+02  0.84608951021E+02  0.00000000000E+00 0.  1.
         21   -1    0    0  501  503 -0.00000000000E+00 -0.00000000000E+00 -0.18631074107E+03  0.18631074107E+03  0.00000000000E+00 0.  1.
         24    1    1    2    0    0  0.20877586997E+02  0.65331360681E+02 -0.80213012771E+02  0.13268535601E+03  0.80419002446E+02 0.  1.
          1    1    1    2  501    0 -0.83581059438E+01 -0.31034508647E+02 -0.70288511227E+02  0.77288249252E+02  0.00000000000E+00 0. -1.
         -2    1    1    2    0  502 -0.12519481053E+02 -0.34296852034E+02  0.48799733954E+02  0.60946086825E+02  0.00000000000E+00 0.  1.
<mgrwt>
<rscale>  2 0.87172492E+02</rscale>
<asrwt>0</asrwt>
<pdfrwt beam="1">  1       21 0.13016762E-01 0.87172492E+02</pdfrwt>
<pdfrwt beam="2">  1       21 0.28663191E-01 0.87172492E+02</pdfrwt>
<totfact> 0.59426011E+05</totfact>
</mgrwt>
</event>
<event>
 5    1  0.1854763E+000  0.6913128E+02  0.7546771E-02  0.1363072E+00
         21   -1    0    0  501  502  0.00000000000E+00  0.00000000000E+00  0.59441109023E+02  0.59441109023E+02  0.00000000000E+00 0.  1.
         21   -1    0    0  502  503 -0.00000000000E+00 -0.00000000000E+00 -0.82874220992E+02  0.82874220992E+02  0.00000000000E+00 0.  1.
         24    1    1    2    0    0  0.41101789123E+02  0.15670087957E+02 -0.18475224477E+02  0.93506462876E+02  0.80419002446E+02 0.  1.
          1    1    1    2  501    0 -0.16280269281E+02 -0.14417213431E+02  0.45177347111E+01  0.22210653702E+02  0.00000000000E+00 0. -1.
         -2    1    1    2    0  503 -0.24821519842E+02 -0.12528745258E+01 -0.94756222033E+01  0.26598213436E+02  0.00000000000E+00 0.  1.
<mgrwt>
<rscale>  2 0.69131281E+02</rscale>
<asrwt>0</asrwt>
<pdfrwt beam="1">  1       21 0.91447860E-02 0.69131281E+02</pdfrwt>
<pdfrwt beam="2">  1       21 0.12749880E-01 0.69131281E+02</pdfrwt>
<totfact> 0.47367429E+06</totfact>
</mgrwt>
</event>
<event>
 5    1  0.1854763E+000  0.7147553E+02  0.7546771E-02  0.1355146E+00
         21   -1    0    0  503  502  0.00000000000E+00  0.00000000000E+00  0.51034615677E+03  0.51034615677E+03  0.00000000000E+00 0. -1.
         21   -1    0    0  501  503 -0.00000000000E+00 -0.00000000000E+00 -0.11455232212E+02  0.11455232212E+02  0.00000000000E+00 0.  1.
         24    1    1    2    0    0  0.50993648098E+01 -0.13174348116E+02  0.20595403090E+03  0.22154874355E+03  0.80419002446E+02 0.  1.
          1    1    1    2  501    0  0.26459561634E+02 -0.14892788898E+01  0.74766808702E+02  0.79324662224E+02  0.00000000000E+00 0. -1.
         -2    1    1    2    0  502 -0.31558926444E+02  0.14663627006E+02  0.21817008496E+03  0.22092798321E+03  0.00000000000E+00 0.  1.
<mgrwt>
<rscale>  2 0.71475530E+02</rscale>
<asrwt>0</asrwt>
<pdfrwt beam="1">  1       21 0.78514775E-01 0.71475530E+02</pdfrwt>
<pdfrwt beam="2">  1       21 0.17623438E-02 0.71475530E+02</pdfrwt>
<totfact> 0.21251816E+06</totfact>
</mgrwt>
</event>
<event>
 5    1  0.1854763E+000  0.8878847E+02  0.7546771E-02  0.1305812E+00
         21   -1    0    0  501  502  0.00000000000E+00  0.00000000000E+00  0.98293087445E+01  0.98293087445E+01  0.00000000000E+00 0. -1.
         21   -1    0    0  502  503 -0.00000000000E+00 -0.00000000000E+00 -0.98819173478E+03  0.98819173478E+03  0.00000000000E+00 0. -1.
         24    1    1    2    0    0 -0.60019897103E+02  0.20065497297E+02 -0.51830102734E+03  0.52830690240E+03  0.80419002446E+02 0. -1.
          1    1    1    2  501    0  0.47549295699E+02  0.44306414808E+01 -0.12972072232E+03  0.13823180497E+03  0.00000000000E+00 0. -1.
         -2    1    1    2    0  503  0.12470601404E+02 -0.24496138777E+02 -0.33034067637E+03  0.33148233615E+03  0.00000000000E+00 0.  1.
<mgrwt>
<rscale>  2 0.88788467E+02</rscale>
<asrwt>0</asrwt>
<pdfrwt beam="1">  1       21 0.15122011E-02 0.88788467E+02</pdfrwt>
<pdfrwt beam="2">  1       21 0.15202952E+00 0.88788467E+02</pdfrwt>
<totfact> 0.57327848E+05</totfact>
</mgrwt>
</event>
<event>
 5    1  0.1854763E+000  0.7032095E+02  0.7546771E-02  0.1359005E+00
         21   -1    0    0  503  502  0.00000000000E+00  0.00000000000E+00  0.83515355347E+02  0.83515355347E+02  0.00000000000E+00 0. -1.
         21   -1    0    0  501  503 -0.00000000000E+00 -0.00000000000E+00 -0.20251831581E+03  0.20251831581E+03  0.00000000000E+00 0. -1.
         24    1    1    2    0    0 -0.21736289624E+02 -0.39896347591E+02  0.29934996317E+02  0.97095338696E+02  0.80419002446E+02 0. -1.
          1    1    1    2  501    0  0.18221554713E+02  0.16388920248E+02 -0.16060251486E+03  0.16246165561E+03  0.00000000000E+00 0. -1.
         -2    1    1    2    0  502  0.35147349103E+01  0.23507427343E+02  0.11664558083E+02  0.26476676851E+02  0.00000000000E+00 0.  1.
<mgrwt>
<rscale>  2 0.70320949E+02</rscale>
<asrwt>0</asrwt>
<pdfrwt beam="1">  1       21 0.12848516E-01 0.70320949E+02</pdfrwt>
<pdfrwt beam="2">  1       21 0.31156664E-01 0.70320949E+02</pdfrwt>
<totfact> 0.51810032E+05</totfact>
</mgrwt>
</event>
<event>
 5    1  0.1854763E+000  0.6751726E+02  0.7546771E-02  0.1368745E+00
         21   -1    0    0  503  502  0.00000000000E+00  0.00000000000E+00  0.36577074978E+03  0.36577074978E+03  0.00000000000E+00 0.  1.
         21   -1    0    0  501  503 -0.00000000000E+00 -0.00000000000E+00 -0.31136904815E+02  0.31136904815E+02  0.00000000000E+00 0. -1.
         24    1    1    2    0    0 -0.14366025281E+02  0.12462359630E+02  0.15987706797E+03  0.17997106964E+03  0.80419002446E+02 0. -1.
          1    1    1    2  501    0 -0.87304609438E+01 -0.24743587939E+02 -0.11646155648E+02  0.28707125140E+02  0.00000000000E+00 0. -1.
         -2    1    1    2    0  502  0.23096486225E+02  0.12281228309E+02  0.18640293264E+03  0.18822945981E+03  0.00000000000E+00 0.  1.
<mgrwt>
<rscale>  2 0.67517263E+02</rscale>
<asrwt>0</asrwt>
<pdfrwt beam="1">  1       21 0.56272420E-01 0.67517263E+02</pdfrwt>
<pdfrwt beam="2">  1       21 0.47902933E-02 0.67517263E+02</pdfrwt>
<totfact> 0.85683020E+05</totfact>
</mgrwt>
</event>
<event>
 5    1  0.1854763E+000  0.8828318E+02  0.7546771E-02  0.1307063E+00
         21   -1    0    0  503  502  0.00000000000E+00  0.00000000000E+00  0.16435251982E+03  0.16435251982E+03  0.00000000000E+00 0. -1.
         21   -1    0    0  501  503 -0.00000000000E+00 -0.00000000000E+00 -0.49709755497E+02  0.49709755497E+02  0.00000000000E+00 0.  1.
         24    1    1    2    0    0  0.91385857360E+01  0.46332873660E+02  0.56836360316E+02  0.10921463610E+03  0.80419002446E+02 0.  1.
          1    1    1    2  501    0 -0.38592843897E+02 -0.33780665160E+02  0.19373972692E+02  0.54826013502E+02  0.00000000000E+00 0. -1.
         -2    1    1    2    0  502  0.29454258161E+02 -0.12552208500E+02  0.38432431316E+02  0.50021625712E+02  0.00000000000E+00 0.  1.
<mgrwt>
<rscale>  2 0.88283179E+02</rscale>
<asrwt>0</asrwt>
<pdfrwt beam="1">  1       21 0.25285003E-01 0.88283179E+02</pdfrwt>
<pdfrwt beam="2">  1       21 0.76476548E-02 0.88283179E+02</pdfrwt>
<totfact> 0.18910771E+06</totfact>
</mgrwt>
</event>
<event>
 5    1  0.1854763E+000  0.9521336E+02  0.7546771E-02  0.1290696E+00
         21   -1    0    0  501  502  0.00000000000E+00  0.00000000000E+00  0.10729173886E+03  0.10729173886E+03  0.00000000000E+00 0.  1.
         21   -1    0    0  502  503 -0.00000000000E+00 -0.00000000000E+00 -0.19426583930E+03  0.19426583930E+03  0.00000000000E+00 0. -1.
         24    1    1    2    0    0 -0.44411360435E+02 -0.29596467496E+02 -0.68229792580E+02  0.11819830952E+03  0.80419002446E+02 0. -1.
          1    1    1    2  501    0 -0.22343766163E+02  0.83915880934E+01  0.67883917025E+02  0.71957548790E+02  0.00000000000E+00 0. -1.
         -2    1    1    2    0  503  0.66755126598E+02  0.21204879403E+02 -0.86628224888E+02  0.11140171985E+03  0.00000000000E+00 0.  1.
<mgrwt>
<rscale>  2 0.95213358E+02</rscale>
<asrwt>0</asrwt>
<pdfrwt beam="1">  1       21 0.16506422E-01 0.95213358E+02</pdfrwt>
<pdfrwt beam="2">  1       21 0.29887052E-01 0.95213358E+02</pdfrwt>
<totfact> 0.35924020E+05</totfact>
</mgrwt>
</event>
<event>
 5    1  0.1854763E+000  0.6855329E+02  0.7546771E-02  0.1365083E+00
         21   -1    0    0  503  502  0.00000000000E+00  0.00000000000E+00  0.31512797670E+02  0.31512797670E+02  0.00000000000E+00 0. -1.
         21   -1    0    0  501  503 -0.00000000000E+00 -0.00000000000E+00 -0.62927856719E+03  0.62927856719E+03  0.00000000000E+00 0.  1.
         24    1    1    2    0    0 -0.16846883418E+02  0.35979416583E+02 -0.56635094308E+03  0.57340992543E+03  0.80419002446E+02 0.  1.
          1    1    1    2  501    0  0.19827684454E+02 -0.11854500879E+02 -0.51114806366E+02  0.56092688398E+02  0.00000000000E+00 0. -1.
         -2    1    1    2    0  502 -0.29808010356E+01 -0.24124915704E+02  0.19699979921E+02  0.31288751037E+02  0.00000000000E+00 0.  1.
<mgrwt>
<rscale>  2 0.68553293E+02</rscale>
<asrwt>0</asrwt>
<pdfrwt beam="1">  1       21 0.48481231E-02 0.68553293E+02</pdfrwt>
<pdfrwt beam="2">  1       21 0.96812080E-01 0.68553293E+02</pdfrwt>
<totfact> 0.26020025E+05</totfact>
</mgrwt>
</event>
<event>
 5    1  0.1950761E+000  0.9658735E+02  0.7546771E-02  0.1287640E+00
         21   -1    0    0  503  502  0.00000000000E+00  0.00000000000E+00  0.41942297689E+03  0.41942297689E+03  0.00000000000E+00 0.  1.
         21   -1    0    0  501  503 -0.00000000000E+00 -0.00000000000E+00 -0.11640474749E+03  0.11640474749E+03  0.00000000000E+00 0. -1.
         24    1    1    2    0    0 -0.34846863453E+02 -0.35026510055E+01  0.10204696272E+03  0.13456363183E+03  0.80419002446E+02 0.  1.
          1    1    1    2  501    0 -0.35277695018E+02  0.12057932339E+01 -0.92770641388E+02  0.99259063096E+02  0.00000000000E+00 0. -1.
         -2    1    1    2    0  502  0.70124558471E+02  0.22968577716E+01  0.29374190808E+03  0.30200502946E+03  0.00000000000E+00 0.  1.
<mgrwt>
<rscale>  2 0.96587351E+02</rscale>
<asrwt>0</asrwt>
<pdfrwt beam="1">  1       21 0.64526611E-01 0.96587351E+02</pdfrwt>
<pdfrwt beam="2">  1       21 0.17908423E-01 0.96587351E+02</pdfrwt>
<totfact> 0.65846064E+04</totfact>
</mgrwt>
</event>
<event>
 5    1  0.1854763E+000  0.7254126E+02  0.7546771E-02  0.1351659E+00
         21   -1    0    0  503  502  0.00000000000E+00  0.00000000000E+00  0.35397358185E+03  0.35397358185E+03  0.00000000000E+00 0.  1.
         21   -1    0    0  501  503 -0.00000000000E+00 -0.00000000000E+00 -0.18518018041E+02  0.18518018041E+02  0.00000000000E+00 0.  1.
         24    1    1    2    0    0 -0.22550875775E+02 -0.30351502859E+02  0.12064483476E+03  0.14984040788E+03  0.80419002446E+02 0.  1.
          1    1    1    2  501    0 -0.10094426080E+02  0.19250318807E+02  0.54512312039E+02  0.58686151483E+02  0.00000000000E+00 0. -1.
         -2    1    1    2    0  502  0.32645301856E+02  0.11101184052E+02  0.16029841701E+03  0.16396504053E+03  0.00000000000E+00 0.  1.
<mgrwt>
<rscale>  2 0.72541258E+02</rscale>
<asrwt>0</asrwt>
<pdfrwt beam="1">  1       21 0.54457469E-01 0.72541258E+02</pdfrwt>
<pdfrwt beam="2">  1       21 0.28489261E-02 0.72541258E+02</pdfrwt>
<totfact> 0.21427497E+06</totfact>
</mgrwt>
</event>
<event>
 5    1  0.1854763E+000  0.7941118E+02  0.7546771E-02  0.1330731E+00
         21   -1    0    0  501  502  0.00000000000E+00  0.00000000000E+00  0.32591548255E+03  0.32591548255E+03  0.00000000000E+00 0. -1.
         21   -1    0    0  502  503 -0.00000000000E+00 -0.00000000000E+00 -0.20774210044E+02  0.20774210044E+02  0.00000000000E+00 0.  1.
         24    1    1    2    0    0 -0.24665207284E+02  0.19081483543E+02  0.19668566731E+03  0.21476718358E+03  0.80419002446E+02 0.  0.
          1    1    1    2  501    0  0.47119955242E+02 -0.90778088837E+01  0.86709091614E+02  0.99101782853E+02  0.00000000000E+00 0. -1.
         -2    1    1    2    0  503 -0.22454747958E+02 -0.10003674659E+02  0.21746513581E+02  0.32820726157E+02  0.00000000000E+00 0.  1.
<mgrwt>
<rscale>  2 0.79411182E+02</rscale>
<asrwt>0</asrwt>
<pdfrwt beam="1">  1       21 0.50140840E-01 0.79411182E+02</pdfrwt>
<pdfrwt beam="2">  1       21 0.31960326E-02 0.79411182E+02</pdfrwt>
<totfact> 0.21142406E+06</totfact>
</mgrwt>
</event>
<event>
 5    1  0.1854763E+000  0.1228224E+03  0.7546771E-02  0.1238512E+00
         21   -1    0    0  503  502  0.00000000000E+00  0.00000000000E+00  0.11773126299E+03  0.11773126299E+03  0.00000000000E+00 0. -1.
         21   -1    0    0  501  503 -0.00000000000E+00 -0.00000000000E+00 -0.12879522706E+03  0.12879522706E+03  0.00000000000E+00 0. -1.
         24    1    1    2    0    0 -0.39951866731E+02 -0.71043691329E+02 -0.13422583898E+01  0.11450928061E+03  0.80419002446E+02 0. -1.
          1    1    1    2  501    0  0.73584880859E+02  0.62240033284E+02 -0.19695903938E+01  0.96397280670E+02  0.00000000000E+00 0. -1.
         -2    1    1    2    0  502 -0.33633014128E+02  0.88036580449E+01 -0.77521152878E+01  0.35619928772E+02  0.00000000000E+00 0.  1.
<mgrwt>
<rscale>  2 0.12282235E+03</rscale>
<asrwt>0</asrwt>
<pdfrwt beam="1">  1       21 0.18112502E-01 0.12282235E+03</pdfrwt>
<pdfrwt beam="2">  1       21 0.19814650E-01 0.12282235E+03</pdfrwt>
<totfact> 0.65529970E+05</totfact>
</mgrwt>
</event>
<event>
 5    1  0.1854763E+000  0.8942236E+02  0.7546771E-02  0.1304257E+00
         21   -1    0    0  503  502  0.00000000000E+00  0.00000000000E+00  0.15133186517E+02  0.15133186517E+02  0.00000000000E+00 0. -1.
         21   -1    0    0  501  503 -0.00000000000E+00 -0.00000000000E+00 -0.79061208871E+03  0.79061208871E+03  0.00000000000E+00 0.  1.
         24    1    1    2    0    0 -0.46715288057E+02  0.46976962155E+02 -0.20789596693E+03  0.23254483897E+03  0.80419002446E+02 0. -1.
          1    1    1    2  501    0  0.37372555111E+02 -0.13247008983E+02 -0.40248351621E+03  0.40443191262E+03  0.00000000000E+00 0. -1.
         -2    1    1    2    0  502  0.93427329461E+01 -0.33729953172E+02 -0.16509941905E+03  0.16876852364E+03  0.00000000000E+00 0.  1.
<mgrwt>
<rscale>  2 0.89422358E+02</rscale>
<asrwt>0</asrwt>
<pdfrwt beam="1">  1       21 0.23281821E-02 0.89422358E+02</pdfrwt>
<pdfrwt beam="2">  1       21 0.12163265E+00 0.89422358E+02</pdfrwt>
<totfact> 0.50099715E+05</totfact>
</mgrwt>
</event>
<event>
 5    1  0.1854763E+000  0.8507104E+02  0.7546771E-02  0.1315247E+00
         21   -1    0    0  501  502  0.00000000000E+00  0.00000000000E+00  0.52355372166E+02  0.52355372166E+02  0.00000000000E+00 0.  1.
         21   -1    0    0  502  503 -0.00000000000E+00 -0.00000000000E+00 -0.19850790079E+03  0.19850790079E+03  0.00000000000E+00 0. -1.
         24    1    1    2    0    0  0.22558782817E+02 -0.22348214860E+02 -0.64165730589E+02  0.10766985802E+03  0.80419002446E+02 0. -1.
          1    1    1    2  501    0  0.10749459135E+02 -0.24178502309E+02  0.15124541048E+02  0.30477903267E+02  0.00000000000E+00 0. -1.
         -2    1    1    2    0  503 -0.33308241952E+02  0.46526717170E+02 -0.97111339086E+02  0.11271551167E+03  0.00000000000E+00 0.  1.
<mgrwt>
<rscale>  2 0.85071036E+02</rscale>
<asrwt>0</asrwt>
<pdfrwt beam="1">  1       21 0.80546726E-02 0.85071036E+02</pdfrwt>
<pdfrwt beam="2">  1       21 0.30539677E-01 0.85071036E+02</pdfrwt>
<totfact> 0.12098849E+06</totfact>
</mgrwt>
</event>
<event>
 5    1  0.1854763E+000  0.2152890E+03  0.7546771E-02  0.1137445E+00
         21   -1    0    0  501  502  0.00000000000E+00  0.00000000000E+00  0.24531543113E+03  0.24531543113E+03  0.00000000000E+00 0.  1.
         21   -1    0    0  502  503 -0.00000000000E+00 -0.00000000000E+00 -0.19930894795E+03  0.19930894795E+03  0.00000000000E+00 0.  1.
         24    1    1    2    0    0 -0.22588223572E+02 -0.15675139103E+03  0.48129172846E+01  0.17768400761E+03  0.80419002446E+02 0.  1.
          1    1    1    2  501    0 -0.66115208149E+02 -0.72446042125E+01  0.45256360460E+02  0.80447766910E+02  0.00000000000E+00 0. -1.
         -2    1    1    2    0  503  0.88703431720E+02  0.16399599524E+03 -0.40627945649E+01  0.18649260456E+03  0.00000000000E+00 0.  1.
<mgrwt>
<rscale>  2 0.21528905E+03</rscale>
<asrwt>0</asrwt>
<pdfrwt beam="1">  1       21 0.37740835E-01 0.21528905E+03</pdfrwt>
<pdfrwt beam="2">  1       21 0.30662915E-01 0.21528905E+03</pdfrwt>
<totfact> 0.68453302E+04</totfact>
</mgrwt>
</event>
<event>
 5    1  0.1854763E+000  0.6594114E+02  0.7546771E-02  0.1374466E+00
         21   -1    0    0  501  502  0.00000000000E+00  0.00000000000E+00  0.97194208269E+01  0.97194208269E+01  0.00000000000E+00 0. -1.
         21   -1    0    0  502  503 -0.00000000000E+00 -0.00000000000E+00 -0.13868193804E+04  0.13868193804E+04  0.00000000000E+00 0.  1.
         24    1    1    2    0    0 -0.24322276799E+02 -0.10319517280E+02 -0.75145019137E+03  0.75620279796E+03  0.80419002446E+02 0. -1.
          1    1    1    2  501    0 -0.10214700339E+01  0.20057932573E+02 -0.72680887616E+01  0.21358585495E+02  0.00000000000E+00 0. -1.
         -2    1    1    2    0  503  0.25343746833E+02 -0.97384152926E+01 -0.61838167950E+03  0.61897741782E+03  0.00000000000E+00 0.  1.
<mgrwt>
<rscale>  2 0.65941137E+02</rscale>
<asrwt>0</asrwt>
<pdfrwt beam="1">  1       21 0.14952965E-02 0.65941137E+02</pdfrwt>
<pdfrwt beam="2">  1       21 0.21335669E+00 0.65941137E+02</pdfrwt>
<totfact> 0.23666749E+05</totfact>
</mgrwt>
</event>
<event>
 5    1  0.1854763E+000  0.8558800E+02  0.7546771E-02  0.1313902E+00
         21   -1    0    0  503  502  0.00000000000E+00  0.00000000000E+00  0.90588228061E+02  0.90588228061E+02  0.00000000000E+00 0.  1.
         21   -1    0    0  501  503 -0.00000000000E+00 -0.00000000000E+00 -0.16755138190E+03  0.16755138190E+03  0.00000000000E+00 0. -1.
         24    1    1    2    0    0  0.17863398068E+02  0.20706822761E+02 -0.30048653500E+02  0.90100005721E+02  0.80419002446E+02 0. -1.
          1    1    1    2  501    0 -0.50564813850E+02 -0.82129533757E+01 -0.95372389153E+02  0.10825962135E+03  0.00000000000E+00 0. -1.
         -2    1    1    2    0  502  0.32701415782E+02 -0.12493869385E+02  0.48457888810E+02  0.59779982890E+02  0.00000000000E+00 0.  1.
<mgrwt>
<rscale>  2 0.85587997E+02</rscale>
<asrwt>0</asrwt>
<pdfrwt beam="1">  1       21 0.13936651E-01 0.85587997E+02</pdfrwt>
<pdfrwt beam="2">  1       21 0.25777135E-01 0.85587997E+02</pdfrwt>
<totfact> 0.64327169E+05</totfact>
</mgrwt>
</event>
<event>
 5    1  0.1854763E+000  0.6672019E+02  0.7546771E-02  0.1371615E+00
         21   -1    0    0  501  502  0.00000000000E+00  0.00000000000E+00  0.23433657979E+01  0.23433657979E+01  0.00000000000E+00 0.  1.
         21   -1    0    0  502  503 -0.00000000000E+00 -0.00000000000E+00 -0.29355052031E+04  0.29355052031E+04  0.00000000000E+00 0. -1.
         24    1    1    2    0    0  0.87858961043E+01  0.25551636779E+01 -0.20306573501E+04  0.20322697189E+04  0.80419002446E+02 0. -1.
          1    1    1    2  501    0  0.18225639165E+02 -0.14183568755E+02 -0.10401339466E+03  0.10654639278E+03  0.00000000000E+00 0. -1.
         -2    1    1    2    0  503 -0.27011535269E+02  0.11628405077E+02 -0.79849109251E+03  0.79903245720E+03  0.00000000000E+00 0.  1.
<mgrwt>
<rscale>  2 0.66720193E+02</rscale>
<asrwt>0</asrwt>
<pdfrwt beam="1">  1       21 0.36051905E-03 0.66720193E+02</pdfrwt>
<pdfrwt beam="2">  1       21 0.45161464E+00 0.66720193E+02</pdfrwt>
<totfact> 0.94585620E+04</totfact>
</mgrwt>
</event>
<event>
 5    1  0.1854763E+000  0.8461600E+02  0.7546771E-02  0.1316440E+00
         21   -1    0    0  503  502  0.00000000000E+00  0.00000000000E+00  0.97582579204E+02  0.97582579204E+02  0.00000000000E+00 0. -1.
         21   -1    0    0  501  503 -0.00000000000E+00 -0.00000000000E+00 -0.12761111674E+03  0.12761111674E+03  0.00000000000E+00 0. -1.
         24    1    1    2    0    0  0.64342006731E+02  0.12257102123E+02  0.16609236120E+02  0.10503910254E+03  0.80419002446E+02 0. -1.
          1    1    1    2  501    0 -0.42610301741E+02 -0.74349472566E+01 -0.73490673607E+02  0.85274822559E+02  0.00000000000E+00 0. -1.
         -2    1    1    2    0  502 -0.21731704990E+02 -0.48221548664E+01  0.26852899947E+02  0.34879770855E+02  0.00000000000E+00 0.  1.
<mgrwt>
<rscale>  2 0.84616000E+02</rscale>
<asrwt>0</asrwt>
<pdfrwt beam="1">  1       21 0.15012704E-01 0.84616000E+02</pdfrwt>
<pdfrwt beam="2">  1       21 0.19632480E-01 0.84616000E+02</pdfrwt>
<totfact> 0.93222618E+05</totfact>
</mgrwt>
</event>
<event>
 5    1  0.1854763E+000  0.1332242E+03  0.7546771E-02  0.1222748E+00
         21   -1    0    0  503  502  0.00000000000E+00  0.00000000000E+00  0.56698286818E+03  0.56698286818E+03  0.00000000000E+00 0.  1.
         21   -1    0    0  501  503 -0.00000000000E+00 -0.00000000000E+00 -0.60800016636E+02  0.60800016636E+02  0.00000000000E+00 0. -1.
         24    1    1    2    0    0  0.82428306711E+02  0.23326252927E+02  0.88420116925E+02  0.14705057924E+03  0.80419002446E+02 0.  0.
          1    1    1    2  501    0 -0.70563555512E+02  0.42292986196E+02  0.30451106763E+02  0.87722186196E+02  0.00000000000E+00 0. -1.
         -2    1    1    2    0  502 -0.11864751199E+02 -0.65619239123E+02  0.38731162785E+03  0.39301011938E+03  0.00000000000E+00 0.  1.
<mgrwt>
<rscale>  2 0.13322424E+03</rscale>
<asrwt>0</asrwt>
<pdfrwt beam="1">  1       21 0.87228130E-01 0.13322424E+03</pdfrwt>
<pdfrwt beam="2">  1       21 0.93538491E-02 0.13322424E+03</pdfrwt>
<totfact> 0.10557463E+05</totfact>
</mgrwt>
</event>
<event>
 5    1  0.1854763E+000  0.1011053E+03  0.7546771E-02  0.1277989E+00
         21   -1    0    0  501  502  0.00000000000E+00  0.00000000000E+00  0.48767060301E+03  0.48767060301E+03  0.00000000000E+00 0. -1.
         21   -1    0    0  502  503 -0.00000000000E+00 -0.00000000000E+00 -0.27887722995E+02  0.27887722995E+02  0.00000000000E+00 0.  1.
         24    1    1    2    0    0 -0.13053421445E+02 -0.48552177100E+02  0.15985067283E+03  0.18586866134E+03  0.80419002446E+02 0.  1.
          1    1    1    2  501    0  0.52755597066E+02  0.41325595041E+02  0.27316415230E+03  0.28126430973E+03  0.00000000000E+00 0. -1.
         -2    1    1    2    0  503 -0.39702175621E+02  0.72265820594E+01  0.26768054885E+02  0.48425354925E+02  0.00000000000E+00 0.  1.
<mgrwt>
<rscale>  2 0.10110534E+03</rscale>
<asrwt>0</asrwt>
<pdfrwt beam="1">  1       21 0.75026240E-01 0.10110534E+03</pdfrwt>
<pdfrwt beam="2">  1       21 0.42904193E-02 0.10110534E+03</pdfrwt>
<totfact> 0.55965142E+05</totfact>
</mgrwt>
</event>
<event>
 5    1  0.1854763E+000  0.1318364E+03  0.7546771E-02  0.1224756E+00
         21   -1    0    0  501  502  0.00000000000E+00  0.00000000000E+00  0.18265558908E+03  0.18265558908E+03  0.00000000000E+00 0. -1.
         21   -1    0    0  502  503 -0.00000000000E+00 -0.00000000000E+00 -0.20894555906E+03  0.20894555906E+03  0.00000000000E+00 0.  1.
         24    1    1    2    0    0 -0.73933179884E+02  0.38175057537E+02 -0.13031731336E+03  0.17427928225E+03  0.80419002446E+02 0.  1.
          1    1    1    2  501    0 -0.31327485340E+02 -0.28325237468E+02  0.10329845605E+03  0.11159884156E+03  0.00000000000E+00 0. -1.
         -2    1    1    2    0  503  0.10526066522E+03 -0.98498200689E+01  0.72888732541E+00  0.10572302434E+03  0.00000000000E+00 0.  1.
<mgrwt>
<rscale>  2 0.13183639E+03</rscale>
<asrwt>0</asrwt>
<pdfrwt beam="1">  1       21 0.28100860E-01 0.13183639E+03</pdfrwt>
<pdfrwt beam="2">  1       21 0.32145471E-01 0.13183639E+03</pdfrwt>
<totfact> 0.11513678E+05</totfact>
</mgrwt>
</event>
<event>
 5    1  0.1854763E+000  0.1224146E+03  0.7546771E-02  0.1239166E+00
         21   -1    0    0  503  502  0.00000000000E+00  0.00000000000E+00  0.11311355660E+03  0.11311355660E+03  0.00000000000E+00 0. -1.
         21   -1    0    0  501  503 -0.00000000000E+00 -0.00000000000E+00 -0.32526800718E+03  0.32526800718E+03  0.00000000000E+00 0. -1.
         24    1    1    2    0    0 -0.63384411126E+02 -0.76876055623E+02  0.27876987847E+02  0.13104142058E+03  0.80419002446E+02 0. -1.
          1    1    1    2  501    0  0.43385566070E+02  0.84817231487E+02 -0.26066424367E+03  0.27752858957E+03  0.00000000000E+00 0. -1.
         -2    1    1    2    0  502  0.19998845056E+02 -0.79411758641E+01  0.20632805240E+02  0.29811553628E+02  0.00000000000E+00 0.  1.
<mgrwt>
<rscale>  2 0.12241458E+03</rscale>
<asrwt>0</asrwt>
<pdfrwt beam="1">  1       21 0.17402086E-01 0.12241458E+03</pdfrwt>
<pdfrwt beam="2">  1       21 0.50041231E-01 0.12241458E+03</pdfrwt>
<totfact> 0.11663591E+05</totfact>
</mgrwt>
</event>
<event>
 5    1  0.1854763E+000  0.8499444E+02  0.7546771E-02  0.1315447E+00
         21   -1    0    0  503  502  0.00000000000E+00  0.00000000000E+00  0.10185563167E+03  0.10185563167E+03  0.00000000000E+00 0.  1.
         21   -1    0    0  501  503 -0.00000000000E+00 -0.00000000000E+00 -0.11206783108E+03  0.11206783108E+03  0.00000000000E+00 0. -1.
         24    1    1    2    0    0 -0.28447571141E+02  0.14194500982E+02 -0.49811780229E+02  0.99795679094E+02  0.80419002446E+02 0.  0.
          1    1    1    2  501    0  0.53447538392E+02 -0.21281465027E+02 -0.97557196167E+01  0.58349928698E+02  0.00000000000E+00 0. -1.
         -2    1    1    2    0  502 -0.24999967251E+02  0.70869640451E+01  0.49355300437E+02  0.55777854953E+02  0.00000000000E+00 0.  1.
<mgrwt>
<rscale>  2 0.84994443E+02</rscale>
<asrwt>0</asrwt>
<pdfrwt beam="1">  1       21 0.15670097E-01 0.84994443E+02</pdfrwt>
<pdfrwt beam="2">  1       21 0.17241205E-01 0.84994443E+02</pdfrwt>
<totfact> 0.10929848E+06</totfact>
</mgrwt>
</event>
<event>
 5    1  0.1854763E+000  0.8253246E+02  0.7546771E-02  0.1322015E+00
         21   -1    0    0  501  502  0.00000000000E+00  0.00000000000E+00  0.14560770309E+04  0.14560770309E+04  0.00000000000E+00 0. -1.
         21   -1    0    0  502  503 -0.00000000000E+00 -0.00000000000E+00 -0.74641295645E+01  0.74641295645E+01  0.00000000000E+00 0. -1.
         24    1    1    2    0    0  0.33010492760E+02 -0.55421257143E+01  0.30301095930E+03  0.31528283366E+03  0.80419002446E+02 0. -1.
          1    1    1    2  501    0  0.22353951677E+02  0.27593953488E+01  0.35824123693E+03  0.35894859974E+03  0.00000000000E+00 0. -1.
         -2    1    1    2    0  503 -0.55364444437E+02  0.27827303655E+01  0.78736070513E+03  0.78930972709E+03  0.00000000000E+00 0.  1.
<mgrwt>
<rscale>  2 0.82532460E+02</rscale>
<asrwt>0</asrwt>
<pdfrwt beam="1">  1       21 0.22401163E+00 0.82532460E+02</pdfrwt>
<pdfrwt beam="2">  1       21 0.11483288E-02 0.82532460E+02</pdfrwt>
<totfact> 0.30593221E+05</totfact>
</mgrwt>
</event>
<event>
 5    1  0.1854763E+000  0.1218507E+03  0.7546771E-02  0.1240075E+00
         21   -1    0    0  501  502  0.00000000000E+00  0.00000000000E+00  0.56283542513E+02  0.56283542513E+02  0.00000000000E+00 0. -1.
         21   -1    0    0  502  503 -0.00000000000E+00 -0.00000000000E+00 -0.56551276625E+03  0.56551276625E+03  0.00000000000E+00 0. -1.
         24    1    1    2    0    0  0.99777995941E+02 -0.24990373173E+02 -0.40548343625E+03  0.42598615030E+03  0.80419002446E+02 0. -1.
          1    1    1    2  501    0 -0.79956742490E+02 -0.15974782814E+01  0.69302020753E+01  0.80272413115E+02  0.00000000000E+00 0. -1.
         -2    1    1    2    0  503 -0.19821253450E+02  0.26587851454E+02 -0.11067598957E+03  0.11553774535E+03  0.00000000000E+00 0.  1.
<mgrwt>
<rscale>  2 0.12185075E+03</rscale>
<asrwt>0</asrwt>
<pdfrwt beam="1">  1       21 0.86590068E-02 0.12185075E+03</pdfrwt>
<pdfrwt beam="2">  1       21 0.87001962E-01 0.12185075E+03</pdfrwt>
<totfact> 0.12200790E+05</totfact>
</mgrwt>
</event>
<event>
 5    1  0.1854763E+000  0.9565139E+02  0.7546771E-02  0.1289716E+00
         21   -1    0    0  501  502  0.00000000000E+00  0.00000000000E+00  0.33103624661E+02  0.33103624661E+02  0.00000000000E+00 0. -1.
         21   -1    0    0  502  503 -0.00000000000E+00 -0.00000000000E+00 -0.64722687791E+03  0.64722687791E+03  0.00000000000E+00 0.  1.
         24    1    1    2    0    0 -0.32556812684E+02  0.42523984726E+02 -0.11087881906E+03  0.14706992827E+03  0.80419002446E+02 0.  0.
          1    1    1    2  501    0  0.42451713445E+02  0.79999190153E+01 -0.20566711029E+02  0.47844919074E+02  0.00000000000E+00 0. -1.
         -2    1    1    2    0  503 -0.98949007603E+01 -0.50523903741E+02 -0.48267772316E+03  0.48541565523E+03  0.00000000000E+00 0.  1.
<mgrwt>
<rscale>  2 0.95651392E+02</rscale>
<asrwt>0</asrwt>
<pdfrwt beam="1">  1       21 0.50928648E-02 0.95651392E+02</pdfrwt>
<pdfrwt beam="2">  1       21 0.99573375E-01 0.95651392E+02</pdfrwt>
<totfact> 0.22286044E+05</totfact>
</mgrwt>
</event>
<event>
 5    1  0.1854763E+000  0.1818848E+03  0.7546771E-02  0.1165991E+00
         21   -1    0    0  501  502  0.00000000000E+00  0.00000000000E+00  0.17010338308E+04  0.17010338308E+04  0.00000000000E+00 0. -1.
         21   -1    0    0  502  503 -0.00000000000E+00 -0.00000000000E+00 -0.20373043657E+02  0.20373043657E+02  0.00000000000E+00 0.  1.
         24    1    1    2    0    0 -0.10710640982E+03 -0.68432975619E+02  0.61204790892E+03  0.63025765679E+03  0.80419002446E+02 0. -1.
          1    1    1    2  501    0  0.13446847760E+03  0.10292369135E+03  0.94202526906E+03  0.95712416397E+03  0.00000000000E+00 0. -1.
         -2    1    1    2    0  503 -0.27362067777E+02 -0.34490715726E+02  0.12658760918E+03  0.13402505371E+03  0.00000000000E+00 0.  1.
<mgrwt>
<rscale>  2 0.18188475E+03</rscale>
<asrwt>0</asrwt>
<pdfrwt beam="1">  1       21 0.26169740E+00 0.18188475E+03</pdfrwt>
<pdfrwt beam="2">  1       21 0.31343157E-02 0.18188475E+03</pdfrwt>
<totfact> 0.33736111E+04</totfact>
</mgrwt>
</event>
<event>
 5    1  0.1854763E+000  0.7602360E+02  0.7546771E-02  0.1340730E+00
         21   -1    0    0  501  502  0.00000000000E+00  0.00000000000E+00  0.10088920982E+03  0.10088920982E+03  0.00000000000E+00 0.  1.
         21   -1    0    0  502  503 -0.00000000000E+00 -0.00000000000E+00 -0.81943231511E+02  0.81943231511E+02  0.00000000000E+00 0.  1.
         24    1    1    2    0    0 -0.95482373002E+01  0.15538993151E+01  0.45573829573E+02  0.92939621986E+02  0.80419002446E+02 0.  1.
          1    1    1    2  501    0 -0.25530860237E+02  0.17668055727E+02  0.12932710489E+02  0.33633911729E+02  0.00000000000E+00 0. -1.
         -2    1    1    2    0  503  0.35079097537E+02 -0.19221955042E+02 -0.39560561755E+02  0.56258907615E+02  0.00000000000E+00 0.  1.
<mgrwt>
<rscale>  2 0.76023601E+02</rscale>
<asrwt>0</asrwt>
<pdfrwt beam="1">  1       21 0.15521417E-01 0.76023601E+02</pdfrwt>
<pdfrwt beam="2">  1       21 0.12606651E-01 0.76023601E+02</pdfrwt>
<totfact> 0.19320451E+06</totfact>
</mgrwt>
</event>
<event>
 5    1  0.1854763E+000  0.8185821E+02  0.7546771E-02  0.1323859E+00
         21   -1    0    0  503  502  0.00000000000E+00  0.00000000000E+00  0.18457088602E+02  0.18457088602E+02  0.00000000000E+00 0. -1.
         21   -1    0    0  501  503 -0.00000000000E+00 -0.00000000000E+00 -0.45864260972E+03  0.45864260972E+03  0.00000000000E+00 0.  1.
         24    1    1    2    0    0 -0.22194312284E+01 -0.28341956850E+02 -0.32991080581E+03  0.34075878292E+03  0.80419002446E+02 0.  1.
          1    1    1    2  501    0  0.35896688208E+02  0.25237205667E+01 -0.64944104545E+02  0.74247411436E+02  0.00000000000E+00 0. -1.
         -2    1    1    2    0  502 -0.33677256980E+02  0.25818236283E+02 -0.45330610761E+02  0.62093503964E+02  0.00000000000E+00 0.  1.
<mgrwt>
<rscale>  2 0.81858207E+02</rscale>
<asrwt>0</asrwt>
<pdfrwt beam="1">  1       21 0.28395523E-02 0.81858207E+02</pdfrwt>
<pdfrwt beam="2">  1       21 0.70560396E-01 0.81858207E+02</pdfrwt>
<totfact> 0.12544411E+06</totfact>
</mgrwt>
</event>
<event>
 5    1  0.1854763E+000  0.9095769E+02  0.7546771E-02  0.1300549E+00
         21   -1    0    0  503  502  0.00000000000E+00  0.00000000000E+00  0.15275487871E+04  0.15275487871E+04  0.00000000000E+00 0. -1.
         21   -1    0    0  501  503 -0.00000000000E+00 -0.00000000000E+00 -0.81331833908E+01  0.81331833908E+01  0.00000000000E+00 0.  1.
         24    1    1    2    0    0 -0.21782411533E+02  0.14066769914E+02  0.10708038407E+04  0.10741324074E+04  0.80419002446E+02 0. -1.
          1    1    1    2  501    0 -0.36961259053E+02  0.22621593273E+00  0.81459974347E+02  0.89453413938E+02  0.00000000000E+00 0. -1.
         -2    1    1    2    0  502  0.58743670587E+02 -0.14292985847E+02  0.36715178866E+03  0.37209614913E+03  0.00000000000E+00 0.  1.
<mgrwt>
<rscale>  2 0.90957690E+02</rscale>
<asrwt>0</asrwt>
<pdfrwt beam="1">  1       21 0.23500728E+00 0.90957690E+02</pdfrwt>
<pdfrwt beam="2">  1       21 0.12512602E-02 0.90957690E+02</pdfrwt>
<totfact> 0.22938894E+05</totfact>
</mgrwt>
</event>
<event>
 5    1  0.1854763E+000  0.8709571E+02  0.7546771E-02  0.1310041E+00
         21   -1    0    0  503  502  0.00000000000E+00  0.00000000000E+00  0.73192523639E+01  0.73192523639E+01  0.00000000000E+00 0. -1.
         21   -1    0    0  501  503 -0.00000000000E+00 -0.00000000000E+00 -0.17143516717E+04  0.17143516717E+04  0.00000000000E+00 0.  1.
         24    1    1    2    0    0 -0.23252452909E+02 -0.19385523826E+02 -0.13837717758E+04  0.13864371672E+04  0.80419002446E+02 0.  1.
          1    1    1    2  501    0 -0.41254122216E+01  0.48281205875E+02 -0.15908183993E+03  0.16629830324E+03  0.00000000000E+00 0. -1.
         -2    1    1    2    0  502  0.27377865130E+02 -0.28895682049E+02 -0.16417880358E+03  0.16893545361E+03  0.00000000000E+00 0.  1.
<mgrwt>
<rscale>  2 0.87095710E+02</rscale>
<asrwt>0</asrwt>
<pdfrwt beam="1">  1       21 0.11260377E-02 0.87095710E+02</pdfrwt>
<pdfrwt beam="2">  1       21 0.26374669E+00 0.87095710E+02</pdfrwt>
<totfact> 0.18757582E+05</totfact>
</mgrwt>
</event>
<event>
 5    1  0.1854763E+000  0.1205057E+03  0.7546771E-02  0.1242265E+00
         21   -1    0    0  501  502  0.00000000000E+00  0.00000000000E+00  0.11078081001E+04  0.11078081001E+04  0.00000000000E+00 0. -1.
         21   -1    0    0  502  503 -0.00000000000E+00 -0.00000000000E+00 -0.27638409707E+02  0.27638409707E+02  0.00000000000E+00 0.  1.
         24    1    1    2    0    0 -0.61436382064E+02 -0.49054297090E+02  0.11340530522E+03  0.15971453381E+03  0.80419002446E+02 0.  1.
          1    1    1    2  501    0  0.37510389696E+02  0.80631935911E+02  0.76185388210E+03  0.76702664628E+03  0.00000000000E+00 0. -1.
         -2    1    1    2    0  503  0.23925992369E+02 -0.31577638821E+02  0.20491050308E+03  0.20870532973E+03  0.00000000000E+00 0.  1.
<mgrwt>
<rscale>  2 0.12050567E+03</rscale>
<asrwt>0</asrwt>
<pdfrwt beam="1">  1       21 0.17043198E+00 0.12050567E+03</pdfrwt>
<pdfrwt beam="2">  1       21 0.42520639E-02 0.12050567E+03</pdfrwt>
<totfact> 0.78206688E+04</totfact>
</mgrwt>
</event>
<event>
 5    1  0.1854763E+000  0.1006947E+03  0.7546771E-02  0.1278842E+00
         21   -1    0    0  503  502  0.00000000000E+00  0.00000000000E+00  0.10550868108E+03  0.10550868108E+03  0.00000000000E+00 0.  1.
         21   -1    0    0  501  503 -0.00000000000E+00 -0.00000000000E+00 -0.41267836098E+03  0.41267836098E+03  0.00000000000E+00 0. -1.
         24    1    1    2    0    0 -0.64488461193E+02  0.25051093059E+02 -0.25414411529E+03  0.27539565389E+03  0.80419002446E+02 0. -1.
          1    1    1    2  501    0  0.95852084284E+01  0.21362097390E+02 -0.13312029492E+03  0.13516370942E+03  0.00000000000E+00 0. -1.
         -2    1    1    2    0  502  0.54903252765E+02 -0.46413190449E+02  0.80094730298E+02  0.10762767875E+03  0.00000000000E+00 0.  1.
<mgrwt>
<rscale>  2 0.10069466E+03</rscale>
<asrwt>0</asrwt>
<pdfrwt beam="1">  1       21 0.16232105E-01 0.10069466E+03</pdfrwt>
<pdfrwt beam="2">  1       21 0.63488978E-01 0.10069466E+03</pdfrwt>
<totfact> 0.81218702E+04</totfact>
</mgrwt>
</event>
<event>
 5    1  0.1854763E+000  0.1230582E+03  0.7546771E-02  0.1238135E+00
         21   -1    0    0  503  502  0.00000000000E+00  0.00000000000E+00  0.76457223896E+02  0.76457223896E+02  0.00000000000E+00 0. -1.
         21   -1    0    0  501  503 -0.00000000000E+00 -0.00000000000E+00 -0.37820957237E+03  0.37820957237E+03  0.00000000000E+00 0. -1.
         24    1    1    2    0    0  0.95159301635E+02  0.38472474064E+02  0.69373785435E+00  0.13039601671E+03  0.80419002446E+02 0. -1.
          1    1    1    2  501    0 -0.17497053030E+02 -0.33629789505E+02 -0.12221671100E+03  0.12796106460E+03  0.00000000000E+00 0. -1.
         -2    1    1    2    0  502 -0.77662248604E+02 -0.48426845590E+01 -0.18022937533E+03  0.19630971495E+03  0.00000000000E+00 0.  1.
<mgrwt>
<rscale>  2 0.12305824E+03</rscale>
<asrwt>0</asrwt>
<pdfrwt beam="1">  1       21 0.11762650E-01 0.12305824E+03</pdfrwt>
<pdfrwt beam="2">  1       21 0.58186088E-01 0.12305824E+03</pdfrwt>
<totfact> 0.17193615E+05</totfact>
</mgrwt>
</event>
<event>
 5    1  0.1854763E+000  0.8641581E+02  0.7546771E-02  0.1311771E+00
         21   -1    0    0  501  502  0.00000000000E+00  0.00000000000E+00  0.12732626918E+02  0.12732626918E+02  0.00000000000E+00 0.  1.
         21   -1    0    0  502  503 -0.00000000000E+00 -0.00000000000E+00 -0.98169172026E+03  0.98169172026E+03  0.00000000000E+00 0. -1.
         24    1    1    2    0    0  0.43796503479E+02 -0.38401192161E+02 -0.48400007077E+03  0.49408103560E+03  0.80419002446E+02 0.  0.
          1    1    1    2  501    0 -0.22068770067E+02  0.45587887010E+02 -0.79656233945E+02  0.94394923914E+02  0.00000000000E+00 0. -1.
         -2    1    1    2    0  503 -0.21727733412E+02 -0.71866948489E+01 -0.40530278863E+03  0.40594838767E+03  0.00000000000E+00 0.  1.
<mgrwt>
<rscale>  2 0.86415812E+02</rscale>
<asrwt>0</asrwt>
<pdfrwt beam="1">  1       21 0.19588650E-02 0.86415812E+02</pdfrwt>
<pdfrwt beam="2">  1       21 0.15102955E+00 0.86415812E+02</pdfrwt>
<totfact> 0.38662327E+05</totfact>
</mgrwt>
</event>
<event>
 5    1  0.1854763E+000  0.1024490E+03  0.7546771E-02  0.1275229E+00
         21   -1    0    0  503  502  0.00000000000E+00  0.00000000000E+00  0.13961529375E+03  0.13961529375E+03  0.00000000000E+00 0. -1.
         21   -1    0    0  501  503 -0.00000000000E+00 -0.00000000000E+00 -0.22627677588E+03  0.22627677588E+03  0.00000000000E+00 0. -1.
         24    1    1    2    0    0 -0.55539976838E+02  0.64908411305E+02 -0.22616143604E+02  0.11948429517E+03  0.80419002446E+02 0. -1.
          1    1    1    2  501    0  0.46307358250E+02 -0.40651627167E+02 -0.14705077085E+03  0.15943919038E+03  0.00000000000E+00 0. -1.
         -2    1    1    2    0  502  0.92326185876E+01 -0.24256784138E+02  0.83005432326E+02  0.86968584089E+02  0.00000000000E+00 0.  1.
<mgrwt>
<rscale>  2 0.10244900E+03</rscale>
<asrwt>0</asrwt>
<pdfrwt beam="1">  1       21 0.21479276E-01 0.10244900E+03</pdfrwt>
<pdfrwt beam="2">  1       21 0.34811812E-01 0.10244900E+03</pdfrwt>
<totfact> 0.16518563E+05</totfact>
</mgrwt>
</event>
<event>
 5    1  0.1854763E+000  0.8451851E+02  0.7546771E-02  0.1316696E+00
         21   -1    0    0  503  502  0.00000000000E+00  0.00000000000E+00  0.68473447054E+02  0.68473447054E+02  0.00000000000E+00 0.  1.
         21   -1    0    0  501  503 -0.00000000000E+00 -0.00000000000E+00 -0.14025777442E+03  0.14025777442E+03  0.00000000000E+00 0.  1.
         24    1    1    2    0    0  0.47105280655E+02 -0.33358098309E+02  0.10878388350E+02  0.99585267364E+02  0.80419002446E+02 0.  1.
          1    1    1    2  501    0 -0.20527709601E+02 -0.70310485862E+01 -0.35483346121E+02  0.41591950635E+02  0.00000000000E+00 0. -1.
         -2    1    1    2    0  502 -0.26577571054E+02  0.40389146895E+02 -0.47179369589E+02  0.67554003471E+02  0.00000000000E+00 0.  1.
<mgrwt>
<rscale>  2 0.84518512E+02</rscale>
<asrwt>0</asrwt>
<pdfrwt beam="1">  1       21 0.10534377E-01 0.84518512E+02</pdfrwt>
<pdfrwt beam="2">  1       21 0.21578119E-01 0.84518512E+02</pdfrwt>
<totfact> 0.14614505E+06</totfact>
</mgrwt>
</event>
<event>
 5    1  0.1854763E+000  0.8078359E+02  0.7546771E-02  0.1326842E+00
         21   -1    0    0  501  502  0.00000000000E+00  0.00000000000E+00  0.28405511861E+03  0.28405511861E+03  0.00000000000E+00 0. -1.
         21   -1    0    0  502  503 -0.00000000000E+00 -0.00000000000E+00 -0.14377562530E+03  0.14377562530E+03  0.00000000000E+00 0.  1.
         24    1    1    2    0    0  0.56429611615E+02  0.74780285125E+01  0.72807793180E+02  0.12250882695E+03  0.80419002446E+02 0.  0.
          1    1    1    2  501    0 -0.41271689082E+02  0.72528375539E+01  0.18307126793E+03  0.18780587081E+03  0.00000000000E+00 0. -1.
         -2    1    1    2    0  503 -0.15157922533E+02 -0.14730866066E+02 -0.11559956779E+03  0.11751604616E+03  0.00000000000E+00 0.  1.
<mgrwt>
<rscale>  2 0.80783591E+02</rscale>
<asrwt>0</asrwt>
<pdfrwt beam="1">  1       21 0.43700787E-01 0.80783591E+02</pdfrwt>
<pdfrwt beam="2">  1       21 0.22119327E-01 0.80783591E+02</pdfrwt>
<totfact> 0.10086233E+05</totfact>
</mgrwt>
</event>
<event>
 5    1  0.1854763E+000  0.8049666E+02  0.7546771E-02  0.1327648E+00
         21   -1    0    0  501  502  0.00000000000E+00  0.00000000000E+00  0.10645061302E+03  0.10645061302E+03  0.00000000000E+00 0. -1.
         21   -1    0    0  502  503 -0.00000000000E+00 -0.00000000000E+00 -0.97350444885E+02  0.97350444885E+02  0.00000000000E+00 0.  1.
         24    1    1    2    0    0  0.26426665742E+02 -0.52610032087E+02  0.54552241570E+02  0.11361930801E+03  0.80419002446E+02 0. -1.
          1    1    1    2  501    0 -0.66810045334E+01  0.32363477796E+02  0.39259690400E+01  0.33278277443E+02  0.00000000000E+00 0. -1.
         -2    1    1    2    0  503 -0.19745661208E+02  0.20246554291E+02 -0.49378042480E+02  0.56903472445E+02  0.00000000000E+00 0.  1.
<mgrwt>
<rscale>  2 0.80496657E+02</rscale>
<asrwt>0</asrwt>
<pdfrwt beam="1">  1       21 0.16377017E-01 0.80496657E+02</pdfrwt>
<pdfrwt beam="2">  1       21 0.14976992E-01 0.80496657E+02</pdfrwt>
<totfact> 0.12976286E+06</totfact>
</mgrwt>
</event>
<event>
 5    1  0.1854763E+000  0.7853920E+02  0.7546771E-02  0.1333249E+00
         21   -1    0    0  501  502  0.00000000000E+00  0.00000000000E+00  0.64883314427E+02  0.64883314427E+02  0.00000000000E+00 0.  1.
         21   -1    0    0  502  503 -0.00000000000E+00 -0.00000000000E+00 -0.35874424814E+03  0.35874424814E+03  0.00000000000E+00 0.  1.
         24    1    1    2    0    0  0.36671587230E+02  0.29300733624E+01  0.22568763154E+01  0.88462987090E+02  0.80419002446E+02 0.  1.
          1    1    1    2  501    0 -0.15437579600E+02  0.27500702108E+02  0.48585309292E+01  0.31909446927E+02  0.00000000000E+00 0. -1.
         -2    1    1    2    0  503 -0.21234007630E+02 -0.30430775471E+02 -0.30097634096E+03  0.30325512855E+03  0.00000000000E+00 0.  1.
<mgrwt>
<rscale>  2 0.78539200E+02</rscale>
<asrwt>0</asrwt>
<pdfrwt beam="1">  1       21 0.99820486E-02 0.78539200E+02</pdfrwt>
<pdfrwt beam="2">  1       21 0.55191422E-01 0.78539200E+02</pdfrwt>
<totfact> 0.25901807E+05</totfact>
</mgrwt>
</event>
<event>
 5    1  0.1854763E+000  0.6954400E+02  0.7546771E-02  0.1361651E+00
         21   -1    0    0  501  502  0.00000000000E+00  0.00000000000E+00  0.96661244869E+02  0.96661244869E+02  0.00000000000E+00 0.  1.
         21   -1    0    0  502  503 -0.00000000000E+00 -0.00000000000E+00 -0.66736719188E+02  0.66736719188E+02  0.00000000000E+00 0.  1.
         24    1    1    2    0    0 -0.18556362932E+02  0.15396154739E+02  0.48395108306E+02  0.96905534663E+02  0.80419002446E+02 0.  0.
          1    1    1    2  501    0  0.49298349564E+01 -0.32721104176E+02  0.59222818336E+01  0.33616176959E+02  0.00000000000E+00 0. -1.
         -2    1    1    2    0  503  0.13626527976E+02  0.17324949437E+02 -0.24392864459E+02  0.32876252435E+02  0.00000000000E+00 0.  1.
<mgrwt>
<rscale>  2 0.69544000E+02</rscale>
<asrwt>0</asrwt>
<pdfrwt beam="1">  1       21 0.14870961E-01 0.69544000E+02</pdfrwt>
<pdfrwt beam="2">  1       21 0.10267188E-01 0.69544000E+02</pdfrwt>
<totfact> 0.29632478E+06</totfact>
</mgrwt>
</event>
<event>
 5    1  0.1854763E+000  0.7190680E+02  0.7546771E-02  0.1353726E+00
         21   -1    0    0  501  502  0.00000000000E+00  0.00000000000E+00  0.60229233338E+02  0.60229233338E+02  0.00000000000E+00 0. -1.
         21   -1    0    0  502  503 -0.00000000000E+00 -0.00000000000E+00 -0.19894012977E+03  0.19894012977E+03  0.00000000000E+00 0.  1.
         24    1    1    2    0    0 -0.33804613454E+02 -0.67760603998E+01 -0.17194069495E+03  0.19292352220E+03  0.80419002446E+02 0.  1.
          1    1    1    2  501    0  0.25283823128E+02  0.25397601406E+02  0.26905429728E+02  0.44813078649E+02  0.00000000000E+00 0. -1.
         -2    1    1    2    0  503  0.85207903263E+01 -0.18621541006E+02  0.63243687900E+01  0.21432762254E+02  0.00000000000E+00 0.  1.
<mgrwt>
<rscale>  2 0.71906795E+02</rscale>
<asrwt>0</asrwt>
<pdfrwt beam="1">  1       21 0.92660358E-02 0.71906795E+02</pdfrwt>
<pdfrwt beam="2">  1       21 0.30606174E-01 0.71906795E+02</pdfrwt>
<totfact> 0.94424188E+05</totfact>
</mgrwt>
</event>
<event>
 5    1  0.1854763E+000  0.7008726E+02  0.7546771E-02  0.1359797E+00
         21   -1    0    0  503  502  0.00000000000E+00  0.00000000000E+00  0.73822947861E+03  0.73822947861E+03  0.00000000000E+00 0.  1.
         21   -1    0    0  501  503 -0.00000000000E+00 -0.00000000000E+00 -0.10589511105E+02  0.10589511105E+02  0.00000000000E+00 0.  1.
         24    1    1    2    0    0  0.39118317925E+02 -0.19961091068E+01  0.20473000785E+03  0.22341848472E+03  0.80419002446E+02 0.  1.
          1    1    1    2  501    0 -0.14354267202E+02  0.16622743635E+02  0.19552518884E+03  0.19675482221E+03  0.00000000000E+00 0. -1.
         -2    1    1    2    0  502 -0.24764050723E+02 -0.14626634528E+02  0.32738477082E+03  0.32864568278E+03  0.00000000000E+00 0.  1.
<mgrwt>
<rscale>  2 0.70087261E+02</rscale>
<asrwt>0</asrwt>
<pdfrwt beam="1">  1       21 0.11357373E+00 0.70087261E+02</pdfrwt>
<pdfrwt beam="2">  1       21 0.16291561E-02 0.70087261E+02</pdfrwt>
<totfact> 0.10417311E+06</totfact>
</mgrwt>
</event>
<event>
 5    1  0.1854763E+000  0.6777694E+02  0.7546771E-02  0.1367820E+00
         21   -1    0    0  501  502  0.00000000000E+00  0.00000000000E+00  0.64999227643E+02  0.64999227643E+02  0.00000000000E+00 0. -1.
         21   -1    0    0  502  503 -0.00000000000E+00 -0.00000000000E+00 -0.20445160636E+03  0.20445160636E+03  0.00000000000E+00 0.  1.
         24    1    1    2    0    0  0.65050507690E+01 -0.59459254017E+01  0.21498100897E+02  0.83708147817E+02  0.80419002446E+02 0. -1.
          1    1    1    2  501    0  0.19126107556E+02  0.18058500209E+02 -0.44289360880E+01  0.26674573941E+02  0.00000000000E+00 0. -1.
         -2    1    1    2    0  503 -0.25631158325E+02 -0.12112574807E+02 -0.15652154353E+03  0.15906811225E+03  0.00000000000E+00 0.  1.
<mgrwt>
<rscale>  2 0.67776939E+02</rscale>
<asrwt>0</asrwt>
<pdfrwt beam="1">  1       21 0.99998811E-02 0.67776939E+02</pdfrwt>
<pdfrwt beam="2">  1       21 0.31454093E-01 0.67776939E+02</pdfrwt>
<totfact> 0.78540915E+05</totfact>
</mgrwt>
</event>
<event>
 5    1  0.1854763E+000  0.9891193E+02  0.7546771E-02  0.1282601E+00
         21   -1    0    0  501  502  0.00000000000E+00  0.00000000000E+00  0.69908736132E+03  0.69908736132E+03  0.00000000000E+00 0. -1.
         21   -1    0    0  502  503 -0.00000000000E+00 -0.00000000000E+00 -0.15089195304E+02  0.15089195304E+02  0.00000000000E+00 0.  1.
         24    1    1    2    0    0 -0.12224641428E+02  0.69503911567E+02  0.30836120507E+03  0.32639559484E+03  0.80419002446E+02 0.  1.
          1    1    1    2  501    0 -0.12755036543E+02 -0.63991649626E+02  0.31943542998E+03  0.32603161826E+03  0.00000000000E+00 0. -1.
         -2    1    1    2    0  503  0.24979677970E+02 -0.55122619416E+01  0.56201530973E+02  0.61749343534E+02  0.00000000000E+00 0.  1.
<mgrwt>
<rscale>  2 0.98911933E+02</rscale>
<asrwt>0</asrwt>
<pdfrwt beam="1">  1       21 0.10755188E+00 0.98911933E+02</pdfrwt>
<pdfrwt beam="2">  1       21 0.23214152E-02 0.98911933E+02</pdfrwt>
<totfact> 0.67397668E+05</totfact>
</mgrwt>
</event>
<event>
 5    1  0.1854763E+000  0.6654149E+02  0.7546771E-02  0.1372265E+00
         21   -1    0    0  501  502  0.00000000000E+00  0.00000000000E+00  0.25679603403E+02  0.25679603403E+02  0.00000000000E+00 0. -1.
         21   -1    0    0  502  503 -0.00000000000E+00 -0.00000000000E+00 -0.31343173655E+03  0.31343173655E+03  0.00000000000E+00 0. -1.
         24    1    1    2    0    0 -0.59150396289E+01  0.40899850264E+02 -0.10643904386E+03  0.13965769387E+03  0.80419002446E+02 0. -1.
          1    1    1    2  501    0 -0.22070521078E+01 -0.21810310085E+02 -0.57421045084E+01  0.22661254802E+02  0.00000000000E+00 0. -1.
         -2    1    1    2    0  503  0.81220917367E+01 -0.19089540179E+02 -0.17557098478E+03  0.17679239128E+03  0.00000000000E+00 0.  1.
<mgrwt>
<rscale>  2 0.66541493E+02</rscale>
<asrwt>0</asrwt>
<pdfrwt beam="1">  1       21 0.39507082E-02 0.66541493E+02</pdfrwt>
<pdfrwt beam="2">  1       21 0.48220267E-01 0.66541493E+02</pdfrwt>
<totfact> 0.16084967E+06</totfact>
</mgrwt>
</event>
<event>
 5    1  0.1854763E+000  0.7451657E+02  0.7546771E-02  0.1345375E+00
         21   -1    0    0  501  502  0.00000000000E+00  0.00000000000E+00  0.21528053347E+04  0.21528053347E+04  0.00000000000E+00 0. -1.
         21   -1    0    0  502  503 -0.00000000000E+00 -0.00000000000E+00 -0.96965901989E+01  0.96965901989E+01  0.00000000000E+00 0.  1.
         24    1    1    2    0    0  0.10855877348E+01 -0.51067249037E+02  0.37743670516E+03  0.38927461358E+03  0.80419002446E+02 0. -1.
          1    1    1    2  501    0 -0.88594359893E+01  0.31075976422E+02  0.17375906333E+04  0.17378910826E+04  0.00000000000E+00 0. -1.
         -2    1    1    2    0  503  0.77738482545E+01  0.19991272616E+02  0.28081406061E+02  0.35336228772E+02  0.00000000000E+00 0.  1.
<mgrwt>
<rscale>  2 0.74516568E+02</rscale>
<asrwt>0</asrwt>
<pdfrwt beam="1">  1       21 0.33120044E+00 0.74516568E+02</pdfrwt>
<pdfrwt beam="2">  1       21 0.14917848E-02 0.74516568E+02</pdfrwt>
<totfact> 0.52817173E+04</totfact>
</mgrwt>
</event>
<event>
 5    1  0.1854763E+000  0.9424039E+02  0.7546771E-02  0.1292896E+00
         21   -1    0    0  501  502  0.00000000000E+00  0.00000000000E+00  0.90908412896E+03  0.90908412896E+03  0.00000000000E+00 0. -1.
         21   -1    0    0  502  503 -0.00000000000E+00 -0.00000000000E+00 -0.50190951777E+02  0.50190951777E+02  0.00000000000E+00 0.  1.
         24    1    1    2    0    0  0.94755368108E+01 -0.35012982966E+02  0.99842002519E+02  0.13323414050E+03  0.80419002446E+02 0.  0.
          1    1    1    2  501    0  0.10970536978E+00  0.66932361897E+02  0.78245765850E+03  0.78531518542E+03  0.00000000000E+00 0. -1.
         -2    1    1    2    0  503 -0.95852421806E+01 -0.31919378931E+02 -0.23406483842E+02  0.40725754810E+02  0.00000000000E+00 0.  1.
<mgrwt>
<rscale>  2 0.94240389E+02</rscale>
<asrwt>0</asrwt>
<pdfrwt beam="1">  1       21 0.13985908E+00 0.94240389E+02</pdfrwt>
<pdfrwt beam="2">  1       21 0.77216855E-02 0.94240389E+02</pdfrwt>
<totfact> 0.48827323E+04</totfact>
</mgrwt>
</event>
<event>
 5    1  0.1854763E+000  0.7955977E+02  0.7546771E-02  0.1330305E+00
         21   -1    0    0  503  502  0.00000000000E+00  0.00000000000E+00  0.32111777090E+03  0.32111777090E+03  0.00000000000E+00 0. -1.
         21   -1    0    0  501  503 -0.00000000000E+00 -0.00000000000E+00 -0.32325144003E+02  0.32325144003E+02  0.00000000000E+00 0.  1.
         24    1    1    2    0    0 -0.37270214132E+02 -0.15667936136E+02  0.23572644347E+03  0.25232662402E+03  0.80419002446E+02 0.  0.
          1    1    1    2  501    0  0.16587120876E+02  0.36290884607E+02 -0.72325828793E+00  0.39908445060E+02  0.00000000000E+00 0. -1.
         -2    1    1    2    0  502  0.20683093255E+02 -0.20622948472E+02  0.53789441715E+02  0.61207845823E+02  0.00000000000E+00 0.  1.
<mgrwt>
<rscale>  2 0.79559766E+02</rscale>
<asrwt>0</asrwt>
<pdfrwt beam="1">  1       21 0.49402732E-01 0.79559766E+02</pdfrwt>
<pdfrwt beam="2">  1       21 0.49730993E-02 0.79559766E+02</pdfrwt>
<totfact> 0.10549092E+06</totfact>
</mgrwt>
</event>
<event>
 5    1  0.1854763E+000  0.1385248E+03  0.7546771E-02  0.1215328E+00
         21   -1    0    0  503  502  0.00000000000E+00  0.00000000000E+00  0.26190659419E+03  0.26190659419E+03  0.00000000000E+00 0. -1.
         21   -1    0    0  501  503 -0.00000000000E+00 -0.00000000000E+00 -0.19171234655E+03  0.19171234655E+03  0.00000000000E+00 0.  1.
         24    1    1    2    0    0  0.48027450403E+01  0.50050901054E+02 -0.36047428442E+02  0.10146325496E+03  0.80419002446E+02 0.  1.
          1    1    1    2  501    0  0.18805831064E+02 -0.11321884949E+03 -0.89231764991E+02  0.14537701003E+03  0.00000000000E+00 0. -1.
         -2    1    1    2    0  502 -0.23608576104E+02  0.63167948433E+02  0.19547344108E+03  0.20677867575E+03  0.00000000000E+00 0.  1.
<mgrwt>
<rscale>  2 0.13852479E+03</rscale>
<asrwt>0</asrwt>
<pdfrwt beam="1">  1       21 0.40293322E-01 0.13852479E+03</pdfrwt>
<pdfrwt beam="2">  1       21 0.29494207E-01 0.13852479E+03</pdfrwt>
<totfact> 0.66972750E+04</totfact>
</mgrwt>
</event>
<event>
 5    1  0.1854763E+000  0.1477530E+03  0.7546771E-02  0.1203262E+00
         21   -1    0    0  503  502  0.00000000000E+00  0.00000000000E+00  0.60384482666E+03  0.60384482666E+03  0.00000000000E+00 0.  1.
         21   -1    0    0  501  503 -0.00000000000E+00 -0.00000000000E+00 -0.76360880482E+02  0.76360880482E+02  0.00000000000E+00 0. -1.
         24    1    1    2    0    0 -0.51554397334E+02 -0.20061964128E+02  0.61596474422E+02  0.11541958198E+03  0.80419002446E+02 0.  1.
          1    1    1    2  501    0 -0.69560533362E+02  0.31267119369E+02 -0.69257125258E+01  0.76578495998E+02  0.00000000000E+00 0. -1.
         -2    1    1    2    0  502  0.12111493070E+03 -0.11205155241E+02  0.47281318428E+03  0.48820762916E+03  0.00000000000E+00 0.  1.
<mgrwt>
<rscale>  2 0.14775301E+03</rscale>
<asrwt>0</asrwt>
<pdfrwt beam="1">  1       21 0.92899201E-01 0.14775301E+03</pdfrwt>
<pdfrwt beam="2">  1       21 0.11747828E-01 0.14775301E+03</pdfrwt>
<totfact> 0.60801098E+04</totfact>
</mgrwt>
</event>
<event>
 5    1  0.1854763E+000  0.7206257E+02  0.7546771E-02  0.1353216E+00
         21   -1    0    0  503  502  0.00000000000E+00  0.00000000000E+00  0.11285019612E+03  0.11285019612E+03  0.00000000000E+00 0. -1.
         21   -1    0    0  501  503 -0.00000000000E+00 -0.00000000000E+00 -0.48814112584E+02  0.48814112584E+02  0.00000000000E+00 0.  1.
         24    1    1    2    0    0  0.30030276650E+02 -0.35536107047E+02  0.31724173628E+02  0.98174699218E+02  0.80419002446E+02 0.  0.
          1    1    1    2  501    0 -0.26313124593E+02  0.14879085468E+02  0.77985527697E+01  0.31218346137E+02  0.00000000000E+00 0. -1.
         -2    1    1    2    0  502 -0.37171520571E+01  0.20657021579E+02  0.24513357137E+02  0.32271263348E+02  0.00000000000E+00 0.  1.
<mgrwt>
<rscale>  2 0.72062566E+02</rscale>
<asrwt>0</asrwt>
<pdfrwt beam="1">  1       21 0.17361569E-01 0.72062566E+02</pdfrwt>
<pdfrwt beam="2">  1       21 0.75098635E-02 0.72062566E+02</pdfrwt>
<totfact> 0.38430306E+06</totfact>
</mgrwt>
</event>
<event>
 5    1  0.1854763E+000  0.6958030E+02  0.7546771E-02  0.1361526E+00
         21   -1    0    0  501  502  0.00000000000E+00  0.00000000000E+00  0.11107058675E+02  0.11107058675E+02  0.00000000000E+00 0.  1.
         21   -1    0    0  502  503 -0.00000000000E+00 -0.00000000000E+00 -0.45200738807E+03  0.45200738807E+03  0.00000000000E+00 0.  1.
         24    1    1    2    0    0  0.17125177455E+01 -0.24039927997E+02 -0.23692012909E+03  0.25135475802E+03  0.80419002446E+02 0.  1.
          1    1    1    2  501    0 -0.20628925193E+02 -0.43600791782E+01 -0.54553325012E+02  0.58486136091E+02  0.00000000000E+00 0. -1.
         -2    1    1    2    0  503  0.18916407447E+02  0.28400007175E+02 -0.14942687529E+03  0.15327355264E+03  0.00000000000E+00 0.  1.
<mgrwt>
<rscale>  2 0.69580298E+02</rscale>
<asrwt>0</asrwt>
<pdfrwt beam="1">  1       21 0.17087785E-02 0.69580298E+02</pdfrwt>
<pdfrwt beam="2">  1       21 0.69539588E-01 0.69580298E+02</pdfrwt>
<totfact> 0.28969688E+06</totfact>
</mgrwt>
</event>
<event>
 5    1  0.1854763E+000  0.8126707E+02  0.7546771E-02  0.1325494E+00
         21   -1    0    0  501  502  0.00000000000E+00  0.00000000000E+00  0.91464186528E+03  0.91464186528E+03  0.00000000000E+00 0. -1.
         21   -1    0    0  502  503 -0.00000000000E+00 -0.00000000000E+00 -0.15607300133E+02  0.15607300133E+02  0.00000000000E+00 0. -1.
         24    1    1    2    0    0  0.33901288404E+02 -0.32211082733E+02  0.43038286513E+03  0.44032201598E+03  0.80419002446E+02 0. -1.
          1    1    1    2  501    0 -0.44441668986E+02  0.10941321335E+02  0.46334887723E+03  0.46560386219E+03  0.00000000000E+00 0. -1.
         -2    1    1    2    0  503  0.10540380582E+02  0.21269761398E+02  0.53028227850E+01  0.24323287241E+02  0.00000000000E+00 0.  1.
<mgrwt>
<rscale>  2 0.81267075E+02</rscale>
<asrwt>0</asrwt>
<pdfrwt beam="1">  1       21 0.14071409E+00 0.81267075E+02</pdfrwt>
<pdfrwt beam="2">  1       21 0.24011238E-02 0.81267075E+02</pdfrwt>
<totfact> 0.33416682E+05</totfact>
</mgrwt>
</event>
<event>
 5    1  0.1854763E+000  0.9336317E+02  0.7546771E-02  0.1294906E+00
         21   -1    0    0  501  502  0.00000000000E+00  0.00000000000E+00  0.14250017259E+03  0.14250017259E+03  0.00000000000E+00 0. -1.
         21   -1    0    0  502  503 -0.00000000000E+00 -0.00000000000E+00 -0.10546241534E+03  0.10546241534E+03  0.00000000000E+00 0.  1.
         24    1    1    2    0    0  0.75308196777E+02  0.99024839875E+01  0.97221488533E+02  0.14727055876E+03  0.80419002446E+02 0. -1.
          1    1    1    2  501    0 -0.51885547096E+02 -0.45792279078E+01 -0.24216083001E+02  0.57441256964E+02  0.00000000000E+00 0. -1.
         -2    1    1    2    0  503 -0.23422649682E+02 -0.53232560797E+01 -0.35967648284E+02  0.43250772207E+02  0.00000000000E+00 0.  1.
<mgrwt>
<rscale>  2 0.93363167E+02</rscale>
<asrwt>0</asrwt>
<pdfrwt beam="1">  1       21 0.21923103E-01 0.93363167E+02</pdfrwt>
<pdfrwt beam="2">  1       21 0.16224987E-01 0.93363167E+02</pdfrwt>
<totfact> 0.66332728E+05</totfact>
</mgrwt>
</event>
<event>
 5    1  0.1854763E+000  0.1148895E+03  0.7546771E-02  0.1251774E+00
         21   -1    0    0  501  502  0.00000000000E+00  0.00000000000E+00  0.15552603716E+02  0.15552603716E+02  0.00000000000E+00 0.  1.
         21   -1    0    0  502  503 -0.00000000000E+00 -0.00000000000E+00 -0.96147243792E+03  0.96147243792E+03  0.00000000000E+00 0. -1.
         24    1    1    2    0    0  0.76131222625E+01 -0.63922631757E+02 -0.30460538649E+03  0.32155204853E+03  0.80419002446E+02 0.  1.
          1    1    1    2  501    0 -0.20836879535E+02  0.92744935795E+02 -0.35857075457E+03  0.37095658061E+03  0.00000000000E+00 0. -1.
         -2    1    1    2    0  503  0.13223757272E+02 -0.28822304038E+02 -0.28274369314E+03  0.28451641249E+03  0.00000000000E+00 0.  1.
<mgrwt>
<rscale>  2 0.11488948E+03</rscale>
<asrwt>0</asrwt>
<pdfrwt beam="1">  1       21 0.23927072E-02 0.11488948E+03</pdfrwt>
<pdfrwt beam="2">  1       21 0.14791890E+00 0.11488948E+03</pdfrwt>
<totfact> 0.29251829E+05</totfact>
</mgrwt>
</event>
<event>
 5    1  0.1854763E+000  0.6768369E+02  0.7546771E-02  0.1368152E+00
         21   -1    0    0  503  502  0.00000000000E+00  0.00000000000E+00  0.94613935231E+02  0.94613935231E+02  0.00000000000E+00 0.  1.
         21   -1    0    0  501  503 -0.00000000000E+00 -0.00000000000E+00 -0.27275154531E+03  0.27275154531E+03  0.00000000000E+00 0. -1.
         24    1    1    2    0    0 -0.26918546507E+01 -0.58124328674E+01 -0.17482764036E+03  0.19254337238E+03  0.80419002446E+02 0.  0.
          1    1    1    2  501    0  0.28448354283E+02  0.83479120972E+00 -0.84676374025E+02  0.89331372182E+02  0.00000000000E+00 0. -1.
         -2    1    1    2    0  502 -0.25756499632E+02  0.49776416577E+01  0.81366404306E+02  0.85490735986E+02  0.00000000000E+00 0.  1.
<mgrwt>
<rscale>  2 0.67683689E+02</rscale>
<asrwt>0</asrwt>
<pdfrwt beam="1">  1       21 0.14555990E-01 0.67683689E+02</pdfrwt>
<pdfrwt beam="2">  1       21 0.41961775E-01 0.67683689E+02</pdfrwt>
<totfact> 0.23370538E+05</totfact>
</mgrwt>
</event>
<event>
 5    1  0.2822331E+000  0.1289684E+03  0.7546771E-02  0.1228995E+00
         21   -1    0    0  503  502  0.00000000000E+00  0.00000000000E+00  0.46250023289E+03  0.46250023289E+03  0.00000000000E+00 0.  1.
         21   -1    0    0  501  503 -0.00000000000E+00 -0.00000000000E+00 -0.96251535692E+02  0.96251535692E+02  0.00000000000E+00 0. -1.
         24    1    1    2    0    0  0.20660952313E+02  0.27221997700E+02  0.19477479964E+03  0.21347681522E+03  0.80419002446E+02 0.  1.
          1    1    1    2  501    0 -0.34554901442E+01  0.70876982352E+02 -0.60227699538E+02  0.93074501509E+02  0.00000000000E+00 0. -1.
         -2    1    1    2    0  502 -0.17205462168E+02 -0.98098980053E+02  0.23170159710E+03  0.25220045185E+03  0.00000000000E+00 0.  1.
<mgrwt>
<rscale>  2 0.12896838E+03</rscale>
<asrwt>0</asrwt>
<pdfrwt beam="1">  1       21 0.71153881E-01 0.12896838E+03</pdfrwt>
<pdfrwt beam="2">  1       21 0.14807929E-01 0.12896838E+03</pdfrwt>
<totfact> 0.73848258E+04</totfact>
</mgrwt>
</event>
<event>
 5    1  0.1854763E+000  0.7225201E+02  0.7546771E-02  0.1352598E+00
         21   -1    0    0  503  502  0.00000000000E+00  0.00000000000E+00  0.23325423914E+02  0.23325423914E+02  0.00000000000E+00 0. -1.
         21   -1    0    0  501  503 -0.00000000000E+00 -0.00000000000E+00 -0.30760603306E+03  0.30760603306E+03  0.00000000000E+00 0.  1.
         24    1    1    2    0    0 -0.13653862920E+02 -0.15044508494E+02 -0.19866237392E+03  0.21528288360E+03  0.80419002446E+02 0.  1.
          1    1    1    2  501    0  0.29212464887E+02  0.28630247342E+02 -0.85735610831E+02  0.94992916221E+02  0.00000000000E+00 0. -1.
         -2    1    1    2    0  502 -0.15558601967E+02 -0.13585738848E+02  0.11737560189E+00  0.20655657149E+02  0.00000000000E+00 0.  1.
<mgrwt>
<rscale>  2 0.72252011E+02</rscale>
<asrwt>0</asrwt>
<pdfrwt beam="1">  1       21 0.35885268E-02 0.72252011E+02</pdfrwt>
<pdfrwt beam="2">  1       21 0.47324004E-01 0.72252011E+02</pdfrwt>
<totfact> 0.19606824E+06</totfact>
</mgrwt>
</event>
<event>
 5    1  0.1854763E+000  0.6733025E+02  0.7546771E-02  0.1369414E+00
         21   -1    0    0  501  502  0.00000000000E+00  0.00000000000E+00  0.48841739945E+02  0.48841739945E+02  0.00000000000E+00 0.  1.
         21   -1    0    0  502  503 -0.00000000000E+00 -0.00000000000E+00 -0.28491695512E+03  0.28491695512E+03  0.00000000000E+00 0.  1.
         24    1    1    2    0    0 -0.11684699085E+02  0.45479582053E+01 -0.82868348946E+02  0.11615332681E+03  0.80419002446E+02 0.  1.
          1    1    1    2  501    0 -0.15435543604E+02 -0.17398943051E+02  0.26586500528E+02  0.35324513244E+02  0.00000000000E+00 0. -1.
         -2    1    1    2    0  503  0.27120242689E+02  0.12850984845E+02 -0.17979336676E+03  0.18228085501E+03  0.00000000000E+00 0.  1.
<mgrwt>
<rscale>  2 0.67330248E+02</rscale>
<asrwt>0</asrwt>
<pdfrwt beam="1">  1       21 0.75141138E-02 0.67330248E+02</pdfrwt>
<pdfrwt beam="2">  1       21 0.43833378E-01 0.67330248E+02</pdfrwt>
<totfact> 0.67040937E+05</totfact>
</mgrwt>
</event>
<event>
 5    1  0.1854763E+000  0.9290405E+02  0.7546771E-02  0.1295968E+00
         21   -1    0    0  503  502  0.00000000000E+00  0.00000000000E+00  0.23633844497E+02  0.23633844497E+02  0.00000000000E+00 0.  1.
         21   -1    0    0  501  503 -0.00000000000E+00 -0.00000000000E+00 -0.46024749207E+03  0.46024749207E+03  0.00000000000E+00 0.  1.
         24    1    1    2    0    0  0.24615411980E+02 -0.61302669864E+02 -0.34839893804E+03  0.36361101719E+03  0.80419002446E+02 0.  1.
          1    1    1    2  501    0 -0.24308845129E+02  0.42449105569E+01 -0.27698542283E+02  0.37096475058E+02  0.00000000000E+00 0. -1.
         -2    1    1    2    0  502 -0.30656685125E+00  0.57057759307E+02 -0.60516167247E+02  0.83173844318E+02  0.00000000000E+00 0.  1.
<mgrwt>
<rscale>  2 0.92904048E+02</rscale>
<asrwt>0</asrwt>
<pdfrwt beam="1">  1       21 0.36359762E-02 0.92904048E+02</pdfrwt>
<pdfrwt beam="2">  1       21 0.70807303E-01 0.92904048E+02</pdfrwt>
<totfact> 0.83390603E+05</totfact>
</mgrwt>
</event>
<event>
 5    1  0.1854763E+000  0.1123239E+03  0.7546771E-02  0.1256326E+00
         21   -1    0    0  503  502  0.00000000000E+00  0.00000000000E+00  0.76777921176E+03  0.76777921176E+03  0.00000000000E+00 0.  1.
         21   -1    0    0  501  503 -0.00000000000E+00 -0.00000000000E+00 -0.26928013309E+02  0.26928013309E+02  0.00000000000E+00 0.  1.
         24    1    1    2    0    0 -0.49258779034E+02  0.78101065143E+02  0.19506197722E+03  0.23030977964E+03  0.80419002446E+02 0.  1.
          1    1    1    2  501    0  0.27180778126E+02 -0.74549606401E+01  0.22953805460E+02  0.36348979666E+02  0.00000000000E+00 0. -1.
         -2    1    1    2    0  502  0.22078000907E+02 -0.70646104503E+02  0.52283541578E+03  0.52804846576E+03  0.00000000000E+00 0.  1.
<mgrwt>
<rscale>  2 0.11232391E+03</rscale>
<asrwt>0</asrwt>
<pdfrwt beam="1">  1       21 0.11811986E+00 0.11232391E+03</pdfrwt>
<pdfrwt beam="2">  1       21 0.41427719E-02 0.11232391E+03</pdfrwt>
<totfact> 0.20855277E+05</totfact>
</mgrwt>
</event>
<event>
 5    1  0.1854763E+000  0.6491864E+02  0.7546771E-02  0.1378278E+00
         21   -1    0    0  501  502  0.00000000000E+00  0.00000000000E+00  0.69700891496E+03  0.69700891496E+03  0.00000000000E+00 0.  1.
         21   -1    0    0  502  503 -0.00000000000E+00 -0.00000000000E+00 -0.10822078573E+02  0.10822078573E+02  0.00000000000E+00 0. -1.
         24    1    1    2    0    0  0.22033278086E+02  0.80419730364E+01  0.60276086277E+03  0.60855403401E+03  0.80419002446E+02 0.  1.
          1    1    1    2  501    0 -0.52935527768E+00 -0.20970044885E+02  0.64566429281E+02  0.67888487902E+02  0.00000000000E+00 0. -1.
         -2    1    1    2    0  503 -0.21503922809E+02  0.12928071848E+02  0.18859544338E+02  0.31388471618E+02  0.00000000000E+00 0.  1.
<mgrwt>
<rscale>  2 0.64918643E+02</rscale>
<asrwt>0</asrwt>
<pdfrwt beam="1">  1       21 0.10723211E+00 0.64918643E+02</pdfrwt>
<pdfrwt beam="2">  1       21 0.16649357E-02 0.64918643E+02</pdfrwt>
<totfact> 0.11495651E+06</totfact>
</mgrwt>
</event>
<event>
 5    1  0.1962885E+000  0.2052632E+03  0.7546771E-02  0.1145373E+00
         21   -1    0    0  501  502  0.00000000000E+00  0.00000000000E+00  0.25691871266E+03  0.25691871266E+03  0.00000000000E+00 0. -1.
         21   -1    0    0  502  503 -0.00000000000E+00 -0.00000000000E+00 -0.60291469176E+03  0.60291469176E+03  0.00000000000E+00 0.  1.
         24    1    1    2    0    0 -0.49154391453E+02  0.12002144087E+03  0.73377273462E+02  0.16933027102E+03  0.80419002446E+02 0. -1.
          1    1    1    2  501    0  0.12676750298E+03 -0.15466973797E+02  0.95470162671E+02  0.15944835857E+03  0.00000000000E+00 0. -1.
         -2    1    1    2    0  503 -0.77613111524E+02 -0.10455446708E+03 -0.51484341523E+03  0.53105477483E+03  0.00000000000E+00 0.  1.
<mgrwt>
<rscale>  2 0.20526318E+03</rscale>
<asrwt>0</asrwt>
<pdfrwt beam="1">  1       21 0.39525957E-01 0.20526318E+03</pdfrwt>
<pdfrwt beam="2">  1       21 0.92756104E-01 0.20526318E+03</pdfrwt>
<totfact> 0.59862483E+03</totfact>
</mgrwt>
</event>
<event>
 5    1  0.2643034E+000  0.1007032E+03  0.7546771E-02  0.1278824E+00
         21   -1    0    0  501  502  0.00000000000E+00  0.00000000000E+00  0.14093242685E+03  0.14093242685E+03  0.00000000000E+00 0.  1.
         21   -1    0    0  502  503 -0.00000000000E+00 -0.00000000000E+00 -0.77684220038E+03  0.77684220038E+03  0.00000000000E+00 0.  1.
         24    1    1    2    0    0 -0.17235063781E+02  0.10084317611E+02  0.10242446876E+03  0.13174493781E+03  0.80419002446E+02 0.  1.
          1    1    1    2  501    0 -0.42345290042E+02  0.25223919430E+02 -0.51222477121E+01  0.49554082796E+02  0.00000000000E+00 0. -1.
         -2    1    1    2    0  503  0.59580353823E+02 -0.35308237041E+02 -0.73321199457E+03  0.73647560662E+03  0.00000000000E+00 0.  1.
<mgrwt>
<rscale>  2 0.10070320E+03</rscale>
<asrwt>0</asrwt>
<pdfrwt beam="1">  1       21 0.21681912E-01 0.10070320E+03</pdfrwt>
<pdfrwt beam="2">  1       21 0.11951418E+00 0.10070320E+03</pdfrwt>
<totfact> 0.11462455E+04</totfact>
</mgrwt>
</event>
<event>
 5    1  0.1854763E+000  0.8291240E+02  0.7546771E-02  0.1320984E+00
         21   -1    0    0  503  502  0.00000000000E+00  0.00000000000E+00  0.27467797752E+02  0.27467797752E+02  0.00000000000E+00 0.  1.
         21   -1    0    0  501  503 -0.00000000000E+00 -0.00000000000E+00 -0.53631248179E+03  0.53631248179E+03  0.00000000000E+00 0. -1.
         24    1    1    2    0    0  0.21860164160E+02 -0.25836038486E+02 -0.15507232714E+03  0.17793260033E+03  0.80419002446E+02 0. -1.
          1    1    1    2  501    0  0.24657899510E+02 -0.13504733521E+01 -0.32271340558E+03  0.32365688303E+03  0.00000000000E+00 0. -1.
         -2    1    1    2    0  502 -0.46518063670E+02  0.27186511838E+02 -0.31058951316E+02  0.62190796187E+02  0.00000000000E+00 0.  1.
<mgrwt>
<rscale>  2 0.82912405E+02</rscale>
<asrwt>0</asrwt>
<pdfrwt beam="1">  1       21 0.42258154E-02 0.82912405E+02</pdfrwt>
<pdfrwt beam="2">  1       21 0.82509606E-01 0.82912405E+02</pdfrwt>
<totfact> 0.46594773E+05</totfact>
</mgrwt>
</event>
<event>
 5    1  0.1854763E+000  0.7832880E+02  0.7546771E-02  0.1333862E+00
         21   -1    0    0  501  502  0.00000000000E+00  0.00000000000E+00  0.94445819921E+03  0.94445819921E+03  0.00000000000E+00 0. -1.
         21   -1    0    0  502  503 -0.00000000000E+00 -0.00000000000E+00 -0.76295977274E+02  0.76295977274E+02  0.00000000000E+00 0. -1.
         24    1    1    2    0    0  0.45555372923E+02 -0.30653699157E+02  0.30220587783E+02  0.10195803624E+03  0.80419002446E+02 0. -1.
          1    1    1    2  501    0 -0.25945119737E+02  0.40936080824E+01  0.87139733934E+03  0.87179311186E+03  0.00000000000E+00 0. -1.
         -2    1    1    2    0  503 -0.19610253186E+02  0.26560091074E+02 -0.33455705189E+02  0.47003028387E+02  0.00000000000E+00 0.  1.
<mgrwt>
<rscale>  2 0.78328801E+02</rscale>
<asrwt>0</asrwt>
<pdfrwt beam="1">  1       21 0.14530125E+00 0.78328801E+02</pdfrwt>
<pdfrwt beam="2">  1       21 0.11737843E-01 0.78328801E+02</pdfrwt>
<totfact> 0.21917011E+04</totfact>
</mgrwt>
</event>
<event>
 5    1  0.1854763E+000  0.9954365E+02  0.7546771E-02  0.1281259E+00
         21   -1    0    0  501  502  0.00000000000E+00  0.00000000000E+00  0.26481884574E+03  0.26481884574E+03  0.00000000000E+00 0. -1.
         21   -1    0    0  502  503 -0.00000000000E+00 -0.00000000000E+00 -0.92757027297E+02  0.92757027297E+02  0.00000000000E+00 0. -1.
         24    1    1    2    0    0  0.54333039574E+02 -0.63079319666E+02 -0.40373114333E+02  0.12258990201E+03  0.80419002446E+02 0. -1.
          1    1    1    2  501    0 -0.34650977568E+02  0.42926716802E+02  0.19308395562E+03  0.20081037617E+03  0.00000000000E+00 0. -1.
         -2    1    1    2    0  503 -0.19682062005E+02  0.20152602864E+02  0.19350977162E+02  0.34175594861E+02  0.00000000000E+00 0.  1.
<mgrwt>
<rscale>  2 0.99543646E+02</rscale>
<asrwt>0</asrwt>
<pdfrwt beam="1">  1       21 0.40741361E-01 0.99543646E+02</pdfrwt>
<pdfrwt beam="2">  1       21 0.14270312E-01 0.99543646E+02</pdfrwt>
<totfact> 0.25475236E+05</totfact>
</mgrwt>
</event>
<event>
 5    1  0.1854763E+000  0.1002555E+03  0.7546771E-02  0.1279760E+00
         21   -1    0    0  503  502  0.00000000000E+00  0.00000000000E+00  0.84647245625E+02  0.84647245625E+02  0.00000000000E+00 0.  1.
         21   -1    0    0  501  503 -0.00000000000E+00 -0.00000000000E+00 -0.37179106984E+03  0.37179106984E+03  0.00000000000E+00 0.  1.
         24    1    1    2    0    0 -0.10697606435E+02 -0.81786920834E+02 -0.15715833638E+03  0.19485763483E+03  0.80419002446E+02 0.  1.
          1    1    1    2  501    0  0.12533146369E+02  0.20705945732E+02 -0.18061115601E+03  0.18222569967E+03  0.00000000000E+00 0. -1.
         -2    1    1    2    0  502 -0.18355399340E+01  0.61080975103E+02  0.50625668171E+02  0.79354980966E+02  0.00000000000E+00 0.  1.
<mgrwt>
<rscale>  2 0.10025547E+03</rscale>
<asrwt>0</asrwt>
<pdfrwt beam="1">  1       21 0.13022653E-01 0.10025547E+03</pdfrwt>
<pdfrwt beam="2">  1       21 0.57198625E-01 0.10025547E+03</pdfrwt>
<totfact> 0.15006230E+05</totfact>
</mgrwt>
</event>
<event>
 5    1  0.1854763E+000  0.1053766E+03  0.7546771E-02  0.1269379E+00
         21   -1    0    0  503  502  0.00000000000E+00  0.00000000000E+00  0.30095110455E+03  0.30095110455E+03  0.00000000000E+00 0. -1.
         21   -1    0    0  501  503 -0.00000000000E+00 -0.00000000000E+00 -0.90271566191E+02  0.90271566191E+02  0.00000000000E+00 0. -1.
         24    1    1    2    0    0 -0.23596981489E+02 -0.55104769893E+02  0.94660890991E+02  0.13791756030E+03  0.80419002446E+02 0.  0.
          1    1    1    2  501    0 -0.35130717689E+02  0.10380931503E+02 -0.55543567154E+02  0.66535846853E+02  0.00000000000E+00 0. -1.
         -2    1    1    2    0  502  0.58727699178E+02  0.44723838390E+02  0.17156221452E+03  0.18676926359E+03  0.00000000000E+00 0.  1.
<mgrwt>
<rscale>  2 0.10537661E+03</rscale>
<asrwt>0</asrwt>
<pdfrwt beam="1">  1       21 0.46300170E-01 0.10537661E+03</pdfrwt>
<pdfrwt beam="2">  1       21 0.13887933E-01 0.10537661E+03</pdfrwt>
<totfact> 0.20649681E+05</totfact>
</mgrwt>
</event>
<event>
 5    1  0.1854763E+000  0.8013761E+02  0.7546771E-02  0.1328661E+00
         21   -1    0    0  503  502  0.00000000000E+00  0.00000000000E+00  0.53062614282E+02  0.53062614282E+02  0.00000000000E+00 0.  1.
         21   -1    0    0  501  503 -0.00000000000E+00 -0.00000000000E+00 -0.11082210868E+04  0.11082210868E+04  0.00000000000E+00 0. -1.
         24    1    1    2    0    0  0.42356922053E+02  0.40583143460E+02 -0.19818338149E+03  0.22177684513E+03  0.80419002446E+02 0.  0.
          1    1    1    2  501    0 -0.12477991698E+02 -0.22725956642E+02 -0.89067825490E+03  0.89105551069E+03  0.00000000000E+00 0. -1.
         -2    1    1    2    0  502 -0.29878930355E+02 -0.17857186818E+02  0.33703163892E+02  0.48451345250E+02  0.00000000000E+00 0.  1.
<mgrwt>
<rscale>  2 0.80137613E+02</rscale>
<asrwt>0</asrwt>
<pdfrwt beam="1">  1       21 0.81634791E-02 0.80137613E+02</pdfrwt>
<pdfrwt beam="2">  1       21 0.17049555E+00 0.80137613E+02</pdfrwt>
<totfact> 0.27093756E+04</totfact>
</mgrwt>
</event>
<event>
 5    1  0.1854763E+000  0.7682421E+02  0.7546771E-02  0.1338313E+00
         21   -1    0    0  503  502  0.00000000000E+00  0.00000000000E+00  0.49512873210E+03  0.49512873210E+03  0.00000000000E+00 0.  1.
         21   -1    0    0  501  503 -0.00000000000E+00 -0.00000000000E+00 -0.13966347691E+02  0.13966347691E+02  0.00000000000E+00 0.  1.
         24    1    1    2    0    0  0.32733923748E+02 -0.43397276908E+02  0.20161284412E+03  0.22376279466E+03  0.80419002446E+02 0.  1.
          1    1    1    2  501    0 -0.12356140260E+02  0.29310236928E+02  0.17680058135E+03  0.17963910976E+03  0.00000000000E+00 0. -1.
         -2    1    1    2    0  502 -0.20377783489E+02  0.14087039980E+02  0.10274895895E+03  0.10569317537E+03  0.00000000000E+00 0.  1.
<mgrwt>
<rscale>  2 0.76824213E+02</rscale>
<asrwt>0</asrwt>
<pdfrwt beam="1">  1       21 0.76173638E-01 0.76824213E+02</pdfrwt>
<pdfrwt beam="2">  1       21 0.21486693E-02 0.76824213E+02</pdfrwt>
<totfact> 0.16609455E+06</totfact>
</mgrwt>
</event>
<event>
 5    1  0.1854763E+000  0.8212086E+02  0.7546771E-02  0.1323138E+00
         21   -1    0    0  503  502  0.00000000000E+00  0.00000000000E+00  0.59061393142E+03  0.59061393142E+03  0.00000000000E+00 0.  1.
         21   -1    0    0  501  503 -0.00000000000E+00 -0.00000000000E+00 -0.99525156488E+02  0.99525156488E+02  0.00000000000E+00 0. -1.
         24    1    1    2    0    0  0.23929447984E+02  0.30370393956E+02  0.14591867193E+02  0.90416358323E+02  0.80419002446E+02 0.  0.
          1    1    1    2  501    0 -0.68752765569E+01 -0.49158305452E+02 -0.51261273132E+02  0.71354933577E+02  0.00000000000E+00 0. -1.
         -2    1    1    2    0  502 -0.17054171427E+02  0.18787911497E+02  0.52775818087E+03  0.52836779601E+03  0.00000000000E+00 0.  1.
<mgrwt>
<rscale>  2 0.82120856E+02</rscale>
<asrwt>0</asrwt>
<pdfrwt beam="1">  1       21 0.90863679E-01 0.82120856E+02</pdfrwt>
<pdfrwt beam="2">  1       21 0.15311563E-01 0.82120856E+02</pdfrwt>
<totfact> 0.41677062E+04</totfact>
</mgrwt>
</event>
<event>
 5    1  0.1854763E+000  0.7214220E+02  0.7546771E-02  0.1352956E+00
         21   -1    0    0  501  502  0.00000000000E+00  0.00000000000E+00  0.61727566623E+02  0.61727566623E+02  0.00000000000E+00 0. -1.
         21   -1    0    0  502  503 -0.00000000000E+00 -0.00000000000E+00 -0.15849085820E+03  0.15849085820E+03  0.00000000000E+00 0.  1.
         24    1    1    2    0    0  0.15940622623E+02 -0.21613842362E+02 -0.18365146040E+02  0.86751116274E+02  0.80419002446E+02 0.  1.
          1    1    1    2  501    0 -0.13882613731E+02 -0.16367697954E+02  0.19151106351E+02  0.28764446367E+02  0.00000000000E+00 0. -1.
         -2    1    1    2    0  503 -0.20580088929E+01  0.37981540316E+02 -0.97549251890E+02  0.10470286218E+03  0.00000000000E+00 0.  1.
<mgrwt>
<rscale>  2 0.72142202E+02</rscale>
<asrwt>0</asrwt>
<pdfrwt beam="1">  1       21 0.94965488E-02 0.72142202E+02</pdfrwt>
<pdfrwt beam="2">  1       21 0.24383209E-01 0.72142202E+02</pdfrwt>
<totfact> 0.13871041E+06</totfact>
</mgrwt>
</event>
<event>
 5    1  0.1854763E+000  0.1195630E+03  0.7546771E-02  0.1243820E+00
         21   -1    0    0  503  502  0.00000000000E+00  0.00000000000E+00  0.24081569485E+02  0.24081569485E+02  0.00000000000E+00 0.  1.
         21   -1    0    0  501  503 -0.00000000000E+00 -0.00000000000E+00 -0.12897934953E+04  0.12897934953E+04  0.00000000000E+00 0.  1.
         24    1    1    2    0    0 -0.60626295718E+02 -0.61550807652E+02 -0.93698518531E+03  0.94439001642E+03  0.80419002446E+02 0.  1.
          1    1    1    2  501    0  0.62862104687E+02  0.34555220341E+01 -0.29630100429E+03  0.30291561529E+03  0.00000000000E+00 0. -1.
         -2    1    1    2    0  502 -0.22358089689E+01  0.58095285618E+02 -0.32425736214E+02  0.66569433089E+02  0.00000000000E+00 0.  1.
<mgrwt>
<rscale>  2 0.11956304E+03</rscale>
<asrwt>0</asrwt>
<pdfrwt beam="1">  1       21 0.37048572E-02 0.11956304E+03</pdfrwt>
<pdfrwt beam="2">  1       21 0.19842975E+00 0.11956304E+03</pdfrwt>
<totfact> 0.64413768E+04</totfact>
</mgrwt>
</event>
<event>
 5    1  0.1854763E+000  0.1152378E+03  0.7546771E-02  0.1251167E+00
         21   -1    0    0  501  502  0.00000000000E+00  0.00000000000E+00  0.19980737514E+03  0.19980737514E+03  0.00000000000E+00 0.  1.
         21   -1    0    0  502  503 -0.00000000000E+00 -0.00000000000E+00 -0.77550005704E+02  0.77550005704E+02  0.00000000000E+00 0. -1.
         24    1    1    2    0    0  0.87449755155E+02  0.50940571944E+02  0.19062160664E+02  0.13066362719E+03  0.80419002446E+02 0. -1.
          1    1    1    2  501    0 -0.17598715039E+02 -0.10730877591E+02  0.37179367575E+02  0.42510844242E+02  0.00000000000E+00 0. -1.
         -2    1    1    2    0  503 -0.69851040116E+02 -0.40209694352E+02  0.66015841202E+02  0.10418290942E+03  0.00000000000E+00 0.  1.
<mgrwt>
<rscale>  2 0.11523783E+03</rscale>
<asrwt>0</asrwt>
<pdfrwt beam="1">  1       21 0.30739596E-01 0.11523783E+03</pdfrwt>
<pdfrwt beam="2">  1       21 0.11930770E-01 0.11523783E+03</pdfrwt>
<totfact> 0.60646724E+05</totfact>
</mgrwt>
</event>
<event>
 5    1  0.1854763E+000  0.7947801E+02  0.7546771E-02  0.1330539E+00
         21   -1    0    0  503  502  0.00000000000E+00  0.00000000000E+00  0.27076353936E+04  0.27076353936E+04  0.00000000000E+00 0.  1.
         21   -1    0    0  501  503 -0.00000000000E+00 -0.00000000000E+00 -0.10832035379E+02  0.10832035379E+02  0.00000000000E+00 0. -1.
         24    1    1    2    0    0 -0.34183194686E+01 -0.29501470943E+02  0.17365474360E+04  0.17386621970E+04  0.80419002446E+02 0.  0.
          1    1    1    2  501    0 -0.20375567366E+02 -0.13247610696E+02  0.69957436399E+01  0.25290380853E+02  0.00000000000E+00 0. -1.
         -2    1    1    2    0  502  0.23793886834E+02  0.42749081638E+02  0.95326017862E+03  0.95451485121E+03  0.00000000000E+00 0.  1.
<mgrwt>
<rscale>  2 0.79478011E+02</rscale>
<asrwt>0</asrwt>
<pdfrwt beam="1">  1       21 0.41655875E+00 0.79478011E+02</pdfrwt>
<pdfrwt beam="2">  1       21 0.16664691E-02 0.79478011E+02</pdfrwt>
<totfact> 0.14114634E+04</totfact>
</mgrwt>
</event>
<event>
 5    1  0.1854763E+000  0.1364740E+03  0.7546771E-02  0.1218154E+00
         21   -1    0    0  503  502  0.00000000000E+00  0.00000000000E+00  0.20671734270E+03  0.20671734270E+03  0.00000000000E+00 0.  1.
         21   -1    0    0  501  503 -0.00000000000E+00 -0.00000000000E+00 -0.10421999299E+03  0.10421999299E+03  0.00000000000E+00 0. -1.
         24    1    1    2    0    0  0.11037078612E+03  0.35076784460E+02  0.22331478221E+02  0.14275153978E+03  0.80419002446E+02 0.  0.
          1    1    1    2  501    0 -0.51798913373E+02 -0.49483754807E+02  0.49997407794E+01  0.71810631694E+02  0.00000000000E+00 0. -1.
         -2    1    1    2    0  502 -0.58571872743E+02  0.14406970347E+02  0.75166130710E+02  0.96375164213E+02  0.00000000000E+00 0.  1.
<mgrwt>
<rscale>  2 0.13647403E+03</rscale>
<asrwt>0</asrwt>
<pdfrwt beam="1">  1       21 0.31802668E-01 0.13647403E+03</pdfrwt>
<pdfrwt beam="2">  1       21 0.16033845E-01 0.13647403E+03</pdfrwt>
<totfact> 0.33385996E+05</totfact>
</mgrwt>
</event>
<event>
 5    1  0.1854763E+000  0.1348075E+03  0.7546771E-02  0.1220492E+00
         21   -1    0    0  501  502  0.00000000000E+00  0.00000000000E+00  0.28301703520E+03  0.28301703520E+03  0.00000000000E+00 0. -1.
         21   -1    0    0  502  503 -0.00000000000E+00 -0.00000000000E+00 -0.10142050130E+03  0.10142050130E+03  0.00000000000E+00 0. -1.
         24    1    1    2    0    0 -0.86054477963E+02  0.78694195397E+02 -0.14458218948E+02  0.14238822148E+03  0.80419002446E+02 0. -1.
          1    1    1    2  501    0  0.17835179538E+02 -0.51538330618E+02  0.13819293801E+03  0.14856507418E+03  0.00000000000E+00 0. -1.
         -2    1    1    2    0  503  0.68219298425E+02 -0.27155864779E+02  0.57861814837E+02  0.93484240842E+02  0.00000000000E+00 0.  1.
<mgrwt>
<rscale>  2 0.13480746E+03</rscale>
<asrwt>0</asrwt>
<pdfrwt beam="1">  1       21 0.43541082E-01 0.13480746E+03</pdfrwt>
<pdfrwt beam="2">  1       21 0.15603154E-01 0.13480746E+03</pdfrwt>
<totfact> 0.18817868E+05</totfact>
</mgrwt>
</event>
<event>
 5    1  0.1854763E+000  0.8903938E+02  0.7546771E-02  0.1305195E+00
         21   -1    0    0  501  502  0.00000000000E+00  0.00000000000E+00  0.13338991916E+03  0.13338991916E+03  0.00000000000E+00 0. -1.
         21   -1    0    0  502  503 -0.00000000000E+00 -0.00000000000E+00 -0.27383362627E+03  0.27383362627E+03  0.00000000000E+00 0.  1.
         24    1    1    2    0    0  0.18309354229E+02 -0.47141192976E+02 -0.79869982679E+02  0.12411266904E+03  0.80419002446E+02 0.  0.
          1    1    1    2  501    0 -0.26744735129E+02 -0.75120747365E+01  0.10496534249E+03  0.10857916581E+03  0.00000000000E+00 0. -1.
         -2    1    1    2    0  503  0.84353809006E+01  0.54653267713E+02 -0.16553906692E+03  0.17453171059E+03  0.00000000000E+00 0.  1.
<mgrwt>
<rscale>  2 0.89039375E+02</rscale>
<asrwt>0</asrwt>
<pdfrwt beam="1">  1       21 0.20521526E-01 0.89039375E+02</pdfrwt>
<pdfrwt beam="2">  1       21 0.42128250E-01 0.89039375E+02</pdfrwt>
<totfact> 0.12403115E+05</totfact>
</mgrwt>
</event>
<event>
 5    1  0.1854763E+000  0.6796756E+02  0.7546771E-02  0.1367144E+00
         21   -1    0    0  501  502  0.00000000000E+00  0.00000000000E+00  0.78475513676E+03  0.78475513676E+03  0.00000000000E+00 0. -1.
         21   -1    0    0  502  503 -0.00000000000E+00 -0.00000000000E+00 -0.25850594121E+02  0.25850594121E+02  0.00000000000E+00 0.  1.
         24    1    1    2    0    0 -0.92532939398E+01 -0.12954891264E+02  0.25540709446E+03  0.26824140715E+03  0.80419002446E+02 0.  0.
          1    1    1    2  501    0 -0.18757781527E+02  0.17410059988E+02  0.51208928657E+03  0.51272839007E+03  0.00000000000E+00 0. -1.
         -2    1    1    2    0  503  0.28011075466E+02 -0.44551687241E+01 -0.85918383926E+01  0.29635933664E+02  0.00000000000E+00 0.  1.
<mgrwt>
<rscale>  2 0.67967560E+02</rscale>
<asrwt>0</asrwt>
<pdfrwt beam="1">  1       21 0.12073154E+00 0.67967560E+02</pdfrwt>
<pdfrwt beam="2">  1       21 0.39770151E-02 0.67967560E+02</pdfrwt>
<totfact> 0.21548253E+05</totfact>
</mgrwt>
</event>
<event>
 5    1  0.1854763E+000  0.9664898E+02  0.7546771E-02  0.1287505E+00
         21   -1    0    0  503  502  0.00000000000E+00  0.00000000000E+00  0.38247290161E+03  0.38247290161E+03  0.00000000000E+00 0. -1.
         21   -1    0    0  501  503 -0.00000000000E+00 -0.00000000000E+00 -0.40095754839E+02  0.40095754839E+02  0.00000000000E+00 0.  1.
         24    1    1    2    0    0  0.11845549289E+02 -0.49469823046E+01  0.27436287322E+02  0.85934600065E+02  0.80419002446E+02 0.  1.
          1    1    1    2  501    0  0.33579223175E+02 -0.37045878654E+02  0.85957057255E+02  0.99441324640E+02  0.00000000000E+00 0. -1.
         -2    1    1    2    0  502 -0.45424772464E+02  0.41992860958E+02  0.22898380219E+03  0.23719273174E+03  0.00000000000E+00 0.  1.
<mgrwt>
<rscale>  2 0.96648979E+02</rscale>
<asrwt>0</asrwt>
<pdfrwt beam="1">  1       21 0.58841982E-01 0.96648979E+02</pdfrwt>
<pdfrwt beam="2">  1       21 0.61685779E-02 0.96648979E+02</pdfrwt>
<totfact> 0.51383781E+05</totfact>
</mgrwt>
</event>
<event>
 5    1  0.1854763E+000  0.6611558E+02  0.7546771E-02  0.1373824E+00
         21   -1    0    0  503  502  0.00000000000E+00  0.00000000000E+00  0.16618953680E+03  0.16618953680E+03  0.00000000000E+00 0.  1.
         21   -1    0    0  501  503 -0.00000000000E+00 -0.00000000000E+00 -0.42255109857E+02  0.42255109857E+02  0.00000000000E+00 0.  1.
         24    1    1    2    0    0  0.10302231083E+02 -0.40078065053E+01  0.94980470033E+01  0.81728987082E+02  0.80419002446E+02 0.  1.
          1    1    1    2  501    0  0.20276283686E+02  0.56401747483E+00  0.25361906740E+02  0.32475715686E+02  0.00000000000E+00 0. -1.
         -2    1    1    2    0  502 -0.30578514769E+02  0.34437890305E+01  0.89074473196E+02  0.94239943886E+02  0.00000000000E+00 0.  1.
<mgrwt>
<rscale>  2 0.66115580E+02</rscale>
<asrwt>0</asrwt>
<pdfrwt beam="1">  1       21 0.25567621E-01 0.66115580E+02</pdfrwt>
<pdfrwt beam="2">  1       21 0.65007862E-02 0.66115580E+02</pdfrwt>
<totfact> 0.24036224E+06</totfact>
</mgrwt>
</event>
<event>
 5    1  0.1854763E+000  0.1258041E+03  0.7546771E-02  0.1233818E+00
         21   -1    0    0  501  502  0.00000000000E+00  0.00000000000E+00  0.70561136795E+03  0.70561136795E+03  0.00000000000E+00 0. -1.
         21   -1    0    0  502  503 -0.00000000000E+00 -0.00000000000E+00 -0.66185383312E+02  0.66185383312E+02  0.00000000000E+00 0.  1.
         24    1    1    2    0    0  0.45367226710E+02  0.56490105013E+02  0.42424541633E+02  0.11625994543E+03  0.80419002446E+02 0.  1.
          1    1    1    2  501    0 -0.88561717185E+02 -0.38817395924E+02  0.60096908772E+03  0.60869845767E+03  0.00000000000E+00 0. -1.
         -2    1    1    2    0  503  0.43194490475E+02 -0.17672709090E+02 -0.39676447153E+01  0.46838348162E+02  0.00000000000E+00 0.  1.
<mgrwt>
<rscale>  2 0.12580408E+03</rscale>
<asrwt>0</asrwt>
<pdfrwt beam="1">  1       21 0.10855559E+00 0.12580408E+03</pdfrwt>
<pdfrwt beam="2">  1       21 0.10182367E-01 0.12580408E+03</pdfrwt>
<totfact> 0.54910713E+04</totfact>
</mgrwt>
</event>
<event>
 5    1  0.1854763E+000  0.1019120E+03  0.7546771E-02  0.1276326E+00
         21   -1    0    0  503  502  0.00000000000E+00  0.00000000000E+00  0.31012671357E+03  0.31012671357E+03  0.00000000000E+00 0. -1.
         21   -1    0    0  501  503 -0.00000000000E+00 -0.00000000000E+00 -0.53861160182E+02  0.53861160182E+02  0.00000000000E+00 0. -1.
         24    1    1    2    0    0 -0.43999890840E+02  0.47139956234E+02  0.20694670874E+03  0.23119758234E+03  0.80419002446E+02 0. -1.
          1    1    1    2  501    0  0.38344012467E+02 -0.68579699685E+02 -0.15880121383E+00  0.78571392496E+02  0.00000000000E+00 0. -1.
         -2    1    1    2    0  502  0.56558783738E+01  0.21439743451E+02  0.49477645864E+02  0.54218898916E+02  0.00000000000E+00 0.  1.
<mgrwt>
<rscale>  2 0.10191197E+03</rscale>
<asrwt>0</asrwt>
<pdfrwt beam="1">  1       21 0.47711801E-01 0.10191197E+03</pdfrwt>
<pdfrwt beam="2">  1       21 0.82863325E-02 0.10191197E+03</pdfrwt>
<totfact> 0.47946328E+05</totfact>
</mgrwt>
</event>
<event>
 5    1  0.1854763E+000  0.6877635E+02  0.7546771E-02  0.1364304E+00
         21   -1    0    0  503  502  0.00000000000E+00  0.00000000000E+00  0.48095191567E+02  0.48095191567E+02  0.00000000000E+00 0.  1.
         21   -1    0    0  501  503 -0.00000000000E+00 -0.00000000000E+00 -0.20402420403E+03  0.20402420403E+03  0.00000000000E+00 0.  1.
         24    1    1    2    0    0  0.93998728786E+01 -0.15990733861E+02 -0.13626735318E+03  0.15931123211E+03  0.80419002446E+02 0.  1.
          1    1    1    2  501    0  0.15889351198E+02  0.23744999604E+02 -0.46850652698E+02  0.54875132308E+02  0.00000000000E+00 0. -1.
         -2    1    1    2    0  502 -0.25289224076E+02 -0.77542657429E+01  0.27188993413E+02  0.37933031179E+02  0.00000000000E+00 0.  1.
<mgrwt>
<rscale>  2 0.68776353E+02</rscale>
<asrwt>0</asrwt>
<pdfrwt beam="1">  1       21 0.73992603E-02 0.68776353E+02</pdfrwt>
<pdfrwt beam="2">  1       21 0.31388339E-01 0.68776353E+02</pdfrwt>
<totfact> 0.13173003E+06</totfact>
</mgrwt>
</event>
<event>
 5    1  0.1854763E+000  0.7692914E+02  0.7546771E-02  0.1337999E+00
         21   -1    0    0  501  502  0.00000000000E+00  0.00000000000E+00  0.60916335985E+02  0.60916335985E+02  0.00000000000E+00 0.  1.
         21   -1    0    0  502  503 -0.00000000000E+00 -0.00000000000E+00 -0.53427352466E+03  0.53427352466E+03  0.00000000000E+00 0.  1.
         24    1    1    2    0    0  0.42272848387E+02 -0.25636948648E+02  0.42693350644E+01  0.94497037112E+02  0.80419002446E+02 0.  1.
          1    1    1    2  501    0 -0.21795972475E+02  0.31365162736E+02 -0.21030223691E+02  0.43601699028E+02  0.00000000000E+00 0. -1.
         -2    1    1    2    0  503 -0.20476875912E+02 -0.57282140878E+01 -0.45659630005E+03  0.45709112451E+03  0.00000000000E+00 0.  1.
<mgrwt>
<rscale>  2 0.76929137E+02</rscale>
<asrwt>0</asrwt>
<pdfrwt beam="1">  1       21 0.93717438E-02 0.76929137E+02</pdfrwt>
<pdfrwt beam="2">  1       21 0.82195928E-01 0.76929137E+02</pdfrwt>
<totfact> 0.12349752E+05</totfact>
</mgrwt>
</event>
<event>
 5    1  0.1941216E+000  0.6765830E+02  0.7546771E-02  0.1368242E+00
         21   -1    0    0  501  502  0.00000000000E+00  0.00000000000E+00  0.17559588843E+04  0.17559588843E+04  0.00000000000E+00 0.  1.
         21   -1    0    0  502  503 -0.00000000000E+00 -0.00000000000E+00 -0.53627954190E+02  0.53627954190E+02  0.00000000000E+00 0.  1.
         24    1    1    2    0    0 -0.39064908532E+02  0.15176341442E+02  0.16198042726E+04  0.16223407428E+04  0.80419002446E+02 0.  1.
          1    1    1    2  501    0  0.20687487846E+02  0.17292629342E+00  0.13129594950E+03  0.13291586968E+03  0.00000000000E+00 0. -1.
         -2    1    1    2    0  503  0.18377420686E+02 -0.15349267735E+02 -0.48769291995E+02  0.54330225959E+02  0.00000000000E+00 0.  1.
<mgrwt>
<rscale>  2 0.67658302E+02</rscale>
<asrwt>0</asrwt>
<pdfrwt beam="1">  1       21 0.27014748E+00 0.67658302E+02</pdfrwt>
<pdfrwt beam="2">  1       21 0.82504559E-02 0.67658302E+02</pdfrwt>
<totfact> 0.70808099E+03</totfact>
</mgrwt>
</event>
<event>
 5    1  0.1854763E+000  0.9699836E+02  0.7546771E-02  0.1286738E+00
         21   -1    0    0  503  502  0.00000000000E+00  0.00000000000E+00  0.11422486207E+04  0.11422486207E+04  0.00000000000E+00 0.  1.
         21   -1    0    0  501  503 -0.00000000000E+00 -0.00000000000E+00 -0.42258897538E+02  0.42258897538E+02  0.00000000000E+00 0. -1.
         24    1    1    2    0    0  0.38801661733E+02  0.18540368969E+01  0.15146203767E+03  0.17583222462E+03  0.80419002446E+02 0.  1.
          1    1    1    2  501    0  0.87759413439E+01 -0.41708931902E+02 -0.13452717145E+02  0.44694829068E+02  0.00000000000E+00 0. -1.
         -2    1    1    2    0  502 -0.47577603077E+02  0.39854895005E+02  0.96198040263E+03  0.96398046454E+03  0.00000000000E+00 0.  1.
<mgrwt>
<rscale>  2 0.96998357E+02</rscale>
<asrwt>0</asrwt>
<pdfrwt beam="1">  1       21 0.17573053E+00 0.96998357E+02</pdfrwt>
<pdfrwt beam="2">  1       21 0.65013697E-02 0.96998357E+02</pdfrwt>
<totfact> 0.36051157E+04</totfact>
</mgrwt>
</event>
<event>
 5    1  0.1854763E+000  0.8088695E+02  0.7546771E-02  0.1326553E+00
         21   -1    0    0  501  502  0.00000000000E+00  0.00000000000E+00  0.72792302982E+03  0.72792302982E+03  0.00000000000E+00 0.  1.
         21   -1    0    0  502  503 -0.00000000000E+00 -0.00000000000E+00 -0.30241365234E+02  0.30241365234E+02  0.00000000000E+00 0.  1.
         24    1    1    2    0    0 -0.14231778293E+02  0.16013512003E+02  0.22847057725E+03  0.24315632153E+03  0.80419002446E+02 0.  1.
          1    1    1    2  501    0  0.45399498659E+02 -0.58924228347E+01  0.47870623977E+03  0.48089031922E+03  0.00000000000E+00 0. -1.
         -2    1    1    2    0  503 -0.31167720366E+02 -0.10121089168E+02 -0.94951524303E+01  0.34117754299E+02  0.00000000000E+00 0.  1.
<mgrwt>
<rscale>  2 0.80886946E+02</rscale>
<asrwt>0</asrwt>
<pdfrwt beam="1">  1       21 0.11198815E+00 0.80886946E+02</pdfrwt>
<pdfrwt beam="2">  1       21 0.46525183E-02 0.80886946E+02</pdfrwt>
<totfact> 0.19783993E+05</totfact>
</mgrwt>
</event>
<event>
 5    1  0.1854763E+000  0.7018688E+02  0.7546771E-02  0.1359459E+00
         21   -1    0    0  501  502  0.00000000000E+00  0.00000000000E+00  0.26562734846E+03  0.26562734846E+03  0.00000000000E+00 0. -1.
         21   -1    0    0  502  503 -0.00000000000E+00 -0.00000000000E+00 -0.46148084527E+02  0.46148084527E+02  0.00000000000E+00 0. -1.
         24    1    1    2    0    0 -0.71065553549E+01 -0.90299487342E+01  0.12815275581E+02  0.82240442276E+02  0.80419002446E+02 0. -1.
          1    1    1    2  501    0 -0.14895732726E+02  0.26929260433E+02  0.19727051314E+03  0.19965651323E+03  0.00000000000E+00 0. -1.
         -2    1    1    2    0  503  0.22002288081E+02 -0.17899311699E+02  0.93934752151E+01  0.29878477483E+02  0.00000000000E+00 0.  1.
<mgrwt>
<rscale>  2 0.70186878E+02</rscale>
<asrwt>0</asrwt>
<pdfrwt beam="1">  1       21 0.40865745E-01 0.70186878E+02</pdfrwt>
<pdfrwt beam="2">  1       21 0.70997055E-02 0.70186878E+02</pdfrwt>
<totfact> 0.84806500E+05</totfact>
</mgrwt>
</event>
<event>
 5    1  0.1854763E+000  0.8219607E+02  0.7546771E-02  0.1322932E+00
         21   -1    0    0  503  502  0.00000000000E+00  0.00000000000E+00  0.23202154655E+04  0.23202154655E+04  0.00000000000E+00 0.  1.
         21   -1    0    0  501  503 -0.00000000000E+00 -0.00000000000E+00 -0.44304160788E+02  0.44304160788E+02  0.00000000000E+00 0. -1.
         24    1    1    2    0    0 -0.10646803905E+02 -0.22817762934E+02  0.13360238554E+03  0.15795827967E+03  0.80419002446E+02 0.  1.
          1    1    1    2  501    0  0.32883503070E+02 -0.15085591813E+02 -0.21646306150E+02  0.42159962339E+02  0.00000000000E+00 0. -1.
         -2    1    1    2    0  502 -0.22236699165E+02  0.37903354747E+02  0.21639552254E+04  0.21644013843E+04  0.00000000000E+00 0.  1.
<mgrwt>
<rscale>  2 0.82196072E+02</rscale>
<asrwt>0</asrwt>
<pdfrwt beam="1">  1       21 0.35695613E+00 0.82196072E+02</pdfrwt>
<pdfrwt beam="2">  1       21 0.68160266E-02 0.82196072E+02</pdfrwt>
<totfact> 0.31426681E+03</totfact>
</mgrwt>
</event>
<event>
 5    1  0.1854763E+000  0.8431469E+02  0.7546771E-02  0.1317234E+00
         21   -1    0    0  501  502  0.00000000000E+00  0.00000000000E+00  0.13113790547E+04  0.13113790547E+04  0.00000000000E+00 0. -1.
         21   -1    0    0  502  503 -0.00000000000E+00 -0.00000000000E+00 -0.12849543744E+02  0.12849543744E+02  0.00000000000E+00 0. -1.
         24    1    1    2    0    0  0.52009786597E+02 -0.31803702460E+01  0.22222176088E+03  0.24200177607E+03  0.80419002446E+02 0. -1.
          1    1    1    2  501    0 -0.38241249878E+02  0.25936824829E+02  0.10059317834E+04  0.10069924850E+04  0.00000000000E+00 0. -1.
         -2    1    1    2    0  503 -0.13768536720E+02 -0.22756454583E+02  0.70375966660E+02  0.75234337320E+02  0.00000000000E+00 0.  1.
<mgrwt>
<rscale>  2 0.84314690E+02</rscale>
<asrwt>0</asrwt>
<pdfrwt beam="1">  1       21 0.20175052E+00 0.84314690E+02</pdfrwt>
<pdfrwt beam="2">  1       21 0.19768539E-02 0.84314690E+02</pdfrwt>
<totfact> 0.17547784E+05</totfact>
</mgrwt>
</event>
<event>
 5    1  0.1854763E+000  0.1695263E+03  0.7546771E-02  0.1178343E+00
         21   -1    0    0  503  502  0.00000000000E+00  0.00000000000E+00  0.41555718454E+03  0.41555718454E+03  0.00000000000E+00 0.  1.
         21   -1    0    0  501  503 -0.00000000000E+00 -0.00000000000E+00 -0.78214351565E+02  0.78214351565E+02  0.00000000000E+00 0. -1.
         24    1    1    2    0    0  0.51598321639E+02 -0.79887306016E+02  0.10793579269E+03  0.16480813013E+03  0.80419002446E+02 0.  1.
          1    1    1    2  501    0 -0.12532055401E+03  0.48398969978E+02  0.72241880196E+02  0.15253390051E+03  0.00000000000E+00 0. -1.
         -2    1    1    2    0  502  0.73722232367E+02  0.31488336038E+02  0.15716516009E+03  0.17642950546E+03  0.00000000000E+00 0.  1.
<mgrwt>
<rscale>  2 0.16952630E+03</rscale>
<asrwt>0</asrwt>
<pdfrwt beam="1">  1       21 0.63931873E-01 0.16952630E+03</pdfrwt>
<pdfrwt beam="2">  1       21 0.12032977E-01 0.16952630E+03</pdfrwt>
<totfact> 0.13302608E+05</totfact>
</mgrwt>
</event>
<event>
 5    1  0.1854763E+000  0.1245001E+03  0.7546771E-02  0.1235853E+00
         21   -1    0    0  503  502  0.00000000000E+00  0.00000000000E+00  0.46654813548E+03  0.46654813548E+03  0.00000000000E+00 0. -1.
         21   -1    0    0  501  503 -0.00000000000E+00 -0.00000000000E+00 -0.34981347821E+02  0.34981347821E+02  0.00000000000E+00 0. -1.
         24    1    1    2    0    0  0.39318124544E+02  0.10328795531E+03  0.21178256109E+03  0.25205829834E+03  0.80419002446E+02 0. -1.
          1    1    1    2  501    0 -0.36718378724E+02 -0.71049673812E+02  0.11703274534E+03  0.14174963480E+03  0.00000000000E+00 0. -1.
         -2    1    1    2    0  502 -0.25997458199E+01 -0.32238281495E+02  0.10275148123E+03  0.10772155016E+03  0.00000000000E+00 0.  1.
<mgrwt>
<rscale>  2 0.12450009E+03</rscale>
<asrwt>0</asrwt>
<pdfrwt beam="1">  1       21 0.71776632E-01 0.12450009E+03</pdfrwt>
<pdfrwt beam="2">  1       21 0.53817462E-02 0.12450009E+03</pdfrwt>
<totfact> 0.42124060E+05</totfact>
</mgrwt>
</event>
<event>
 5    1  0.1854763E+000  0.6935922E+02  0.7546771E-02  0.1362286E+00
         21   -1    0    0  501  502  0.00000000000E+00  0.00000000000E+00  0.45486369971E+02  0.45486369971E+02  0.00000000000E+00 0.  1.
         21   -1    0    0  502  503 -0.00000000000E+00 -0.00000000000E+00 -0.14737974568E+03  0.14737974568E+03  0.00000000000E+00 0. -1.
         24    1    1    2    0    0  0.30029200122E+01 -0.17298013268E+02 -0.39631563061E+02  0.91357077102E+02  0.80419002446E+02 0.  1.
          1    1    1    2  501    0  0.12038159550E+02  0.32719222275E+02  0.79661247513E+00  0.34872616522E+02  0.00000000000E+00 0. -1.
         -2    1    1    2    0  503 -0.15041079562E+02 -0.15421209007E+02 -0.63058425127E+02  0.66636422032E+02  0.00000000000E+00 0.  1.
<mgrwt>
<rscale>  2 0.69359217E+02</rscale>
<asrwt>0</asrwt>
<pdfrwt beam="1">  1       21 0.69979031E-02 0.69359217E+02</pdfrwt>
<pdfrwt beam="2">  1       21 0.22673807E-01 0.69359217E+02</pdfrwt>
<totfact> 0.26592501E+06</totfact>
</mgrwt>
</event>
<event>
 5    1  0.1854763E+000  0.1620220E+03  0.7546771E-02  0.1186433E+00
         21   -1    0    0  503  502  0.00000000000E+00  0.00000000000E+00  0.74753729699E+03  0.74753729699E+03  0.00000000000E+00 0.  1.
         21   -1    0    0  501  503 -0.00000000000E+00 -0.00000000000E+00 -0.41025232087E+02  0.41025232087E+02  0.00000000000E+00 0. -1.
         24    1    1    2    0    0 -0.11140371356E+03 -0.75894274436E+02  0.21120463815E+03  0.26314509955E+03  0.80419002446E+02 0. -1.
          1    1    1    2  501    0  0.43816749972E+02 -0.21280807947E+02  0.80866004393E+02  0.94403871909E+02  0.00000000000E+00 0. -1.
         -2    1    1    2    0  502  0.67586963587E+02  0.97175082383E+02  0.41444142236E+03  0.43101355762E+03  0.00000000000E+00 0.  1.
<mgrwt>
<rscale>  2 0.16202201E+03</rscale>
<asrwt>0</asrwt>
<pdfrwt beam="1">  1       21 0.11500573E+00 0.16202201E+03</pdfrwt>
<pdfrwt beam="2">  1       21 0.63115747E-02 0.16202201E+03</pdfrwt>
<totfact> 0.10739646E+05</totfact>
</mgrwt>
</event>
<event>
 5    1  0.1854763E+000  0.1154304E+03  0.7546771E-02  0.1250832E+00
         21   -1    0    0  503  502  0.00000000000E+00  0.00000000000E+00  0.29417129311E+03  0.29417129311E+03  0.00000000000E+00 0.  1.
         21   -1    0    0  501  503 -0.00000000000E+00 -0.00000000000E+00 -0.22777762577E+03  0.22777762577E+03  0.00000000000E+00 0. -1.
         24    1    1    2    0    0  0.45793449141E+02 -0.68228235997E+02 -0.21092665818E+01  0.11499477002E+03  0.80419002446E+02 0.  0.
          1    1    1    2  501    0 -0.28297748240E+02  0.86246670769E+02 -0.15630383418E+03  0.18074882947E+03  0.00000000000E+00 0. -1.
         -2    1    1    2    0  502 -0.17495700901E+02 -0.18018434772E+02  0.22480676810E+03  0.22620531940E+03  0.00000000000E+00 0.  1.
<mgrwt>
<rscale>  2 0.11543037E+03</rscale>
<asrwt>0</asrwt>
<pdfrwt beam="1">  1       21 0.45257122E-01 0.11543037E+03</pdfrwt>
<pdfrwt beam="2">  1       21 0.35042712E-01 0.11543037E+03</pdfrwt>
<totfact> 0.38395826E+04</totfact>
</mgrwt>
</event>
<event>
 5    1  0.1854763E+000  0.9090997E+02  0.7546771E-02  0.1300663E+00
         21   -1    0    0  501  502  0.00000000000E+00  0.00000000000E+00  0.81172817612E+02  0.81172817612E+02  0.00000000000E+00 0. -1.
         21   -1    0    0  502  503 -0.00000000000E+00 -0.00000000000E+00 -0.44594222904E+03  0.44594222904E+03  0.00000000000E+00 0.  1.
         24    1    1    2    0    0 -0.70268370480E+02  0.13181405933E+02  0.18976735421E+02  0.10926447636E+03  0.80419002446E+02 0. -1.
          1    1    1    2  501    0  0.51245175628E+02 -0.30764410859E+00 -0.22656478058E+02  0.56031050927E+02  0.00000000000E+00 0. -1.
         -2    1    1    2    0  503  0.19023194852E+02 -0.12873761824E+02 -0.36108966879E+03  0.36181951937E+03  0.00000000000E+00 0.  1.
<mgrwt>
<rscale>  2 0.90909966E+02</rscale>
<asrwt>0</asrwt>
<pdfrwt beam="1">  1       21 0.12488126E-01 0.90909966E+02</pdfrwt>
<pdfrwt beam="2">  1       21 0.68606496E-01 0.90909966E+02</pdfrwt>
<totfact> 0.11034662E+05</totfact>
</mgrwt>
</event>
<event>
 5    1  0.1854763E+000  0.7066736E+02  0.7546771E-02  0.1357838E+00
         21   -1    0    0  503  502  0.00000000000E+00  0.00000000000E+00  0.12667184517E+03  0.12667184517E+03  0.00000000000E+00 0.  1.
         21   -1    0    0  501  503 -0.00000000000E+00 -0.00000000000E+00 -0.44099391521E+02  0.44099391521E+02  0.00000000000E+00 0. -1.
         24    1    1    2    0    0 -0.26565922846E+02  0.18562653666E+02  0.51672508939E+02  0.10093356479E+03  0.80419002446E+02 0.  0.
          1    1    1    2  501    0 -0.20047240372E+01 -0.25216259629E+02 -0.24589573778E+01  0.25415057338E+02  0.00000000000E+00 0. -1.
         -2    1    1    2    0  502  0.28570646884E+02  0.66536059632E+01  0.33358902087E+02  0.44422614557E+02  0.00000000000E+00 0.  1.
<mgrwt>
<rscale>  2 0.70667361E+02</rscale>
<asrwt>0</asrwt>
<pdfrwt beam="1">  1       21 0.19487976E-01 0.70667361E+02</pdfrwt>
<pdfrwt beam="2">  1       21 0.67845218E-02 0.70667361E+02</pdfrwt>
<totfact> 0.36976658E+06</totfact>
</mgrwt>
</event>
<event>
 5    1  0.1854763E+000  0.7076514E+02  0.7546771E-02  0.1357510E+00
         21   -1    0    0  501  502  0.00000000000E+00  0.00000000000E+00  0.35950958198E+03  0.35950958198E+03  0.00000000000E+00 0.  1.
         21   -1    0    0  502  503 -0.00000000000E+00 -0.00000000000E+00 -0.15900770491E+02  0.15900770491E+02  0.00000000000E+00 0. -1.
         24    1    1    2    0    0 -0.32869362908E+02  0.14886764744E+02  0.14723192019E+03  0.17159972337E+03  0.80419002446E+02 0. -1.
          1    1    1    2  501    0  0.23640242414E+02  0.10875270552E+02  0.11667948543E+03  0.11954595305E+03  0.00000000000E+00 0. -1.
         -2    1    1    2    0  503  0.92291204944E+01 -0.25762035296E+02  0.79697405872E+02  0.84264676054E+02  0.00000000000E+00 0.  1.
<mgrwt>
<rscale>  2 0.70765139E+02</rscale>
<asrwt>0</asrwt>
<pdfrwt beam="1">  1       21 0.55309160E-01 0.70765139E+02</pdfrwt>
<pdfrwt beam="2">  1       21 0.24462727E-02 0.70765139E+02</pdfrwt>
<totfact> 0.26481094E+06</totfact>
</mgrwt>
</event>
<event>
 5    1  0.1854763E+000  0.7458177E+02  0.7546771E-02  0.1345171E+00
         21   -1    0    0  503  502  0.00000000000E+00  0.00000000000E+00  0.96960569459E+02  0.96960569459E+02  0.00000000000E+00 0.  1.
         21   -1    0    0  501  503 -0.00000000000E+00 -0.00000000000E+00 -0.18680388557E+03  0.18680388557E+03  0.00000000000E+00 0.  1.
         24    1    1    2    0    0  0.21445444174E+02  0.17716009183E+01 -0.10974816654E+03  0.13774948878E+03  0.80419002446E+02 0.  1.
          1    1    1    2  501    0 -0.32534924236E+02  0.22278553133E+02 -0.54367808194E+02  0.67161847745E+02  0.00000000000E+00 0. -1.
         -2    1    1    2    0  502  0.11089480062E+02 -0.24050154051E+02  0.74272658626E+02  0.78853118501E+02  0.00000000000E+00 0.  1.
<mgrwt>
<rscale>  2 0.74581774E+02</rscale>
<asrwt>0</asrwt>
<pdfrwt beam="1">  1       21 0.14917011E-01 0.74581774E+02</pdfrwt>
<pdfrwt beam="2">  1       21 0.28739059E-01 0.74581774E+02</pdfrwt>
<totfact> 0.46434937E+05</totfact>
</mgrwt>
</event>
<event>
 5    1  0.1854763E+000  0.7018961E+02  0.7546771E-02  0.1359449E+00
         21   -1    0    0  503  502  0.00000000000E+00  0.00000000000E+00  0.28287802420E+03  0.28287802420E+03  0.00000000000E+00 0. -1.
         21   -1    0    0  501  503 -0.00000000000E+00 -0.00000000000E+00 -0.34645524062E+02  0.34645524062E+02  0.00000000000E+00 0. -1.
         24    1    1    2    0    0  0.28385808320E+02  0.29744588148E+02  0.22523964514E+03  0.24267387238E+03  0.80419002446E+02 0. -1.
          1    1    1    2  501    0 -0.79402267170E+01 -0.28489266646E+02 -0.13879140043E+02  0.32669803224E+02  0.00000000000E+00 0. -1.
         -2    1    1    2    0  502 -0.20445581603E+02 -0.12553215016E+01  0.36871995037E+02  0.42179872655E+02  0.00000000000E+00 0.  1.
<mgrwt>
<rscale>  2 0.70189605E+02</rscale>
<asrwt>0</asrwt>
<pdfrwt beam="1">  1       21 0.43519695E-01 0.70189605E+02</pdfrwt>
<pdfrwt beam="2">  1       21 0.53300808E-02 0.70189605E+02</pdfrwt>
<totfact> 0.12089376E+06</totfact>
</mgrwt>
</event>
<event>
 5    1  0.1854763E+000  0.6963025E+02  0.7546771E-02  0.1361355E+00
         21   -1    0    0  501  502  0.00000000000E+00  0.00000000000E+00  0.10842899516E+03  0.10842899516E+03  0.00000000000E+00 0. -1.
         21   -1    0    0  502  503 -0.00000000000E+00 -0.00000000000E+00 -0.10599251417E+03  0.10599251417E+03  0.00000000000E+00 0. -1.
         24    1    1    2    0    0 -0.17836625548E+02  0.99240609555E+01 -0.23074056625E+02  0.86117711537E+02  0.80419002446E+02 0. -1.
          1    1    1    2  501    0 -0.11637842956E+02 -0.21642420495E+02  0.69702486934E+02  0.73907174471E+02  0.00000000000E+00 0. -1.
         -2    1    1    2    0  503  0.29474468504E+02  0.11718359540E+02 -0.44191949321E+02  0.54396623320E+02  0.00000000000E+00 0.  1.
<mgrwt>
<rscale>  2 0.69630252E+02</rscale>
<asrwt>0</asrwt>
<pdfrwt beam="1">  1       21 0.16681384E-01 0.69630252E+02</pdfrwt>
<pdfrwt beam="2">  1       21 0.16306541E-01 0.69630252E+02</pdfrwt>
<totfact> 0.10741471E+06</totfact>
</mgrwt>
</event>
<event>
 5    1  0.1854763E+000  0.7700434E+02  0.7546771E-02  0.1337774E+00
         21   -1    0    0  503  502  0.00000000000E+00  0.00000000000E+00  0.63524685476E+02  0.63524685476E+02  0.00000000000E+00 0.  1.
         21   -1    0    0  501  503 -0.00000000000E+00 -0.00000000000E+00 -0.54381924038E+03  0.54381924038E+03  0.00000000000E+00 0. -1.
         24    1    1    2    0    0 -0.11971464205E+02 -0.18806824395E+01 -0.10544910070E+03  0.13316749496E+03  0.80419002446E+02 0.  1.
          1    1    1    2  501    0 -0.30404551857E+01  0.35622056105E+02 -0.41677307776E+03  0.41830368585E+03  0.00000000000E+00 0. -1.
         -2    1    1    2    0  502  0.15011919391E+02 -0.33741373666E+02  0.41927623563E+02  0.55872745040E+02  0.00000000000E+00 0.  1.
<mgrwt>
<rscale>  2 0.77004340E+02</rscale>
<asrwt>0</asrwt>
<pdfrwt beam="1">  1       21 0.97730288E-02 0.77004340E+02</pdfrwt>
<pdfrwt beam="2">  1       21 0.83664496E-01 0.77004340E+02</pdfrwt>
<totfact> 0.11048463E+05</totfact>
</mgrwt>
</event>
<event>
 5    1  0.1854763E+000  0.6512009E+02  0.7546771E-02  0.1377520E+00
         21   -1    0    0  503  502  0.00000000000E+00  0.00000000000E+00  0.24183723307E+03  0.24183723307E+03  0.00000000000E+00 0. -1.
         21   -1    0    0  501  503 -0.00000000000E+00 -0.00000000000E+00 -0.11110617534E+03  0.11110617534E+03  0.00000000000E+00 0. -1.
         24    1    1    2    0    0 -0.64417859081E+01 -0.28007991716E+01  0.15866742782E+03  0.17802221684E+03  0.80419002446E+02 0. -1.
          1    1    1    2  501    0  0.98627086999E+01  0.25093083991E+02 -0.97830836250E+02  0.10147811788E+03  0.00000000000E+00 0. -1.
         -2    1    1    2    0  502 -0.34209227918E+01 -0.22292284819E+02  0.69894466149E+02  0.73443073693E+02  0.00000000000E+00 0.  1.
<mgrwt>
<rscale>  2 0.65120092E+02</rscale>
<asrwt>0</asrwt>
<pdfrwt beam="1">  1       21 0.37205728E-01 0.65120092E+02</pdfrwt>
<pdfrwt beam="2">  1       21 0.17093258E-01 0.65120092E+02</pdfrwt>
<totfact> 0.22244674E+05</totfact>
</mgrwt>
</event>
<event>
 5    1  0.1854763E+000  0.9604012E+02  0.7546771E-02  0.1288851E+00
         21   -1    0    0  501  502  0.00000000000E+00  0.00000000000E+00  0.21654332780E+03  0.21654332780E+03  0.00000000000E+00 0. -1.
         21   -1    0    0  502  503 -0.00000000000E+00 -0.00000000000E+00 -0.88520474001E+02  0.88520474001E+02  0.00000000000E+00 0.  1.
         24    1    1    2    0    0 -0.17091109236E+01  0.34086687806E+02  0.34567910677E+02  0.93952007688E+02  0.80419002446E+02 0. -1.
          1    1    1    2  501    0 -0.39919351608E+02 -0.46494493460E+02  0.13670625972E+03  0.14981286328E+03  0.00000000000E+00 0. -1.
         -2    1    1    2    0  503  0.41628462532E+02  0.12407805654E+02 -0.43251316603E+02  0.61298930837E+02  0.00000000000E+00 0.  1.
<mgrwt>
<rscale>  2 0.96040123E+02</rscale>
<asrwt>0</asrwt>
<pdfrwt beam="1">  1       21 0.33314358E-01 0.96040123E+02</pdfrwt>
<pdfrwt beam="2">  1       21 0.13618534E-01 0.96040123E+02</pdfrwt>
<totfact> 0.41113653E+05</totfact>
</mgrwt>
</event>
<event>
 5    1  0.1854763E+000  0.1382351E+03  0.7546771E-02  0.1215724E+00
         21   -1    0    0  503  502  0.00000000000E+00  0.00000000000E+00  0.96637476628E+01  0.96637476628E+01  0.00000000000E+00 0. -1.
         21   -1    0    0  501  503 -0.00000000000E+00 -0.00000000000E+00 -0.21021101829E+04  0.21021101829E+04  0.00000000000E+00 0.  1.
         24    1    1    2    0    0 -0.86215620614E+02 -0.32571334544E+02 -0.99428463169E+03  0.10017800007E+04  0.80419002446E+02 0.  0.
          1    1    1    2  501    0  0.18276070248E+01  0.64057375445E+02 -0.62965303896E+03  0.63290570938E+03  0.00000000000E+00 0. -1.
         -2    1    1    2    0  502  0.84388013589E+02 -0.31486040902E+02 -0.46850876464E+03  0.47708822051E+03  0.00000000000E+00 0.  1.
<mgrwt>
<rscale>  2 0.13823508E+03</rscale>
<asrwt>0</asrwt>
<pdfrwt beam="1">  1       21 0.14867301E-02 0.13823508E+03</pdfrwt>
<pdfrwt beam="2">  1       21 0.32340164E+00 0.13823508E+03</pdfrwt>
<totfact> 0.52739408E+04</totfact>
</mgrwt>
</event>
<event>
 5    1  0.1854763E+000  0.7829557E+02  0.7546771E-02  0.1333959E+00
         21   -1    0    0  503  502  0.00000000000E+00  0.00000000000E+00  0.41212084973E+03  0.41212084973E+03  0.00000000000E+00 0.  1.
         21   -1    0    0  501  503 -0.00000000000E+00 -0.00000000000E+00 -0.55707283382E+02  0.55707283382E+02  0.00000000000E+00 0.  1.
         24    1    1    2    0    0 -0.49605736404E+02  0.29114739071E+02 -0.54919859226E+01  0.99024113119E+02  0.80419002446E+02 0.  1.
          1    1    1    2  501    0  0.22891733747E+02 -0.16223315285E+02  0.70277246182E+02  0.75671122389E+02  0.00000000000E+00 0. -1.
         -2    1    1    2    0  502  0.26714002657E+02 -0.12891423786E+02  0.29162830609E+03  0.29313289761E+03  0.00000000000E+00 0.  1.
<mgrwt>
<rscale>  2 0.78295574E+02</rscale>
<asrwt>0</asrwt>
<pdfrwt beam="1">  1       21 0.63403206E-01 0.78295574E+02</pdfrwt>
<pdfrwt beam="2">  1       21 0.85703515E-02 0.78295574E+02</pdfrwt>
<totfact> 0.25194866E+05</totfact>
</mgrwt>
</event>
<event>
 5    1  0.1854763E+000  0.6626311E+02  0.7546771E-02  0.1373282E+00
         21   -1    0    0  503  502  0.00000000000E+00  0.00000000000E+00  0.42639297450E+03  0.42639297450E+03  0.00000000000E+00 0.  1.
         21   -1    0    0  501  503 -0.00000000000E+00 -0.00000000000E+00 -0.40213135463E+02  0.40213135463E+02  0.00000000000E+00 0. -1.
         24    1    1    2    0    0 -0.26451713052E+02  0.21558223246E+02  0.15065646718E+02  0.88648969415E+02  0.80419002446E+02 0. -1.
          1    1    1    2  501    0  0.32517954989E+01 -0.21724278413E+02  0.36933773395E+02  0.42972340683E+02  0.00000000000E+00 0. -1.
         -2    1    1    2    0  502  0.23199917553E+02  0.16605516663E+00  0.33418041892E+03  0.33498479986E+03  0.00000000000E+00 0.  1.
<mgrwt>
<rscale>  2 0.66263111E+02</rscale>
<asrwt>0</asrwt>
<pdfrwt beam="1">  1       21 0.65598916E-01 0.66263111E+02</pdfrwt>
<pdfrwt beam="2">  1       21 0.61866365E-02 0.66263111E+02</pdfrwt>
<totfact> 0.40713033E+05</totfact>
</mgrwt>
</event>
<event>
 5    1  0.1854763E+000  0.9444250E+02  0.7546771E-02  0.1292437E+00
         21   -1    0    0  503  502  0.00000000000E+00  0.00000000000E+00  0.11269924995E+03  0.11269924995E+03  0.00000000000E+00 0.  1.
         21   -1    0    0  501  503 -0.00000000000E+00 -0.00000000000E+00 -0.91056131829E+02  0.91056131829E+02  0.00000000000E+00 0. -1.
         24    1    1    2    0    0 -0.28316322068E+02  0.30680491144E+02  0.37033034579E+02  0.97886506919E+02  0.80419002446E+02 0.  1.
          1    1    1    2  501    0  0.55551375894E+02  0.21803553010E+01 -0.26761421653E+02  0.61699943289E+02  0.00000000000E+00 0. -1.
         -2    1    1    2    0  502 -0.27235053826E+02 -0.32860846445E+02  0.11371505199E+02  0.44168931575E+02  0.00000000000E+00 0.  1.
<mgrwt>
<rscale>  2 0.94442495E+02</rscale>
<asrwt>0</asrwt>
<pdfrwt beam="1">  1       21 0.17338346E-01 0.94442495E+02</pdfrwt>
<pdfrwt beam="2">  1       21 0.14008636E-01 0.94442495E+02</pdfrwt>
<totfact> 0.13248743E+06</totfact>
</mgrwt>
</event>
<event>
 5    1  0.1854763E+000  0.6235136E+02  0.7546771E-02  0.1388221E+00
         21   -1    0    0  503  502  0.00000000000E+00  0.00000000000E+00  0.10697267085E+04  0.10697267085E+04  0.00000000000E+00 0.  1.
         21   -1    0    0  501  503 -0.00000000000E+00 -0.00000000000E+00 -0.13371876959E+02  0.13371876959E+02  0.00000000000E+00 0. -1.
         24    1    1    2    0    0 -0.28929774408E+01 -0.17068611985E+01  0.24295287154E+03  0.25593865757E+03  0.80419002446E+02 0.  1.
          1    1    1    2  501    0 -0.17841175497E+02 -0.99491129758E+01  0.88599175465E+01  0.22266354238E+02  0.00000000000E+00 0. -1.
         -2    1    1    2    0  502  0.20734152938E+02  0.11655974174E+02  0.80454204244E+03  0.80489357364E+03  0.00000000000E+00 0.  1.
<mgrwt>
<rscale>  2 0.62351355E+02</rscale>
<asrwt>0</asrwt>
<pdfrwt beam="1">  1       21 0.16457327E+00 0.62351355E+02</pdfrwt>
<pdfrwt beam="2">  1       21 0.20572127E-02 0.62351355E+02</pdfrwt>
<totfact> 0.28987611E+05</totfact>
</mgrwt>
</event>
<event>
 5    1  0.1854763E+000  0.6651646E+02  0.7546771E-02  0.1372356E+00
         21   -1    0    0  501  502  0.00000000000E+00  0.00000000000E+00  0.48859601205E+02  0.48859601205E+02  0.00000000000E+00 0.  1.
         21   -1    0    0  502  503 -0.00000000000E+00 -0.00000000000E+00 -0.25836336931E+03  0.25836336931E+03  0.00000000000E+00 0.  1.
         24    1    1    2    0    0  0.18713988534E+02  0.73601756368E+01 -0.16491831658E+02  0.84519713784E+02  0.80419002446E+02 0.  1.
          1    1    1    2  501    0  0.84705729165E+01 -0.18818523468E+02  0.60197808198E+01  0.21497097297E+02  0.00000000000E+00 0. -1.
         -2    1    1    2    0  503 -0.27184561451E+02  0.11458347832E+02 -0.19903171727E+03  0.20120615943E+03  0.00000000000E+00 0.  1.
<mgrwt>
<rscale>  2 0.66516456E+02</rscale>
<asrwt>0</asrwt>
<pdfrwt beam="1">  1       21 0.75168617E-02 0.66516456E+02</pdfrwt>
<pdfrwt beam="2">  1       21 0.39748211E-01 0.66516456E+02</pdfrwt>
<totfact> 0.81240379E+05</totfact>
</mgrwt>
</event>
<event>
 5    1  0.1854763E+000  0.7390148E+02  0.7546771E-02  0.1347307E+00
         21   -1    0    0  501  502  0.00000000000E+00  0.00000000000E+00  0.69159806277E+02  0.69159806277E+02  0.00000000000E+00 0. -1.
         21   -1    0    0  502  503 -0.00000000000E+00 -0.00000000000E+00 -0.10638953931E+03  0.10638953931E+03  0.00000000000E+00 0. -1.
         24    1    1    2    0    0  0.42229878511E+02  0.23607047312E+02 -0.48939880245E+02  0.10584414559E+03  0.80419002446E+02 0. -1.
          1    1    1    2  501    0 -0.13492534931E+02 -0.21180647711E+02  0.27157450218E+02  0.36989125952E+02  0.00000000000E+00 0. -1.
         -2    1    1    2    0  503 -0.28737343580E+02 -0.24263996012E+01 -0.15447303006E+02  0.32716074049E+02  0.00000000000E+00 0.  1.
<mgrwt>
<rscale>  2 0.73901484E+02</rscale>
<asrwt>0</asrwt>
<pdfrwt beam="1">  1       21 0.10639970E-01 0.73901484E+02</pdfrwt>
<pdfrwt beam="2">  1       21 0.16367621E-01 0.73901484E+02</pdfrwt>
<totfact> 0.23577570E+06</totfact>
</mgrwt>
</event>
<event>
 5    1  0.1854763E+000  0.9242347E+02  0.7546771E-02  0.1297087E+00
         21   -1    0    0  503  502  0.00000000000E+00  0.00000000000E+00  0.30122893562E+03  0.30122893562E+03  0.00000000000E+00 0.  1.
         21   -1    0    0  501  503 -0.00000000000E+00 -0.00000000000E+00 -0.86077575472E+02  0.86077575472E+02  0.00000000000E+00 0. -1.
         24    1    1    2    0    0  0.23730279813E+02  0.26934029028E+02  0.46317798023E+01  0.88188646878E+02  0.80419002446E+02 0.  1.
          1    1    1    2  501    0  0.34435511016E+02 -0.59555639411E+01 -0.32882422312E+02  0.47984652316E+02  0.00000000000E+00 0. -1.
         -2    1    1    2    0  502 -0.58165790829E+02 -0.20978465087E+02  0.24340200266E+03  0.25113321190E+03  0.00000000000E+00 0.  1.
<mgrwt>
<rscale>  2 0.92423467E+02</rscale>
<asrwt>0</asrwt>
<pdfrwt beam="1">  1       21 0.46342913E-01 0.92423467E+02</pdfrwt>
<pdfrwt beam="2">  1       21 0.13242704E-01 0.92423467E+02</pdfrwt>
<totfact> 0.22510067E+05</totfact>
</mgrwt>
</event>
<event>
 5    1  0.1854763E+000  0.6538789E+02  0.7546771E-02  0.1376518E+00
         21   -1    0    0  503  502  0.00000000000E+00  0.00000000000E+00  0.43156518844E+02  0.43156518844E+02  0.00000000000E+00 0.  1.
         21   -1    0    0  501  503 -0.00000000000E+00 -0.00000000000E+00 -0.10362207230E+03  0.10362207230E+03  0.00000000000E+00 0. -1.
         24    1    1    2    0    0  0.91508570986E+01 -0.17481858773E+00 -0.41892819547E+02  0.91137220888E+02  0.80419002446E+02 0. -1.
          1    1    1    2  501    0  0.16081571831E+02  0.13773807549E+02 -0.16608328671E+02  0.26910431215E+02  0.00000000000E+00 0. -1.
         -2    1    1    2    0  502 -0.25232428930E+02 -0.13598988961E+02 -0.19644052430E+01  0.28730939045E+02  0.00000000000E+00 0.  1.
<mgrwt>
<rscale>  2 0.65387887E+02</rscale>
<asrwt>0</asrwt>
<pdfrwt beam="1">  1       21 0.66394645E-02 0.65387887E+02</pdfrwt>
<pdfrwt beam="2">  1       21 0.15941857E-01 0.65387887E+02</pdfrwt>
<totfact> 0.54661151E+06</totfact>
</mgrwt>
</event>
<event>
 5    1  0.1854763E+000  0.8647856E+02  0.7546771E-02  0.1311611E+00
         21   -1    0    0  503  502  0.00000000000E+00  0.00000000000E+00  0.42735811305E+02  0.42735811305E+02  0.00000000000E+00 0.  1.
         21   -1    0    0  501  503 -0.00000000000E+00 -0.00000000000E+00 -0.35232332960E+03  0.35232332960E+03  0.00000000000E+00 0. -1.
         24    1    1    2    0    0  0.35196049255E+02  0.76765109088E+01 -0.83510204596E+02  0.12140371052E+03  0.80419002446E+02 0.  1.
          1    1    1    2  501    0 -0.18049005340E+02 -0.42416610014E+02 -0.23013113334E+03  0.23470252221E+03  0.00000000000E+00 0. -1.
         -2    1    1    2    0  502 -0.17147043915E+02  0.34740099105E+02  0.40538196465E+01  0.38952908166E+02  0.00000000000E+00 0.  1.
<mgrwt>
<rscale>  2 0.86478562E+02</rscale>
<asrwt>0</asrwt>
<pdfrwt beam="1">  1       21 0.65747405E-02 0.86478562E+02</pdfrwt>
<pdfrwt beam="2">  1       21 0.54203587E-01 0.86478562E+02</pdfrwt>
<totfact> 0.54756647E+05</totfact>
</mgrwt>
</event>
<event>
 5    1  0.1854763E+000  0.1078617E+03  0.7546771E-02  0.1264582E+00
         21   -1    0    0  503  502  0.00000000000E+00  0.00000000000E+00  0.23986695137E+03  0.23986695137E+03  0.00000000000E+00 0. -1.
         21   -1    0    0  501  503 -0.00000000000E+00 -0.00000000000E+00 -0.56691467694E+02  0.56691467694E+02  0.00000000000E+00 0.  1.
         24    1    1    2    0    0  0.18073049858E+02  0.49690421417E+02  0.73773393416E+02  0.12126624692E+03  0.80419002446E+02 0.  1.
          1    1    1    2  501    0 -0.15875787037E+02 -0.83804090068E+02  0.32755315273E+02  0.91367810551E+02  0.00000000000E+00 0. -1.
         -2    1    1    2    0  502 -0.21972628211E+01  0.34113668651E+02  0.76646774992E+02  0.83924361597E+02  0.00000000000E+00 0.  1.
<mgrwt>
<rscale>  2 0.10786168E+03</rscale>
<asrwt>0</asrwt>
<pdfrwt beam="1">  1       21 0.36902607E-01 0.10786168E+03</pdfrwt>
<pdfrwt beam="2">  1       21 0.87217644E-02 0.10786168E+03</pdfrwt>
<totfact> 0.73400888E+05</totfact>
</mgrwt>
</event>
<event>
 5    1  0.1854763E+000  0.6665605E+02  0.7546771E-02  0.1371848E+00
         21   -1    0    0  503  502  0.00000000000E+00  0.00000000000E+00  0.30928949059E+02  0.30928949059E+02  0.00000000000E+00 0. -1.
         21   -1    0    0  501  503 -0.00000000000E+00 -0.00000000000E+00 -0.16928087220E+03  0.16928087220E+03  0.00000000000E+00 0. -1.
         24    1    1    2    0    0  0.10553690413E+02  0.12085693126E+02 -0.60347573020E+02  0.10181596085E+03  0.80419002446E+02 0. -1.
          1    1    1    2  501    0 -0.22450122226E+02  0.11252823884E+02 -0.63867223709E+02  0.68626935656E+02  0.00000000000E+00 0. -1.
         -2    1    1    2    0  502  0.11896431813E+02 -0.23338517010E+02 -0.14137126409E+02  0.29766924752E+02  0.00000000000E+00 0.  1.
<mgrwt>
<rscale>  2 0.66656046E+02</rscale>
<asrwt>0</asrwt>
<pdfrwt beam="1">  1       21 0.47582998E-02 0.66656046E+02</pdfrwt>
<pdfrwt beam="2">  1       21 0.26043211E-01 0.66656046E+02</pdfrwt>
<totfact> 0.38998142E+06</totfact>
</mgrwt>
</event>
<event>
 5    1  0.1854763E+000  0.7577611E+02  0.7546771E-02  0.1341484E+00
         21   -1    0    0  501  502  0.00000000000E+00  0.00000000000E+00  0.24733230549E+03  0.24733230549E+03  0.00000000000E+00 0. -1.
         21   -1    0    0  502  503 -0.00000000000E+00 -0.00000000000E+00 -0.13747510869E+04  0.13747510869E+04  0.00000000000E+00 0.  1.
         24    1    1    2    0    0 -0.47379088284E+02 -0.60430887303E+01  0.11991770774E+03  0.15208145683E+03  0.80419002446E+02 0.  0.
          1    1    1    2  501    0  0.27337967067E+02  0.19761145279E+02  0.10866638418E+03  0.11378159059E+03  0.00000000000E+00 0. -1.
         -2    1    1    2    0  503  0.20041121217E+02 -0.13718056549E+02 -0.13560028734E+04  0.13562203450E+04  0.00000000000E+00 0.  1.
<mgrwt>
<rscale>  2 0.75776112E+02</rscale>
<asrwt>0</asrwt>
<pdfrwt beam="1">  1       21 0.38051123E-01 0.75776112E+02</pdfrwt>
<pdfrwt beam="2">  1       21 0.21150017E+00 0.75776112E+02</pdfrwt>
<totfact> 0.92945648E+02</totfact>
</mgrwt>
</event>
<event>
 5    1  0.1854763E+000  0.1196443E+03  0.7546771E-02  0.1243685E+00
         21   -1    0    0  501  502  0.00000000000E+00  0.00000000000E+00  0.93969801688E+02  0.93969801688E+02  0.00000000000E+00 0.  1.
         21   -1    0    0  502  503 -0.00000000000E+00 -0.00000000000E+00 -0.48212194666E+03  0.48212194666E+03  0.00000000000E+00 0.  1.
         24    1    1    2    0    0 -0.72558207133E+02  0.59896132408E+02  0.23171773215E+02  0.12592214709E+03  0.80419002446E+02 0.  1.
          1    1    1    2  501    0  0.75463922970E+02 -0.23547919180E+02 -0.66159314233E+02  0.10308425208E+03  0.00000000000E+00 0. -1.
         -2    1    1    2    0  503 -0.29057158369E+01 -0.36348213227E+02 -0.34516460396E+03  0.34708534918E+03  0.00000000000E+00 0.  1.
<mgrwt>
<rscale>  2 0.11964426E+03</rscale>
<asrwt>0</asrwt>
<pdfrwt beam="1">  1       21 0.14456893E-01 0.11964426E+03</pdfrwt>
<pdfrwt beam="2">  1       21 0.74172606E-01 0.11964426E+03</pdfrwt>
<totfact> 0.70721412E+04</totfact>
</mgrwt>
</event>
<event>
 5    1  0.1854763E+000  0.7308632E+02  0.7546771E-02  0.1349902E+00
         21   -1    0    0  501  502  0.00000000000E+00  0.00000000000E+00  0.13563960831E+04  0.13563960831E+04  0.00000000000E+00 0. -1.
         21   -1    0    0  502  503 -0.00000000000E+00 -0.00000000000E+00 -0.94892473525E+01  0.94892473525E+01  0.00000000000E+00 0.  1.
         24    1    1    2    0    0 -0.54315157854E+01  0.16312577646E+02  0.19951516456E+03  0.21579879146E+03  0.80419002446E+02 0.  1.
          1    1    1    2  501    0  0.25759061623E+02  0.12534271093E+02  0.86832893295E+03  0.86880134265E+03  0.00000000000E+00 0. -1.
         -2    1    1    2    0  503 -0.20327545838E+02 -0.28846848739E+02  0.27906273822E+03  0.28128519631E+03  0.00000000000E+00 0.  1.
<mgrwt>
<rscale>  2 0.73086316E+02</rscale>
<asrwt>0</asrwt>
<pdfrwt beam="1">  1       21 0.20867617E+00 0.73086316E+02</pdfrwt>
<pdfrwt beam="2">  1       21 0.14598853E-02 0.73086316E+02</pdfrwt>
<totfact> 0.26017073E+05</totfact>
</mgrwt>
</event>
<event>
 5    1  0.1854763E+000  0.1015604E+03  0.7546771E-02  0.1277048E+00
         21   -1    0    0  501  502  0.00000000000E+00  0.00000000000E+00  0.28263150044E+03  0.28263150044E+03  0.00000000000E+00 0. -1.
         21   -1    0    0  502  503 -0.00000000000E+00 -0.00000000000E+00 -0.10172648443E+03  0.10172648443E+03  0.00000000000E+00 0. -1.
         24    1    1    2    0    0 -0.44222787689E+02  0.64111917628E+02  0.87708631838E+02  0.14221818796E+03  0.80419002446E+02 0. -1.
          1    1    1    2  501    0  0.51894895373E+00 -0.42338457563E+02  0.15653785380E+03  0.16216323249E+03  0.00000000000E+00 0. -1.
         -2    1    1    2    0  503  0.43703838735E+02 -0.21773460065E+02 -0.63341469622E+02  0.79976564426E+02  0.00000000000E+00 0.  1.
<mgrwt>
<rscale>  2 0.10156040E+03</rscale>
<asrwt>0</asrwt>
<pdfrwt beam="1">  1       21 0.43481769E-01 0.10156040E+03</pdfrwt>
<pdfrwt beam="2">  1       21 0.15650228E-01 0.10156040E+03</pdfrwt>
<totfact> 0.18949549E+05</totfact>
</mgrwt>
</event>
<event>
 5    1  0.1854763E+000  0.8224909E+02  0.7546771E-02  0.1322787E+00
         21   -1    0    0  503  502  0.00000000000E+00  0.00000000000E+00  0.48180728566E+03  0.48180728566E+03  0.00000000000E+00 0. -1.
         21   -1    0    0  501  503 -0.00000000000E+00 -0.00000000000E+00 -0.19390411678E+02  0.19390411678E+02  0.00000000000E+00 0. -1.
         24    1    1    2    0    0 -0.31392698361E+02  0.44402439709E+02  0.31438667285E+03  0.32903384960E+03  0.80419002446E+02 0. -1.
          1    1    1    2  501    0  0.39104486535E+02 -0.24676294935E+02  0.37250005747E+02  0.59377127979E+02  0.00000000000E+00 0. -1.
         -2    1    1    2    0  502 -0.77117881739E+01 -0.19726144774E+02  0.11078019538E+03  0.11278671976E+03  0.00000000000E+00 0.  1.
<mgrwt>
<rscale>  2 0.82249093E+02</rscale>
<asrwt>0</asrwt>
<pdfrwt beam="1">  1       21 0.74124189E-01 0.82249093E+02</pdfrwt>
<pdfrwt beam="2">  1       21 0.29831406E-02 0.82249093E+02</pdfrwt>
<totfact> 0.10411558E+06</totfact>
</mgrwt>
</event>
<event>
 5    1  0.1854763E+000  0.8403552E+02  0.7546771E-02  0.1317974E+00
         21   -1    0    0  501  502  0.00000000000E+00  0.00000000000E+00  0.25966454189E+02  0.25966454189E+02  0.00000000000E+00 0. -1.
         21   -1    0    0  502  503 -0.00000000000E+00 -0.00000000000E+00 -0.27290968308E+04  0.27290968308E+04  0.00000000000E+00 0.  1.
         24    1    1    2    0    0  0.30323835652E+02  0.21580721978E+02 -0.38217550993E+03  0.39231441334E+03  0.80419002446E+02 0.  1.
          1    1    1    2  501    0  0.85476935741E+01  0.20475464919E+02  0.14555668725E+02  0.26536300064E+02  0.00000000000E+00 0. -1.
         -2    1    1    2    0  503 -0.38871529226E+02 -0.42056186896E+02 -0.23355105354E+04  0.23362125716E+04  0.00000000000E+00 0.  1.
<mgrwt>
<rscale>  2 0.84035524E+02</rscale>
<asrwt>0</asrwt>
<pdfrwt beam="1">  1       21 0.39948423E-02 0.84035524E+02</pdfrwt>
<pdfrwt beam="2">  1       21 0.41986071E+00 0.84035524E+02</pdfrwt>
<totfact> 0.32416215E+03</totfact>
</mgrwt>
</event>
<event>
 5    1  0.1854763E+000  0.7849678E+02  0.7546771E-02  0.1333372E+00
         21   -1    0    0  503  502  0.00000000000E+00  0.00000000000E+00  0.23519426888E+03  0.23519426888E+03  0.00000000000E+00 0. -1.
         21   -1    0    0  501  503 -0.00000000000E+00 -0.00000000000E+00 -0.16366571897E+03  0.16366571897E+03  0.00000000000E+00 0. -1.
         24    1    1    2    0    0 -0.12714613656E+02 -0.43560404119E+02  0.11306740852E+03  0.14598159142E+03  0.80419002446E+02 0. -1.
          1    1    1    2  501    0  0.28826109908E+02  0.16646645570E+02 -0.14292529560E+03  0.14675045329E+03  0.00000000000E+00 0. -1.
         -2    1    1    2    0  502 -0.16111496252E+02  0.26913758549E+02  0.10138643698E+03  0.10612794314E+03  0.00000000000E+00 0.  1.
<mgrwt>
<rscale>  2 0.78496785E+02</rscale>
<asrwt>0</asrwt>
<pdfrwt beam="1">  1       21 0.36183734E-01 0.78496785E+02</pdfrwt>
<pdfrwt beam="2">  1       21 0.25179341E-01 0.78496785E+02</pdfrwt>
<totfact> 0.11520392E+05</totfact>
</mgrwt>
</event>
<event>
 5    1  0.1854763E+000  0.8341447E+02  0.7546771E-02  0.1319632E+00
         21   -1    0    0  501  502  0.00000000000E+00  0.00000000000E+00  0.53570776370E+02  0.53570776370E+02  0.00000000000E+00 0. -1.
         21   -1    0    0  502  503 -0.00000000000E+00 -0.00000000000E+00 -0.25969768358E+03  0.25969768358E+03  0.00000000000E+00 0. -1.
         24    1    1    2    0    0  0.23719092606E+01 -0.75569543979E+01 -0.15198252181E+03  0.17212970808E+03  0.80419002446E+02 0. -1.
          1    1    1    2  501    0  0.79212934766E+00 -0.39174444261E+02  0.26903794136E+02  0.47529766368E+02  0.00000000000E+00 0. -1.
         -2    1    1    2    0  503 -0.31640386083E+01  0.46731398658E+02 -0.81048179539E+02  0.93608985506E+02  0.00000000000E+00 0.  1.
<mgrwt>
<rscale>  2 0.83414472E+02</rscale>
<asrwt>0</asrwt>
<pdfrwt beam="1">  1       21 0.82416578E-02 0.83414472E+02</pdfrwt>
<pdfrwt beam="2">  1       21 0.39953490E-01 0.83414472E+02</pdfrwt>
<totfact> 0.69042265E+05</totfact>
</mgrwt>
</event>
<event>
 5    1  0.1854763E+000  0.7243360E+02  0.7546771E-02  0.1352008E+00
         21   -1    0    0  503  502  0.00000000000E+00  0.00000000000E+00  0.54941208140E+02  0.54941208140E+02  0.00000000000E+00 0.  1.
         21   -1    0    0  501  503 -0.00000000000E+00 -0.00000000000E+00 -0.16862729176E+03  0.16862729176E+03  0.00000000000E+00 0. -1.
         24    1    1    2    0    0  0.40789065396E+02 -0.13105990984E+02 -0.27352117885E+02  0.95136056060E+02  0.80419002446E+02 0.  0.
          1    1    1    2  501    0 -0.25211291271E+02 -0.89435752436E+01 -0.96076503196E+02  0.99731094510E+02  0.00000000000E+00 0. -1.
         -2    1    1    2    0  502 -0.15577774125E+02  0.22049566227E+02  0.97425374565E+01  0.28701349334E+02  0.00000000000E+00 0.  1.
<mgrwt>
<rscale>  2 0.72433596E+02</rscale>
<asrwt>0</asrwt>
<pdfrwt beam="1">  1       21 0.84524938E-02 0.72433596E+02</pdfrwt>
<pdfrwt beam="2">  1       21 0.25942659E-01 0.72433596E+02</pdfrwt>
<totfact> 0.15085849E+06</totfact>
</mgrwt>
</event>
<event>
 5    1  0.1854763E+000  0.7700811E+02  0.7546771E-02  0.1337763E+00
         21   -1    0    0  503  502  0.00000000000E+00  0.00000000000E+00  0.13510741623E+03  0.13510741623E+03  0.00000000000E+00 0. -1.
         21   -1    0    0  501  503 -0.00000000000E+00 -0.00000000000E+00 -0.43933569915E+02  0.43933569915E+02  0.00000000000E+00 0.  1.
         24    1    1    2    0    0 -0.42966260608E+02  0.13409506295E+02  0.51986728562E+02  0.10580997264E+03  0.80419002446E+02 0. -1.
          1    1    1    2  501    0  0.40422630230E+02  0.72285164023E+01  0.25533713937E+02  0.48355051768E+02  0.00000000000E+00 0. -1.
         -2    1    1    2    0  502  0.25436303783E+01 -0.20638022697E+02  0.13653403811E+02  0.24875961730E+02  0.00000000000E+00 0.  1.
<mgrwt>
<rscale>  2 0.77008111E+02</rscale>
<asrwt>0</asrwt>
<pdfrwt beam="1">  1       21 0.20785756E-01 0.77008111E+02</pdfrwt>
<pdfrwt beam="2">  1       21 0.67590108E-02 0.77008111E+02</pdfrwt>
<totfact> 0.33274022E+06</totfact>
</mgrwt>
</event>
<event>
 5    1  0.1854763E+000  0.6563309E+02  0.7546771E-02  0.1375606E+00
         21   -1    0    0  503  502  0.00000000000E+00  0.00000000000E+00  0.25479278479E+03  0.25479278479E+03  0.00000000000E+00 0.  1.
         21   -1    0    0  501  503 -0.00000000000E+00 -0.00000000000E+00 -0.10056977838E+03  0.10056977838E+03  0.00000000000E+00 0. -1.
         24    1    1    2    0    0  0.23702451900E+02 -0.18682892469E+02  0.16124568425E+03  0.18269713556E+03  0.80419002446E+02 0.  0.
          1    1    1    2  501    0 -0.30400106058E+01  0.23873314570E+02 -0.86809293282E+02  0.90083462485E+02  0.00000000000E+00 0. -1.
         -2    1    1    2    0  502 -0.20662441295E+02 -0.51904221013E+01  0.79786615433E+02  0.82581965126E+02  0.00000000000E+00 0.  1.
<mgrwt>
<rscale>  2 0.65633094E+02</rscale>
<asrwt>0</asrwt>
<pdfrwt beam="1">  1       21 0.39198890E-01 0.65633094E+02</pdfrwt>
<pdfrwt beam="2">  1       21 0.15472274E-01 0.65633094E+02</pdfrwt>
<totfact> 0.23992139E+05</totfact>
</mgrwt>
</event>
<event>
 5    1  0.1854763E+000  0.6946820E+02  0.7546771E-02  0.1361911E+00
         21   -1    0    0  503  502  0.00000000000E+00  0.00000000000E+00  0.50170928626E+03  0.50170928626E+03  0.00000000000E+00 0. -1.
         21   -1    0    0  501  503 -0.00000000000E+00 -0.00000000000E+00 -0.11359090458E+02  0.11359090458E+02  0.00000000000E+00 0.  1.
         24    1    1    2    0    0 -0.12859014008E+02  0.16565202256E+02  0.37375809832E+03  0.38288652651E+03  0.80419002446E+02 0. -1.
          1    1    1    2  501    0  0.78608995431E+01  0.18661025216E+02  0.26739086557E+02  0.33541114377E+02  0.00000000000E+00 0. -1.
         -2    1    1    2    0  502  0.49981144647E+01 -0.35226227472E+02  0.89853010923E+02  0.96640735832E+02  0.00000000000E+00 0.  1.
<mgrwt>
<rscale>  2 0.69468200E+02</rscale>
<asrwt>0</asrwt>
<pdfrwt beam="1">  1       21 0.77186027E-01 0.69468200E+02</pdfrwt>
<pdfrwt beam="2">  1       21 0.17475528E-02 0.69468200E+02</pdfrwt>
<totfact> 0.22326738E+06</totfact>
</mgrwt>
</event>
<event>
 5    1  0.1854763E+000  0.6825367E+02  0.7546771E-02  0.1366134E+00
         21   -1    0    0  501  502  0.00000000000E+00  0.00000000000E+00  0.12231098091E+03  0.12231098091E+03  0.00000000000E+00 0. -1.
         21   -1    0    0  502  503 -0.00000000000E+00 -0.00000000000E+00 -0.15381534375E+03  0.15381534375E+03  0.00000000000E+00 0. -1.
         24    1    1    2    0    0 -0.88242485135E+01  0.37133858142E+02 -0.12374789841E+03  0.15243867323E+03  0.80419002446E+02 0. -1.
          1    1    1    2  501    0 -0.94211781983E+01 -0.21460428246E+02  0.96461100896E+02  0.99267580635E+02  0.00000000000E+00 0. -1.
         -2    1    1    2    0  503  0.18245426712E+02 -0.15673429897E+02 -0.42175653296E+01  0.24420070801E+02  0.00000000000E+00 0.  1.
<mgrwt>
<rscale>  2 0.68253666E+02</rscale>
<asrwt>0</asrwt>
<pdfrwt beam="1">  1       21 0.18817074E-01 0.68253666E+02</pdfrwt>
<pdfrwt beam="2">  1       21 0.23663899E-01 0.68253666E+02</pdfrwt>
<totfact> 0.44023891E+05</totfact>
</mgrwt>
</event>
<event>
 5    1  0.1854763E+000  0.1103309E+03  0.7546771E-02  0.1259958E+00
         21   -1    0    0  501  502  0.00000000000E+00  0.00000000000E+00  0.88416094875E+02  0.88416094875E+02  0.00000000000E+00 0. -1.
         21   -1    0    0  502  503 -0.00000000000E+00 -0.00000000000E+00 -0.17533988233E+03  0.17533988233E+03  0.00000000000E+00 0. -1.
         24    1    1    2    0    0  0.12221925660E+02  0.59062685101E+02 -0.57522923152E+02  0.11581830115E+03  0.80419002446E+02 0. -1.
          1    1    1    2  501    0 -0.29188825647E+02 -0.84591225409E+02  0.18203475685E+02  0.91318286701E+02  0.00000000000E+00 0. -1.
         -2    1    1    2    0  503  0.16966899988E+02  0.25528540308E+02 -0.47604339991E+02  0.56619389359E+02  0.00000000000E+00 0.  1.
<mgrwt>
<rscale>  2 0.11033087E+03</rscale>
<asrwt>0</asrwt>
<pdfrwt beam="1">  1       21 0.13602476E-01 0.11033087E+03</pdfrwt>
<pdfrwt beam="2">  1       21 0.26975366E-01 0.11033087E+03</pdfrwt>
<totfact> 0.61715518E+05</totfact>
</mgrwt>
</event>
<event>
 5    1  0.1854763E+000  0.9112431E+02  0.7546771E-02  0.1300152E+00
         21   -1    0    0  501  502  0.00000000000E+00  0.00000000000E+00  0.17519899446E+03  0.17519899446E+03  0.00000000000E+00 0. -1.
         21   -1    0    0  502  503 -0.00000000000E+00 -0.00000000000E+00 -0.10204224355E+03  0.10204224355E+03  0.00000000000E+00 0.  1.
         24    1    1    2    0    0 -0.55600916400E+02  0.47678479649E+02  0.65679248664E+02  0.12706564833E+03  0.80419002446E+02 0. -1.
          1    1    1    2  501    0  0.36971761026E+02 -0.28013484986E+02  0.68891853270E+02  0.83052717604E+02  0.00000000000E+00 0. -1.
         -2    1    1    2    0  503  0.18629155374E+02 -0.19664994663E+02 -0.61414351020E+02  0.67122872080E+02  0.00000000000E+00 0.  1.
<mgrwt>
<rscale>  2 0.91124312E+02</rscale>
<asrwt>0</asrwt>
<pdfrwt beam="1">  1       21 0.26953692E-01 0.91124312E+02</pdfrwt>
<pdfrwt beam="2">  1       21 0.15698807E-01 0.91124312E+02</pdfrwt>
<totfact> 0.47854691E+05</totfact>
</mgrwt>
</event>
<event>
 5    1  0.1854763E+000  0.7883589E+02  0.7546771E-02  0.1332388E+00
         21   -1    0    0  503  502  0.00000000000E+00  0.00000000000E+00  0.45338473727E+02  0.45338473727E+02  0.00000000000E+00 0. -1.
         21   -1    0    0  501  503 -0.00000000000E+00 -0.00000000000E+00 -0.29694058453E+03  0.29694058453E+03  0.00000000000E+00 0. -1.
         24    1    1    2    0    0 -0.32255565247E+02 -0.19847807285E+02 -0.69816533314E+02  0.11303062073E+03  0.80419002446E+02 0. -1.
          1    1    1    2  501    0  0.90169594245E+01 -0.20401190874E+02 -0.18140478208E+03  0.18277091975E+03  0.00000000000E+00 0. -1.
         -2    1    1    2    0  502  0.23238605822E+02  0.40248998159E+02 -0.38079540759E+00  0.46477517775E+02  0.00000000000E+00 0.  1.
<mgrwt>
<rscale>  2 0.78835887E+02</rscale>
<asrwt>0</asrwt>
<pdfrwt beam="1">  1       21 0.69751497E-02 0.78835887E+02</pdfrwt>
<pdfrwt beam="2">  1       21 0.45683168E-01 0.78835887E+02</pdfrwt>
<totfact> 0.70149058E+05</totfact>
</mgrwt>
</event>
<event>
 5    1  0.1854763E+000  0.6937985E+02  0.7546771E-02  0.1362215E+00
         21   -1    0    0  501  502  0.00000000000E+00  0.00000000000E+00  0.31718148133E+03  0.31718148133E+03  0.00000000000E+00 0.  1.
         21   -1    0    0  502  503 -0.00000000000E+00 -0.00000000000E+00 -0.16551504189E+02  0.16551504189E+02  0.00000000000E+00 0. -1.
         24    1    1    2    0    0 -0.37215064252E+02 -0.25595874127E+02  0.23178349940E+03  0.24946125216E+03  0.80419002446E+02 0. -1.
          1    1    1    2  501    0  0.14888265337E+02  0.17006045009E+02  0.45703783633E+02  0.50987271450E+02  0.00000000000E+00 0. -1.
         -2    1    1    2    0  503  0.22326798915E+02  0.85898291187E+01  0.23142694107E+02  0.33284461910E+02  0.00000000000E+00 0.  1.
<mgrwt>
<rscale>  2 0.69379850E+02</rscale>
<asrwt>0</asrwt>
<pdfrwt beam="1">  1       21 0.48797146E-01 0.69379850E+02</pdfrwt>
<pdfrwt beam="2">  1       21 0.25463855E-02 0.69379850E+02</pdfrwt>
<totfact> 0.32017764E+06</totfact>
</mgrwt>
</event>
<event>
 5    1  0.1854763E+000  0.8818275E+02  0.7546771E-02  0.1307313E+00
         21   -1    0    0  503  502  0.00000000000E+00  0.00000000000E+00  0.32281360728E+03  0.32281360728E+03  0.00000000000E+00 0. -1.
         21   -1    0    0  501  503 -0.00000000000E+00 -0.00000000000E+00 -0.55322232029E+02  0.55322232029E+02  0.00000000000E+00 0. -1.
         24    1    1    2    0    0 -0.13115606848E+02 -0.62713814359E+02  0.22966796046E+03  0.25163391995E+03  0.80419002446E+02 0. -1.
          1    1    1    2  501    0 -0.12623646416E+02  0.18868722358E+02 -0.32549590649E+02  0.39684518186E+02  0.00000000000E+00 0. -1.
         -2    1    1    2    0  502  0.25739253264E+02  0.43845092001E+02  0.70373005444E+02  0.86817401173E+02  0.00000000000E+00 0.  1.
<mgrwt>
<rscale>  2 0.88182752E+02</rscale>
<asrwt>0</asrwt>
<pdfrwt beam="1">  1       21 0.49663631E-01 0.88182752E+02</pdfrwt>
<pdfrwt beam="2">  1       21 0.85111128E-02 0.88182752E+02</pdfrwt>
<totfact> 0.42245624E+05</totfact>
</mgrwt>
</event>
<event>
 5    1  0.1854763E+000  0.9780689E+02  0.7546771E-02  0.1284977E+00
         21   -1    0    0  501  502  0.00000000000E+00  0.00000000000E+00  0.50385552646E+03  0.50385552646E+03  0.00000000000E+00 0.  1.
         21   -1    0    0  502  503 -0.00000000000E+00 -0.00000000000E+00 -0.23982141465E+02  0.23982141465E+02  0.00000000000E+00 0.  1.
         24    1    1    2    0    0 -0.73329273507E+02  0.34546998973E+02  0.20613354923E+03  0.23564577986E+03  0.80419002446E+02 0.  1.
          1    1    1    2  501    0  0.38042685139E+02 -0.13634511368E+02  0.22448805422E+03  0.22809654158E+03  0.00000000000E+00 0. -1.
         -2    1    1    2    0  503  0.35286588368E+02 -0.20912487605E+02  0.49251781549E+02  0.64095346494E+02  0.00000000000E+00 0.  1.
<mgrwt>
<rscale>  2 0.97806892E+02</rscale>
<asrwt>0</asrwt>
<pdfrwt beam="1">  1       21 0.77516227E-01 0.97806892E+02</pdfrwt>
<pdfrwt beam="2">  1       21 0.36895606E-02 0.97806892E+02</pdfrwt>
<totfact> 0.66824181E+05</totfact>
</mgrwt>
</event>
<event>
 5    1  0.1854763E+000  0.1079146E+03  0.7546771E-02  0.1264481E+00
         21   -1    0    0  503  502  0.00000000000E+00  0.00000000000E+00  0.58898810222E+02  0.58898810222E+02  0.00000000000E+00 0. -1.
         21   -1    0    0  501  503 -0.00000000000E+00 -0.00000000000E+00 -0.25541328998E+03  0.25541328998E+03  0.00000000000E+00 0. -1.
         24    1    1    2    0    0  0.88552739002E+02  0.89124844223E+01 -0.37827677160E+02  0.12577427828E+03  0.80419002446E+02 0. -1.
          1    1    1    2  501    0 -0.67217172530E+02 -0.22146564179E+02 -0.14119465503E+03  0.15793843483E+03  0.00000000000E+00 0. -1.
         -2    1    1    2    0  502 -0.21335566472E+02  0.13234079757E+02 -0.17492147564E+02  0.30599387087E+02  0.00000000000E+00 0.  1.
<mgrwt>
<rscale>  2 0.10791464E+03</rscale>
<asrwt>0</asrwt>
<pdfrwt beam="1">  1       21 0.90613556E-02 0.10791464E+03</pdfrwt>
<pdfrwt beam="2">  1       21 0.39294352E-01 0.10791464E+03</pdfrwt>
<totfact> 0.60696629E+05</totfact>
</mgrwt>
</event>
<event>
 5    1  0.1854763E+000  0.8995576E+02  0.7546771E-02  0.1302959E+00
         21   -1    0    0  503  502  0.00000000000E+00  0.00000000000E+00  0.79253669500E+03  0.79253669500E+03  0.00000000000E+00 0. -1.
         21   -1    0    0  501  503 -0.00000000000E+00 -0.00000000000E+00 -0.25295485945E+02  0.25295485945E+02  0.00000000000E+00 0. -1.
         24    1    1    2    0    0 -0.47081310866E+02  0.44482442875E+02  0.68807845360E+03  0.69578337995E+03  0.80419002446E+02 0. -1.
          1    1    1    2  501    0  0.27292707640E+02  0.72581107182E+00 -0.16579467775E+01  0.27352650320E+02  0.00000000000E+00 0. -1.
         -2    1    1    2    0  502  0.19788603227E+02 -0.45208253947E+02  0.80820702227E+02  0.94696150667E+02  0.00000000000E+00 0.  1.
<mgrwt>
<rscale>  2 0.89955759E+02</rscale>
<asrwt>0</asrwt>
<pdfrwt beam="1">  1       21 0.12192870E+00 0.89955759E+02</pdfrwt>
<pdfrwt beam="2">  1       21 0.38916138E-02 0.89955759E+02</pdfrwt>
<totfact> 0.21601532E+05</totfact>
</mgrwt>
</event>
<event>
 5    1  0.1854763E+000  0.7893895E+02  0.7546771E-02  0.1332090E+00
         21   -1    0    0  503  502  0.00000000000E+00  0.00000000000E+00  0.95287217678E+02  0.95287217678E+02  0.00000000000E+00 0.  1.
         21   -1    0    0  501  503 -0.00000000000E+00 -0.00000000000E+00 -0.69521933809E+02  0.69521933809E+02  0.00000000000E+00 0.  1.
         24    1    1    2    0    0  0.52961362825E+02 -0.91566363768E+01  0.32583542764E+02  0.10206690529E+03  0.80419002446E+02 0.  1.
          1    1    1    2  501    0 -0.24262766140E+02  0.18994668474E+02 -0.96064563759E+01  0.32276357528E+02  0.00000000000E+00 0. -1.
         -2    1    1    2    0  502 -0.28698596685E+02 -0.98380320971E+01  0.27881974810E+01  0.30465888669E+02  0.00000000000E+00 0.  1.
<mgrwt>
<rscale>  2 0.78938949E+02</rscale>
<asrwt>0</asrwt>
<pdfrwt beam="1">  1       21 0.14659572E-01 0.78938949E+02</pdfrwt>
<pdfrwt beam="2">  1       21 0.10695682E-01 0.78938949E+02</pdfrwt>
<totfact> 0.28532470E+06</totfact>
</mgrwt>
</event>
<event>
 5    1  0.1854763E+000  0.6361149E+02  0.7546771E-02  0.1383272E+00
         21   -1    0    0  503  502  0.00000000000E+00  0.00000000000E+00  0.41390012915E+03  0.41390012915E+03  0.00000000000E+00 0.  1.
         21   -1    0    0  501  503 -0.00000000000E+00 -0.00000000000E+00 -0.11139678483E+02  0.11139678483E+02  0.00000000000E+00 0. -1.
         24    1    1    2    0    0  0.20438481701E+02  0.55946527983E+01  0.23317600678E+03  0.24756271481E+03  0.80419002446E+02 0.  0.
          1    1    1    2  501    0 -0.81696400568E+01 -0.22060662567E+02  0.41051977902E+02  0.47314698997E+02  0.00000000000E+00 0. -1.
         -2    1    1    2    0  502 -0.12268841644E+02  0.16466009769E+02  0.12853246598E+03  0.13016239382E+03  0.00000000000E+00 0.  1.
<mgrwt>
<rscale>  2 0.63611493E+02</rscale>
<asrwt>0</asrwt>
<pdfrwt beam="1">  1       21 0.63676931E-01 0.63611493E+02</pdfrwt>
<pdfrwt beam="2">  1       21 0.17137970E-02 0.63611493E+02</pdfrwt>
<totfact> 0.34573610E+06</totfact>
</mgrwt>
</event>
<event>
 5    1  0.1854763E+000  0.1009420E+03  0.7546771E-02  0.1278327E+00
         21   -1    0    0  501  502  0.00000000000E+00  0.00000000000E+00  0.14721342823E+03  0.14721342823E+03  0.00000000000E+00 0. -1.
         21   -1    0    0  502  503 -0.00000000000E+00 -0.00000000000E+00 -0.20778959534E+03  0.20778959534E+03  0.00000000000E+00 0.  1.
         24    1    1    2    0    0 -0.54468024682E+02 -0.12730193780E+02  0.90659461555E+01  0.98377999982E+02  0.80419002446E+02 0. -1.
          1    1    1    2  501    0  0.17016344646E+02  0.48950282942E+02  0.81597037762E+02  0.96663140632E+02  0.00000000000E+00 0. -1.
         -2    1    1    2    0  503  0.37451680036E+02 -0.36220089163E+02 -0.15123915102E+03  0.15996188295E+03  0.00000000000E+00 0.  1.
<mgrwt>
<rscale>  2 0.10094203E+03</rscale>
<asrwt>0</asrwt>
<pdfrwt beam="1">  1       21 0.22648220E-01 0.10094203E+03</pdfrwt>
<pdfrwt beam="2">  1       21 0.31967630E-01 0.10094203E+03</pdfrwt>
<totfact> 0.17673944E+05</totfact>
</mgrwt>
</event>
<event>
 5    1  0.1854763E+000  0.8921035E+02  0.7546771E-02  0.1304775E+00
         21   -1    0    0  501  502  0.00000000000E+00  0.00000000000E+00  0.54518718477E+02  0.54518718477E+02  0.00000000000E+00 0.  1.
         21   -1    0    0  502  503 -0.00000000000E+00 -0.00000000000E+00 -0.18084896730E+03  0.18084896730E+03  0.00000000000E+00 0. -1.
         24    1    1    2    0    0  0.53894654035E+02 -0.70109215015E+01 -0.50831341817E+02  0.10956654608E+03  0.80419002446E+02 0. -1.
          1    1    1    2  501    0 -0.57875223283E+01  0.28203073326E+02  0.54294730849E+01  0.29298258271E+02  0.00000000000E+00 0. -1.
         -2    1    1    2    0  503 -0.48107131706E+02 -0.21192151825E+02 -0.80928380089E+02  0.96502881427E+02  0.00000000000E+00 0.  1.
<mgrwt>
<rscale>  2 0.89210355E+02</rscale>
<asrwt>0</asrwt>
<pdfrwt beam="1">  1       21 0.83874953E-02 0.89210355E+02</pdfrwt>
<pdfrwt beam="2">  1       21 0.27822918E-01 0.89210355E+02</pdfrwt>
<totfact> 0.13496380E+06</totfact>
</mgrwt>
</event>
<event>
 5    1  0.1854763E+000  0.7464346E+02  0.7546771E-02  0.1344979E+00
         21   -1    0    0  501  502  0.00000000000E+00  0.00000000000E+00  0.14673610521E+04  0.14673610521E+04  0.00000000000E+00 0. -1.
         21   -1    0    0  502  503 -0.00000000000E+00 -0.00000000000E+00 -0.22199645985E+02  0.22199645985E+02  0.00000000000E+00 0.  1.
         24    1    1    2    0    0  0.75228550219E+00  0.17347133919E+02  0.63174140573E+02  0.10372886281E+03  0.80419002446E+02 0.  1.
          1    1    1    2  501    0 -0.27827858025E+02 -0.26506851386E+02  0.12582255262E+04  0.12588123282E+04  0.00000000000E+00 0. -1.
         -2    1    1    2    0  503  0.27075572523E+02  0.91597174670E+01  0.12376173933E+03  0.12701950706E+03  0.00000000000E+00 0.  1.
<mgrwt>
<rscale>  2 0.74643460E+02</rscale>
<asrwt>0</asrwt>
<pdfrwt beam="1">  1       21 0.22574778E+00 0.74643460E+02</pdfrwt>
<pdfrwt beam="2">  1       21 0.34153313E-02 0.74643460E+02</pdfrwt>
<totfact> 0.53063477E+04</totfact>
</mgrwt>
</event>
<event>
 5    1  0.1854763E+000  0.1147136E+03  0.7546771E-02  0.1252082E+00
         21   -1    0    0  501  502  0.00000000000E+00  0.00000000000E+00  0.18977573636E+03  0.18977573636E+03  0.00000000000E+00 0.  1.
         21   -1    0    0  502  503 -0.00000000000E+00 -0.00000000000E+00 -0.76370409403E+02  0.76370409403E+02  0.00000000000E+00 0. -1.
         24    1    1    2    0    0  0.37365051964E+02  0.26489639277E+02  0.45803369609E+02  0.10326186479E+03  0.80419002446E+02 0.  1.
          1    1    1    2  501    0 -0.34883496807E+02 -0.77929076923E+02  0.71322766214E+02  0.11125078139E+03  0.00000000000E+00 0. -1.
         -2    1    1    2    0  503 -0.24815551576E+01  0.51439437645E+02 -0.37208088636E+01  0.51633499589E+02  0.00000000000E+00 0.  1.
<mgrwt>
<rscale>  2 0.11471361E+03</rscale>
<asrwt>0</asrwt>
<pdfrwt beam="1">  1       21 0.29196267E-01 0.11471361E+03</pdfrwt>
<pdfrwt beam="2">  1       21 0.11749294E-01 0.11471361E+03</pdfrwt>
<totfact> 0.68796362E+05</totfact>
</mgrwt>
</event>
<event>
 5    1  0.2752710E+000  0.8902719E+02  0.7546771E-02  0.1305225E+00
         21   -1    0    0  503  502  0.00000000000E+00  0.00000000000E+00  0.10362300577E+04  0.10362300577E+04  0.00000000000E+00 0.  1.
         21   -1    0    0  501  503 -0.00000000000E+00 -0.00000000000E+00 -0.64265539424E+02  0.64265539424E+02  0.00000000000E+00 0. -1.
         24    1    1    2    0    0 -0.28264032139E+02 -0.66659822390E+01  0.55967283778E+03  0.56616622306E+03  0.80419002446E+02 0.  0.
          1    1    1    2  501    0  0.28775619115E+02  0.45434825743E+02 -0.48193513240E+02  0.72214779403E+02  0.00000000000E+00 0. -1.
         -2    1    1    2    0  502 -0.51158697692E+00 -0.38768843504E+02  0.46048519376E+03  0.46211459468E+03  0.00000000000E+00 0.  1.
<mgrwt>
<rscale>  2 0.89027191E+02</rscale>
<asrwt>0</asrwt>
<pdfrwt beam="1">  1       21 0.15942000E+00 0.89027191E+02</pdfrwt>
<pdfrwt beam="2">  1       21 0.98870069E-02 0.89027191E+02</pdfrwt>
<totfact> 0.22989324E+04</totfact>
</mgrwt>
</event>
<event>
 5    1  0.1854763E+000  0.1447344E+03  0.7546771E-02  0.1207097E+00
         21   -1    0    0  501  502  0.00000000000E+00  0.00000000000E+00  0.33504949201E+03  0.33504949201E+03  0.00000000000E+00 0. -1.
         21   -1    0    0  502  503 -0.00000000000E+00 -0.00000000000E+00 -0.83197341518E+02  0.83197341518E+02  0.00000000000E+00 0.  1.
         24    1    1    2    0    0 -0.95704726771E+02  0.74352585647E+02  0.99201286278E+02  0.17605627757E+03  0.80419002446E+02 0. -1.
          1    1    1    2  501    0  0.60222243482E+02 -0.87465965871E+02  0.17010401010E+03  0.20053026716E+03  0.00000000000E+00 0. -1.
         -2    1    1    2    0  503  0.35482483289E+02  0.13113380223E+02 -0.17453145886E+02  0.41660288796E+02  0.00000000000E+00 0.  1.
<mgrwt>
<rscale>  2 0.14473436E+03</rscale>
<asrwt>0</asrwt>
<pdfrwt beam="1">  1       21 0.51546075E-01 0.14473436E+03</pdfrwt>
<pdfrwt beam="2">  1       21 0.12799591E-01 0.14473436E+03</pdfrwt>
<totfact> 0.18953146E+05</totfact>
</mgrwt>
</event>
<event>
 5    1  0.1854763E+000  0.6370607E+02  0.7546771E-02  0.1382906E+00
         21   -1    0    0  501  502  0.00000000000E+00  0.00000000000E+00  0.12521340446E+03  0.12521340446E+03  0.00000000000E+00 0.  1.
         21   -1    0    0  502  503 -0.00000000000E+00 -0.00000000000E+00 -0.55682336390E+02  0.55682336390E+02  0.00000000000E+00 0. -1.
         24    1    1    2    0    0  0.13207079850E+02 -0.18466030825E+02  0.65474127457E+02  0.10615789454E+03  0.80419002446E+02 0.  0.
          1    1    1    2  501    0  0.97834783768E+01  0.18422721233E+02  0.32219674332E+02  0.38382554903E+02  0.00000000000E+00 0. -1.
         -2    1    1    2    0  503 -0.22990558227E+02  0.43309592035E-01 -0.28162733715E+02  0.36355291411E+02  0.00000000000E+00 0.  1.
<mgrwt>
<rscale>  2 0.63706070E+02</rscale>
<asrwt>0</asrwt>
<pdfrwt beam="1">  1       21 0.19263601E-01 0.63706070E+02</pdfrwt>
<pdfrwt beam="2">  1       21 0.85665133E-02 0.63706070E+02</pdfrwt>
<totfact> 0.25300238E+06</totfact>
</mgrwt>
</event>
<event>
 5    1  0.1854763E+000  0.8667198E+02  0.7546771E-02  0.1311117E+00
         21   -1    0    0  501  502  0.00000000000E+00  0.00000000000E+00  0.28840339216E+03  0.28840339216E+03  0.00000000000E+00 0. -1.
         21   -1    0    0  502  503 -0.00000000000E+00 -0.00000000000E+00 -0.40535882181E+02  0.40535882181E+02  0.00000000000E+00 0. -1.
         24    1    1    2    0    0  0.27837455712E+02 -0.48329369475E+02  0.85559178076E+02  0.12999323368E+03  0.80419002446E+02 0. -1.
          1    1    1    2  501    0 -0.73881698386E+01  0.53803247335E+02  0.16838149600E+03  0.17692287210E+03  0.00000000000E+00 0. -1.
         -2    1    1    2    0  503 -0.20449285874E+02 -0.54738778596E+01 -0.60731640931E+01  0.22023168566E+02  0.00000000000E+00 0.  1.
<mgrwt>
<rscale>  2 0.86671982E+02</rscale>
<asrwt>0</asrwt>
<pdfrwt beam="1">  1       21 0.44369751E-01 0.86671982E+02</pdfrwt>
<pdfrwt beam="2">  1       21 0.62362897E-02 0.86671982E+02</pdfrwt>
<totfact> 0.89935747E+05</totfact>
</mgrwt>
</event>
<event>
 5    1  0.1854763E+000  0.8703979E+02  0.7546771E-02  0.1310183E+00
         21   -1    0    0  501  502  0.00000000000E+00  0.00000000000E+00  0.16585096423E+04  0.16585096423E+04  0.00000000000E+00 0. -1.
         21   -1    0    0  502  503 -0.00000000000E+00 -0.00000000000E+00 -0.60355526711E+02  0.60355526711E+02  0.00000000000E+00 0.  1.
         24    1    1    2    0    0  0.33964865180E+02  0.10663762844E+02  0.31854106376E+03  0.33045870115E+03  0.80419002446E+02 0.  0.
          1    1    1    2  501    0 -0.41298775314E+02 -0.39036452394E+02  0.13294112796E+04  0.13306253356E+04  0.00000000000E+00 0. -1.
         -2    1    1    2    0  503  0.73339101346E+01  0.28372689550E+02 -0.49798227795E+02  0.57781132229E+02  0.00000000000E+00 0.  1.
<mgrwt>
<rscale>  2 0.87039789E+02</rscale>
<asrwt>0</asrwt>
<pdfrwt beam="1">  1       21 0.25515530E+00 0.87039789E+02</pdfrwt>
<pdfrwt beam="2">  1       21 0.92854669E-02 0.87039789E+02</pdfrwt>
<totfact> 0.66582899E+03</totfact>
</mgrwt>
</event>
<event>
 5    1  0.1854763E+000  0.1471428E+03  0.7546771E-02  0.1204028E+00
         21   -1    0    0  503  502  0.00000000000E+00  0.00000000000E+00  0.13848449994E+03  0.13848449994E+03  0.00000000000E+00 0.  1.
         21   -1    0    0  501  503 -0.00000000000E+00 -0.00000000000E+00 -0.19006087680E+03  0.19006087680E+03  0.00000000000E+00 0. -1.
         24    1    1    2    0    0  0.11184396824E+02  0.52799110471E+02  0.11220991572E+02  0.97498530271E+02  0.80419002446E+02 0.  1.
          1    1    1    2  501    0  0.81385455512E+02 -0.64877911373E+02 -0.85815506394E+02  0.13489639317E+03  0.00000000000E+00 0. -1.
         -2    1    1    2    0  502 -0.92569852337E+02  0.12078800902E+02  0.23018137967E+02  0.96150453292E+02  0.00000000000E+00 0.  1.
<mgrwt>
<rscale>  2 0.14714283E+03</rscale>
<asrwt>0</asrwt>
<pdfrwt beam="1">  1       21 0.21305308E-01 0.14714283E+03</pdfrwt>
<pdfrwt beam="2">  1       21 0.29240135E-01 0.14714283E+03</pdfrwt>
<totfact> 0.23238232E+05</totfact>
</mgrwt>
</event>
<event>
 5    1  0.1854763E+000  0.1272595E+03  0.7546771E-02  0.1231580E+00
         21   -1    0    0  501  502  0.00000000000E+00  0.00000000000E+00  0.15561264847E+03  0.15561264847E+03  0.00000000000E+00 0. -1.
         21   -1    0    0  502  503 -0.00000000000E+00 -0.00000000000E+00 -0.18396718799E+04  0.18396718799E+04  0.00000000000E+00 0.  1.
         24    1    1    2    0    0 -0.19766390006E+02 -0.11282436939E+03  0.10981657983E+03  0.17789588433E+03  0.80419002446E+02 0. -1.
          1    1    1    2  501    0  0.10659434230E+02  0.54386612533E+02 -0.56984328016E+02  0.79490507612E+02  0.00000000000E+00 0. -1.
         -2    1    1    2    0  503  0.91069557755E+01  0.58437756859E+02 -0.17368914832E+04  0.17378981364E+04  0.00000000000E+00 0.  1.
<mgrwt>
<rscale>  2 0.12725949E+03</rscale>
<asrwt>0</asrwt>
<pdfrwt beam="1">  1       21 0.23940408E-01 0.12725949E+03</pdfrwt>
<pdfrwt beam="2">  1       21 0.28302644E+00 0.12725949E+03</pdfrwt>
<totfact> 0.78158526E+02</totfact>
</mgrwt>
</event>
<event>
 5    1  0.1854763E+000  0.7838877E+02  0.7546771E-02  0.1333687E+00
         21   -1    0    0  503  502  0.00000000000E+00  0.00000000000E+00  0.36146190412E+02  0.36146190412E+02  0.00000000000E+00 0.  1.
         21   -1    0    0  501  503 -0.00000000000E+00 -0.00000000000E+00 -0.41813977974E+03  0.41813977974E+03  0.00000000000E+00 0. -1.
         24    1    1    2    0    0 -0.41520547805E+02 -0.77602804490E+01 -0.17995766233E+03  0.20158411155E+03  0.80419002446E+02 0.  1.
          1    1    1    2  501    0  0.85004420688E+01 -0.20681212203E+02 -0.20757061125E+03  0.20877147484E+03  0.00000000000E+00 0. -1.
         -2    1    1    2    0  502  0.33020105737E+02  0.28441492652E+02  0.55346842574E+01  0.43930383756E+02  0.00000000000E+00 0.  1.
<mgrwt>
<rscale>  2 0.78388766E+02</rscale>
<asrwt>0</asrwt>
<pdfrwt beam="1">  1       21 0.55609526E-02 0.78388766E+02</pdfrwt>
<pdfrwt beam="2">  1       21 0.64329195E-01 0.78388766E+02</pdfrwt>
<totfact> 0.50687261E+05</totfact>
</mgrwt>
</event>
<event>
 5    1  0.1854763E+000  0.7193906E+02  0.7546771E-02  0.1353621E+00
         21   -1    0    0  501  502  0.00000000000E+00  0.00000000000E+00  0.10082699649E+03  0.10082699649E+03  0.00000000000E+00 0.  1.
         21   -1    0    0  502  503 -0.00000000000E+00 -0.00000000000E+00 -0.62673758205E+02  0.62673758205E+02  0.00000000000E+00 0. -1.
         24    1    1    2    0    0 -0.76113249274E+01 -0.38084760847E+01 -0.13313082921E+02  0.81956640295E+02  0.80419002446E+02 0. -1.
          1    1    1    2  501    0  0.27146063836E+02 -0.18883363949E+02  0.30549876630E+02  0.45019830941E+02  0.00000000000E+00 0. -1.
         -2    1    1    2    0  503 -0.19534738909E+02  0.22691840034E+02  0.20916444572E+02  0.36524283455E+02  0.00000000000E+00 0.  1.
<mgrwt>
<rscale>  2 0.71939060E+02</rscale>
<asrwt>0</asrwt>
<pdfrwt beam="1">  1       21 0.15511846E-01 0.71939060E+02</pdfrwt>
<pdfrwt beam="2">  1       21 0.96421167E-02 0.71939060E+02</pdfrwt>
<totfact> 0.30697584E+06</totfact>
</mgrwt>
</event>
<event>
 5    1  0.2060732E+000  0.9201863E+02  0.7546771E-02  0.1298036E+00
         21   -1    0    0  501  502  0.00000000000E+00  0.00000000000E+00  0.40426022453E+02  0.40426022453E+02  0.00000000000E+00 0.  1.
         21   -1    0    0  502  503 -0.00000000000E+00 -0.00000000000E+00 -0.11390316655E+04  0.11390316655E+04  0.00000000000E+00 0.  1.
         24    1    1    2    0    0 -0.13142426782E+00  0.28352127821E+02 -0.26187394297E+02  0.89201210747E+02  0.80419002446E+02 0.  1.
          1    1    1    2  501    0 -0.20278551492E+02 -0.58750670850E+02 -0.10407139343E+03  0.12121763860E+03  0.00000000000E+00 0. -1.
         -2    1    1    2    0  503  0.20409975759E+02  0.30398543029E+02 -0.96834685536E+03  0.96903883866E+03  0.00000000000E+00 0.  1.
<mgrwt>
<rscale>  2 0.92018628E+02</rscale>
<asrwt>0</asrwt>
<pdfrwt beam="1">  1       21 0.62193881E-02 0.92018628E+02</pdfrwt>
<pdfrwt beam="2">  1       21 0.17523564E+00 0.92018628E+02</pdfrwt>
<totfact> 0.39357570E+04</totfact>
</mgrwt>
</event>
<event>
 5    1  0.1854763E+000  0.1197308E+03  0.7546771E-02  0.1243542E+00
         21   -1    0    0  503  502  0.00000000000E+00  0.00000000000E+00  0.30647468884E+03  0.30647468884E+03  0.00000000000E+00 0.  1.
         21   -1    0    0  501  503 -0.00000000000E+00 -0.00000000000E+00 -0.58792580982E+02  0.58792580982E+02  0.00000000000E+00 0.  1.
         24    1    1    2    0    0 -0.97102197928E+02  0.40003031645E+02  0.86872712622E+02  0.15825031923E+03  0.80419002446E+02 0.  1.
          1    1    1    2  501    0  0.64847185586E+02 -0.15479489961E+02  0.35942866439E+02  0.75740753467E+02  0.00000000000E+00 0. -1.
         -2    1    1    2    0  502  0.32255012342E+02 -0.24523541684E+02  0.12486652879E+03  0.13127619712E+03  0.00000000000E+00 0.  1.
<mgrwt>
<rscale>  2 0.11973085E+03</rscale>
<asrwt>0</asrwt>
<pdfrwt beam="1">  1       21 0.47149951E-01 0.11973085E+03</pdfrwt>
<pdfrwt beam="2">  1       21 0.90450126E-02 0.11973085E+03</pdfrwt>
<totfact> 0.42155990E+05</totfact>
</mgrwt>
</event>
<event>
 5    1  0.1854763E+000  0.6973516E+02  0.7546771E-02  0.1360996E+00
         21   -1    0    0  503  502  0.00000000000E+00  0.00000000000E+00  0.13681830850E+04  0.13681830850E+04  0.00000000000E+00 0.  1.
         21   -1    0    0  501  503 -0.00000000000E+00 -0.00000000000E+00 -0.66959519405E+01  0.66959519405E+01  0.00000000000E+00 0. -1.
         24    1    1    2    0    0  0.15053944724E+02 -0.10400304865E+02  0.52214809432E+03  0.52862144862E+03  0.80419002446E+02 0.  1.
          1    1    1    2  501    0  0.18640687579E+02  0.13709581586E+02  0.40066275781E+02  0.46268070152E+02  0.00000000000E+00 0. -1.
         -2    1    1    2    0  502 -0.33694632303E+02 -0.33092767214E+01  0.79927276298E+03  0.79998951818E+03  0.00000000000E+00 0.  1.
<mgrwt>
<rscale>  2 0.69735162E+02</rscale>
<asrwt>0</asrwt>
<pdfrwt beam="1">  1       21 0.21048948E+00 0.69735162E+02</pdfrwt>
<pdfrwt beam="2">  1       21 0.10301475E-02 0.69735162E+02</pdfrwt>
<totfact> 0.43898007E+05</totfact>
</mgrwt>
</event>
<event>
 5    1  0.1854763E+000  0.6554208E+02  0.7546771E-02  0.1375944E+00
         21   -1    0    0  501  502  0.00000000000E+00  0.00000000000E+00  0.73985932656E+03  0.73985932656E+03  0.00000000000E+00 0. -1.
         21   -1    0    0  502  503 -0.00000000000E+00 -0.00000000000E+00 -0.12569668973E+02  0.12569668973E+02  0.00000000000E+00 0.  1.
         24    1    1    2    0    0 -0.16811020945E+02 -0.31416074996E+01  0.16132168273E+03  0.18106457798E+03  0.80419002446E+02 0.  0.
          1    1    1    2  501    0  0.72207862065E+00  0.23167339681E+02  0.50050910115E+03  0.50104551426E+03  0.00000000000E+00 0. -1.
         -2    1    1    2    0  503  0.16088942324E+02 -0.20025732181E+02  0.65458873704E+02  0.70318903299E+02  0.00000000000E+00 0.  1.
<mgrwt>
<rscale>  2 0.65542084E+02</rscale>
<asrwt>0</asrwt>
<pdfrwt beam="1">  1       21 0.11382448E+00 0.65542084E+02</pdfrwt>
<pdfrwt beam="2">  1       21 0.19337958E-02 0.65542084E+02</pdfrwt>
<totfact> 0.78971355E+05</totfact>
</mgrwt>
</event>
<event>
 5    1  0.1854763E+000  0.8204657E+02  0.7546771E-02  0.1323342E+00
         21   -1    0    0  501  502  0.00000000000E+00  0.00000000000E+00  0.11708570115E+03  0.11708570115E+03  0.00000000000E+00 0. -1.
         21   -1    0    0  502  503 -0.00000000000E+00 -0.00000000000E+00 -0.59972819097E+02  0.59972819097E+02  0.00000000000E+00 0.  1.
         24    1    1    2    0    0  0.22724176025E+02  0.21492738216E+02  0.25061981690E+02  0.89853463220E+02  0.80419002446E+02 0.  1.
          1    1    1    2  501    0 -0.27571864927E+02  0.21236491127E+02  0.26711707458E+02  0.43871535263E+02  0.00000000000E+00 0. -1.
         -2    1    1    2    0  503  0.48476889026E+01 -0.42729229343E+02  0.53391929086E+01  0.43333521768E+02  0.00000000000E+00 0.  1.
<mgrwt>
<rscale>  2 0.82046569E+02</rscale>
<asrwt>0</asrwt>
<pdfrwt beam="1">  1       21 0.18013185E-01 0.82046569E+02</pdfrwt>
<pdfrwt beam="2">  1       21 0.92265876E-02 0.82046569E+02</pdfrwt>
<totfact> 0.25511363E+06</totfact>
</mgrwt>
</event>
<event>
 5    1  0.1854763E+000  0.8074635E+02  0.7546771E-02  0.1326947E+00
         21   -1    0    0  503  502  0.00000000000E+00  0.00000000000E+00  0.27235742212E+03  0.27235742212E+03  0.00000000000E+00 0.  1.
         21   -1    0    0  501  503 -0.00000000000E+00 -0.00000000000E+00 -0.14171480789E+03  0.14171480789E+03  0.00000000000E+00 0. -1.
         24    1    1    2    0    0  0.29483100066E+02 -0.46574244969E+02 -0.18938613353E+02  0.99319185025E+02  0.80419002446E+02 0.  1.
          1    1    1    2  501    0 -0.25449265189E+02  0.10229904492E+02 -0.78813293977E+02  0.83449693541E+02  0.00000000000E+00 0. -1.
         -2    1    1    2    0  502 -0.40338348774E+01  0.36344340477E+02  0.22839452157E+03  0.23130335145E+03  0.00000000000E+00 0.  1.
<mgrwt>
<rscale>  2 0.80746355E+02</rscale>
<asrwt>0</asrwt>
<pdfrwt beam="1">  1       21 0.41901142E-01 0.80746355E+02</pdfrwt>
<pdfrwt beam="2">  1       21 0.21802278E-01 0.80746355E+02</pdfrwt>
<totfact> 0.11262545E+05</totfact>
</mgrwt>
</event>
<event>
 5    1  0.1854763E+000  0.7627549E+02  0.7546771E-02  0.1339966E+00
         21   -1    0    0  503  502  0.00000000000E+00  0.00000000000E+00  0.29738052550E+02  0.29738052550E+02  0.00000000000E+00 0.  1.
         21   -1    0    0  501  503 -0.00000000000E+00 -0.00000000000E+00 -0.40645044396E+03  0.40645044396E+03  0.00000000000E+00 0. -1.
         24    1    1    2    0    0  0.33568436966E+02  0.88046327278E+01 -0.30083430110E+03  0.31332547645E+03  0.80419002446E+02 0. -1.
          1    1    1    2  501    0 -0.10120648440E+02 -0.31040564609E+02 -0.83504912680E+02  0.89660552183E+02  0.00000000000E+00 0. -1.
         -2    1    1    2    0  502 -0.23447788526E+02  0.22235931881E+02  0.76268223760E+01  0.33202467874E+02  0.00000000000E+00 0.  1.
<mgrwt>
<rscale>  2 0.76275487E+02</rscale>
<asrwt>0</asrwt>
<pdfrwt beam="1">  1       21 0.45750855E-02 0.76275487E+02</pdfrwt>
<pdfrwt beam="2">  1       21 0.62530831E-01 0.76275487E+02</pdfrwt>
<totfact> 0.74362704E+05</totfact>
</mgrwt>
</event>
<event>
 5    1  0.1854763E+000  0.7492296E+02  0.7546771E-02  0.1344110E+00
         21   -1    0    0  503  502  0.00000000000E+00  0.00000000000E+00  0.19824998330E+02  0.19824998330E+02  0.00000000000E+00 0. -1.
         21   -1    0    0  501  503 -0.00000000000E+00 -0.00000000000E+00 -0.44885003413E+03  0.44885003413E+03  0.00000000000E+00 0. -1.
         24    1    1    2    0    0  0.52825882927E+02  0.72814715795E+01 -0.28317052353E+03  0.29915941416E+03  0.80419002446E+02 0. -1.
          1    1    1    2  501    0 -0.22695057311E+02 -0.22648522530E+01 -0.13528339400E+03  0.13719253578E+03  0.00000000000E+00 0. -1.
         -2    1    1    2    0  502 -0.30130825616E+02 -0.50166193265E+01 -0.10571118280E+02  0.32323082518E+02  0.00000000000E+00 0.  1.
<mgrwt>
<rscale>  2 0.74922958E+02</rscale>
<asrwt>0</asrwt>
<pdfrwt beam="1">  1       21 0.30500000E-02 0.74922958E+02</pdfrwt>
<pdfrwt beam="2">  1       21 0.69053845E-01 0.74922958E+02</pdfrwt>
<totfact> 0.11680447E+06</totfact>
</mgrwt>
</event>
<event>
 5    1  0.1854763E+000  0.7793856E+02  0.7546771E-02  0.1335005E+00
         21   -1    0    0  503  502  0.00000000000E+00  0.00000000000E+00  0.88511631372E+01  0.88511631372E+01  0.00000000000E+00 0.  1.
         21   -1    0    0  501  503 -0.00000000000E+00 -0.00000000000E+00 -0.76073899316E+03  0.76073899316E+03  0.00000000000E+00 0.  1.
         24    1    1    2    0    0 -0.31591427065E+02  0.16006262058E+02 -0.53702673035E+03  0.54416830462E+03  0.80419002446E+02 0.  1.
          1    1    1    2  501    0 -0.11069733805E+02 -0.22286694711E+02 -0.86737068141E+02  0.90236105619E+02  0.00000000000E+00 0. -1.
         -2    1    1    2    0  502  0.42661160869E+02  0.62804326528E+01 -0.12812403153E+03  0.13518574605E+03  0.00000000000E+00 0.  1.
<mgrwt>
<rscale>  2 0.77938559E+02</rscale>
<asrwt>0</asrwt>
<pdfrwt beam="1">  1       21 0.13617172E-02 0.77938559E+02</pdfrwt>
<pdfrwt beam="2">  1       21 0.11703679E+00 0.77938559E+02</pdfrwt>
<totfact> 0.12892516E+06</totfact>
</mgrwt>
</event>
<event>
 5    1  0.1854763E+000  0.7802309E+02  0.7546771E-02  0.1334757E+00
         21   -1    0    0  501  502  0.00000000000E+00  0.00000000000E+00  0.39439935254E+02  0.39439935254E+02  0.00000000000E+00 0. -1.
         21   -1    0    0  502  503 -0.00000000000E+00 -0.00000000000E+00 -0.24676497467E+03  0.24676497467E+03  0.00000000000E+00 0.  1.
         24    1    1    2    0    0 -0.22526590102E+02 -0.85816080037E+01 -0.50481580024E+02  0.97962733392E+02  0.80419002446E+02 0. -1.
          1    1    1    2  501    0  0.46982614587E+02  0.77830576827E+01 -0.24310026208E+02  0.53468864160E+02  0.00000000000E+00 0. -1.
         -2    1    1    2    0  503 -0.24456024485E+02  0.79855032098E+00 -0.13253343318E+03  0.13477331237E+03  0.00000000000E+00 0.  1.
<mgrwt>
<rscale>  2 0.78023085E+02</rscale>
<asrwt>0</asrwt>
<pdfrwt beam="1">  1       21 0.60676825E-02 0.78023085E+02</pdfrwt>
<pdfrwt beam="2">  1       21 0.37963842E-01 0.78023085E+02</pdfrwt>
<totfact> 0.12793540E+06</totfact>
</mgrwt>
</event>
<event>
 5    1  0.1854763E+000  0.7019669E+02  0.7546771E-02  0.1359425E+00
         21   -1    0    0  501  502  0.00000000000E+00  0.00000000000E+00  0.48226798834E+03  0.48226798834E+03  0.00000000000E+00 0. -1.
         21   -1    0    0  502  503 -0.00000000000E+00 -0.00000000000E+00 -0.78736944480E+02  0.78736944480E+02  0.00000000000E+00 0.  1.
         24    1    1    2    0    0  0.11997746194E+02  0.17843715985E+02  0.18644296253E+03  0.20418261029E+03  0.80419002446E+02 0.  0.
          1    1    1    2  501    0  0.17780138004E+01 -0.35057211675E+02  0.28410846764E+03  0.28626873879E+03  0.00000000000E+00 0. -1.
         -2    1    1    2    0  503 -0.13775759995E+02  0.17213495690E+02 -0.67020386310E+02  0.70553583740E+02  0.00000000000E+00 0.  1.
<mgrwt>
<rscale>  2 0.70196691E+02</rscale>
<asrwt>0</asrwt>
<pdfrwt beam="1">  1       21 0.74195073E-01 0.70196691E+02</pdfrwt>
<pdfrwt beam="2">  1       21 0.12113376E-01 0.70196691E+02</pdfrwt>
<totfact> 0.99478302E+04</totfact>
</mgrwt>
</event>
<event>
 5    1  0.1854763E+000  0.1605111E+03  0.7546771E-02  0.1188121E+00
         21   -1    0    0  501  502  0.00000000000E+00  0.00000000000E+00  0.13892836869E+03  0.13892836869E+03  0.00000000000E+00 0. -1.
         21   -1    0    0  502  503 -0.00000000000E+00 -0.00000000000E+00 -0.28908587687E+03  0.28908587687E+03  0.00000000000E+00 0.  1.
         24    1    1    2    0    0 -0.22972829018E+02 -0.11276004225E+03 -0.11835922076E+03  0.18362652067E+03  0.80419002446E+02 0. -1.
          1    1    1    2  501    0 -0.50253006342E+01  0.14086799003E+03  0.53139422377E+02  0.15064143677E+03  0.00000000000E+00 0. -1.
         -2    1    1    2    0  503  0.27998129652E+02 -0.28107947780E+02 -0.84937709789E+02  0.93746288122E+02  0.00000000000E+00 0.  1.
<mgrwt>
<rscale>  2 0.16051112E+03</rscale>
<asrwt>0</asrwt>
<pdfrwt beam="1">  1       21 0.21373595E-01 0.16051112E+03</pdfrwt>
<pdfrwt beam="2">  1       21 0.44474750E-01 0.16051112E+03</pdfrwt>
<totfact> 0.10020255E+05</totfact>
</mgrwt>
</event>
<event>
 5    1  0.1854763E+000  0.6644718E+02  0.7546771E-02  0.1372609E+00
         21   -1    0    0  501  502  0.00000000000E+00  0.00000000000E+00  0.11190044160E+04  0.11190044160E+04  0.00000000000E+00 0. -1.
         21   -1    0    0  502  503 -0.00000000000E+00 -0.00000000000E+00 -0.62639075159E+01  0.62639075159E+01  0.00000000000E+00 0.  1.
         24    1    1    2    0    0  0.14706184667E+02  0.17705696505E+02  0.90810248754E+03  0.91194687750E+03  0.80419002446E+02 0. -1.
          1    1    1    2  501    0  0.12726956359E+02 -0.17715611964E+02  0.15568495656E+03  0.15720567427E+03  0.00000000000E+00 0. -1.
         -2    1    1    2    0  503 -0.27433141026E+02  0.99154591793E-02  0.48953064369E+02  0.56115771723E+02  0.00000000000E+00 0.  1.
<mgrwt>
<rscale>  2 0.66447176E+02</rscale>
<asrwt>0</asrwt>
<pdfrwt beam="1">  1       21 0.17215437E+00 0.66447176E+02</pdfrwt>
<pdfrwt beam="2">  1       21 0.96367897E-03 0.66447176E+02</pdfrwt>
<totfact> 0.84487097E+05</totfact>
</mgrwt>
</event>
<event>
 5    1  0.1854763E+000  0.1230805E+03  0.7546771E-02  0.1238100E+00
         21   -1    0    0  503  502  0.00000000000E+00  0.00000000000E+00  0.12556226270E+04  0.12556226270E+04  0.00000000000E+00 0. -1.
         21   -1    0    0  501  503 -0.00000000000E+00 -0.00000000000E+00 -0.20787946201E+02  0.20787946201E+02  0.00000000000E+00 0.  1.
         24    1    1    2    0    0  0.69002696850E+02 -0.55362315201E+02  0.60653918896E+03  0.61820980405E+03  0.80419002446E+02 0. -1.
          1    1    1    2  501    0  0.54909598348E+01 -0.19939837447E+02 -0.35895174065E+00  0.20685178357E+02  0.00000000000E+00 0. -1.
         -2    1    1    2    0  502 -0.74493656685E+02  0.75302152649E+02  0.62865444354E+03  0.63751559076E+03  0.00000000000E+00 0.  1.
<mgrwt>
<rscale>  2 0.12308049E+03</rscale>
<asrwt>0</asrwt>
<pdfrwt beam="1">  1       21 0.19317265E+00 0.12308049E+03</pdfrwt>
<pdfrwt beam="2">  1       21 0.31981465E-02 0.12308049E+03</pdfrwt>
<totfact> 0.88380482E+04</totfact>
</mgrwt>
</event>
<event>
 5    1  0.1854763E+000  0.1092902E+03  0.7546771E-02  0.1261890E+00
         21   -1    0    0  501  502  0.00000000000E+00  0.00000000000E+00  0.44068805305E+02  0.44068805305E+02  0.00000000000E+00 0. -1.
         21   -1    0    0  502  503 -0.00000000000E+00 -0.00000000000E+00 -0.71434614918E+03  0.71434614918E+03  0.00000000000E+00 0.  1.
         24    1    1    2    0    0  0.68011478544E+02  0.14110579171E+02 -0.12921603120E+03  0.16729814205E+03  0.80419002446E+02 0. -1.
          1    1    1    2  501    0 -0.54254784901E+02 -0.50062520215E+02 -0.31763601506E+02  0.80366435753E+02  0.00000000000E+00 0. -1.
         -2    1    1    2    0  503 -0.13756693643E+02  0.35951941044E+02 -0.50929771117E+03  0.51075037669E+03  0.00000000000E+00 0.  1.
<mgrwt>
<rscale>  2 0.10929015E+03</rscale>
<asrwt>0</asrwt>
<pdfrwt beam="1">  1       21 0.67798168E-02 0.10929015E+03</pdfrwt>
<pdfrwt beam="2">  1       21 0.10989940E+00 0.10929015E+03</pdfrwt>
<totfact> 0.10853447E+05</totfact>
</mgrwt>
</event>
<event>
 5    1  0.1854763E+000  0.1281442E+03  0.7546771E-02  0.1230236E+00
         21   -1    0    0  503  502  0.00000000000E+00  0.00000000000E+00  0.42394942721E+03  0.42394942721E+03  0.00000000000E+00 0.  1.
         21   -1    0    0  501  503 -0.00000000000E+00 -0.00000000000E+00 -0.23231801329E+03  0.23231801329E+03  0.00000000000E+00 0.  1.
         24    1    1    2    0    0 -0.42620522589E+02 -0.74140251248E+01 -0.89768172253E+02  0.12805083919E+03  0.80419002446E+02 0.  1.
          1    1    1    2  501    0  0.92693457791E+02  0.44343187513E+02 -0.99045270843E+02  0.14271776719E+03  0.00000000000E+00 0. -1.
         -2    1    1    2    0  502 -0.50072935202E+02 -0.36929162388E+02  0.38044485702E+03  0.38549883412E+03  0.00000000000E+00 0.  1.
<mgrwt>
<rscale>  2 0.12814418E+03</rscale>
<asrwt>0</asrwt>
<pdfrwt beam="1">  1       21 0.65222989E-01 0.12814418E+03</pdfrwt>
<pdfrwt beam="2">  1       21 0.35741233E-01 0.12814418E+03</pdfrwt>
<totfact> 0.17064233E+04</totfact>
</mgrwt>
</event>
<event>
 5    1  0.1854763E+000  0.9119974E+02  0.7546771E-02  0.1299972E+00
         21   -1    0    0  501  502  0.00000000000E+00  0.00000000000E+00  0.42669474886E+03  0.42669474886E+03  0.00000000000E+00 0.  1.
         21   -1    0    0  502  503 -0.00000000000E+00 -0.00000000000E+00 -0.51125282957E+02  0.51125282957E+02  0.00000000000E+00 0.  1.
         24    1    1    2    0    0 -0.47037038569E+02  0.37911238214E+02  0.19164080929E+03  0.21643280879E+03  0.80419002446E+02 0.  1.
          1    1    1    2  501    0  0.45123269205E+02 -0.12864403039E+01  0.21101811762E+03  0.21579251682E+03  0.00000000000E+00 0. -1.
         -2    1    1    2    0  503  0.19137693645E+01 -0.36624797910E+02 -0.27089461016E+02  0.45594706197E+02  0.00000000000E+00 0.  1.
<mgrwt>
<rscale>  2 0.91199736E+02</rscale>
<asrwt>0</asrwt>
<pdfrwt beam="1">  1       21 0.65645344E-01 0.91199736E+02</pdfrwt>
<pdfrwt beam="2">  1       21 0.78654284E-02 0.91199736E+02</pdfrwt>
<totfact> 0.27014636E+05</totfact>
</mgrwt>
</event>
<event>
 5    1  0.1854763E+000  0.6216188E+02  0.7546771E-02  0.1388977E+00
         21   -1    0    0  503  502  0.00000000000E+00  0.00000000000E+00  0.43888290223E+02  0.43888290223E+02  0.00000000000E+00 0.  1.
         21   -1    0    0  501  503 -0.00000000000E+00 -0.00000000000E+00 -0.14517095103E+04  0.14517095103E+04  0.00000000000E+00 0.  1.
         24    1    1    2    0    0  0.12407078344E+01  0.91628096569E+00 -0.11241842099E+04  0.11270579988E+04  0.80419002446E+02 0.  1.
          1    1    1    2  501    0  0.15421077664E+01 -0.22286266921E+02 -0.32294243107E+03  0.32371417883E+03  0.00000000000E+00 0. -1.
         -2    1    1    2    0  502 -0.27828156009E+01  0.21369985955E+02  0.39305420853E+02  0.44825622928E+02  0.00000000000E+00 0.  1.
<mgrwt>
<rscale>  2 0.62161881E+02</rscale>
<asrwt>0</asrwt>
<pdfrwt beam="1">  1       21 0.67520446E-02 0.62161881E+02</pdfrwt>
<pdfrwt beam="2">  1       21 0.22333993E+00 0.62161881E+02</pdfrwt>
<totfact> 0.18222841E+04</totfact>
</mgrwt>
</event>
<event>
 5    1  0.1854763E+000  0.1402481E+03  0.7546771E-02  0.1212996E+00
         21   -1    0    0  503  502  0.00000000000E+00  0.00000000000E+00  0.29570455211E+03  0.29570455211E+03  0.00000000000E+00 0.  1.
         21   -1    0    0  501  503 -0.00000000000E+00 -0.00000000000E+00 -0.76929905926E+02  0.76929905926E+02  0.00000000000E+00 0.  1.
         24    1    1    2    0    0  0.50777784881E+02  0.11174002911E+03  0.48907883035E+02  0.15467195777E+03  0.80419002446E+02 0.  1.
          1    1    1    2  501    0  0.81433861681E+01 -0.40502372377E+02  0.33376313851E+02  0.53110594355E+02  0.00000000000E+00 0. -1.
         -2    1    1    2    0  502 -0.58921171049E+02 -0.71237656729E+02  0.13649044930E+03  0.16485190591E+03  0.00000000000E+00 0.  1.
<mgrwt>
<rscale>  2 0.14024809E+03</rscale>
<asrwt>0</asrwt>
<pdfrwt beam="1">  1       21 0.45493007E-01 0.14024809E+03</pdfrwt>
<pdfrwt beam="2">  1       21 0.11835370E-01 0.14024809E+03</pdfrwt>
<totfact> 0.28207169E+05</totfact>
</mgrwt>
</event>
<event>
 5    1  0.1854763E+000  0.7187126E+02  0.7546771E-02  0.1353843E+00
         21   -1    0    0  501  502  0.00000000000E+00  0.00000000000E+00  0.22606541032E+02  0.22606541032E+02  0.00000000000E+00 0.  1.
         21   -1    0    0  502  503 -0.00000000000E+00 -0.00000000000E+00 -0.37279349803E+03  0.37279349803E+03  0.00000000000E+00 0. -1.
         24    1    1    2    0    0  0.45675138223E+02 -0.16656006476E+02 -0.10450752745E+03  0.14054422810E+03  0.80419002446E+02 0.  1.
          1    1    1    2  501    0 -0.22702550016E+02  0.13931516091E+02 -0.41125754925E+02  0.48998169720E+02  0.00000000000E+00 0. -1.
         -2    1    1    2    0  503 -0.22972588208E+02  0.27244903858E+01 -0.20455367462E+03  0.20585764124E+03  0.00000000000E+00 0.  1.
<mgrwt>
<rscale>  2 0.71871265E+02</rscale>
<asrwt>0</asrwt>
<pdfrwt beam="1">  1       21 0.34779298E-02 0.71871265E+02</pdfrwt>
<pdfrwt beam="2">  1       21 0.57352839E-01 0.71871265E+02</pdfrwt>
<totfact> 0.13935310E+06</totfact>
</mgrwt>
</event>
<event>
 5    1  0.1854763E+000  0.6444511E+02  0.7546771E-02  0.1380071E+00
         21   -1    0    0  501  502  0.00000000000E+00  0.00000000000E+00  0.79021017457E+02  0.79021017457E+02  0.00000000000E+00 0.  1.
         21   -1    0    0  502  503 -0.00000000000E+00 -0.00000000000E+00 -0.59890515561E+02  0.59890515561E+02  0.00000000000E+00 0.  1.
         24    1    1    2    0    0 -0.21252448578E+02  0.37486417490E+01  0.26919351940E+02  0.87507635946E+02  0.80419002446E+02 0.  1.
          1    1    1    2  501    0  0.89077850617E+01 -0.21918426577E+02  0.72933236573E+01  0.24758001298E+02  0.00000000000E+00 0. -1.
         -2    1    1    2    0  503  0.12344663517E+02  0.18169784828E+02 -0.15082173701E+02  0.26645895774E+02  0.00000000000E+00 0.  1.
<mgrwt>
<rscale>  2 0.64445115E+02</rscale>
<asrwt>0</asrwt>
<pdfrwt beam="1">  1       21 0.12157080E-01 0.64445115E+02</pdfrwt>
<pdfrwt beam="2">  1       21 0.92139254E-02 0.64445115E+02</pdfrwt>
<totfact> 0.50532803E+06</totfact>
</mgrwt>
</event>
<event>
 5    1  0.1854763E+000  0.8382771E+02  0.7546771E-02  0.1318527E+00
         21   -1    0    0  501  502  0.00000000000E+00  0.00000000000E+00  0.61083051725E+02  0.61083051725E+02  0.00000000000E+00 0. -1.
         21   -1    0    0  502  503 -0.00000000000E+00 -0.00000000000E+00 -0.17081746756E+03  0.17081746756E+03  0.00000000000E+00 0.  1.
         24    1    1    2    0    0 -0.36246771201E+02 -0.18402810250E+02  0.50534067409E+01  0.90251009533E+02  0.80419002446E+02 0. -1.
          1    1    1    2  501    0  0.55738013513E+02  0.11859283392E+02 -0.58247991102E+02  0.81487405287E+02  0.00000000000E+00 0. -1.
         -2    1    1    2    0  503 -0.19491242312E+02  0.65435268580E+01 -0.56539831472E+02  0.60162104464E+02  0.00000000000E+00 0.  1.
<mgrwt>
<rscale>  2 0.83827709E+02</rscale>
<asrwt>0</asrwt>
<pdfrwt beam="1">  1       21 0.93973927E-02 0.83827709E+02</pdfrwt>
<pdfrwt beam="2">  1       21 0.26279610E-01 0.83827709E+02</pdfrwt>
<totfact> 0.12341195E+06</totfact>
</mgrwt>
</event>
<event>
 5    1  0.1854763E+000  0.8492882E+02  0.7546771E-02  0.1315619E+00
         21   -1    0    0  501  502  0.00000000000E+00  0.00000000000E+00  0.15035280283E+02  0.15035280283E+02  0.00000000000E+00 0. -1.
         21   -1    0    0  502  503 -0.00000000000E+00 -0.00000000000E+00 -0.11825243173E+04  0.11825243173E+04  0.00000000000E+00 0.  1.
         24    1    1    2    0    0 -0.20537372648E+02  0.23508666463E+02 -0.51440125170E+03  0.52158441770E+03  0.80419002446E+02 0. -1.
          1    1    1    2  501    0  0.34765880434E+02  0.18399728558E+02 -0.25606819203E+02  0.46935334697E+02  0.00000000000E+00 0. -1.
         -2    1    1    2    0  503 -0.14228507786E+02 -0.41908395021E+02 -0.62748096611E+03  0.62903984519E+03  0.00000000000E+00 0.  1.
<mgrwt>
<rscale>  2 0.84928819E+02</rscale>
<asrwt>0</asrwt>
<pdfrwt beam="1">  1       21 0.23131190E-02 0.84928819E+02</pdfrwt>
<pdfrwt beam="2">  1       21 0.18192690E+00 0.84928819E+02</pdfrwt>
<totfact> 0.18172161E+05</totfact>
</mgrwt>
</event>
<event>
 5    1  0.1854763E+000  0.1099957E+03  0.7546771E-02  0.1260578E+00
         21   -1    0    0  501  502  0.00000000000E+00  0.00000000000E+00  0.13124407776E+03  0.13124407776E+03  0.00000000000E+00 0. -1.
         21   -1    0    0  502  503 -0.00000000000E+00 -0.00000000000E+00 -0.12065988447E+03  0.12065988447E+03  0.00000000000E+00 0. -1.
         24    1    1    2    0    0 -0.49845047947E+02 -0.17781994950E+02 -0.55768220497E+02  0.11125663360E+03  0.80419002446E+02 0. -1.
          1    1    1    2  501    0  0.86086060063E+02  0.14898763847E+02  0.51178412026E+02  0.10125222348E+03  0.00000000000E+00 0. -1.
         -2    1    1    2    0  503 -0.36241012117E+02  0.28832311032E+01  0.15174001759E+02  0.39395105155E+02  0.00000000000E+00 0.  1.
<mgrwt>
<rscale>  2 0.10999574E+03</rscale>
<asrwt>0</asrwt>
<pdfrwt beam="1">  1       21 0.20191396E-01 0.10999574E+03</pdfrwt>
<pdfrwt beam="2">  1       21 0.18563059E-01 0.10999574E+03</pdfrwt>
<totfact> 0.60524854E+05</totfact>
</mgrwt>
</event>
<event>
 5    1  0.1854763E+000  0.1065668E+03  0.7546771E-02  0.1267063E+00
         21   -1    0    0  503  502  0.00000000000E+00  0.00000000000E+00  0.16204656849E+02  0.16204656849E+02  0.00000000000E+00 0.  1.
         21   -1    0    0  501  503 -0.00000000000E+00 -0.00000000000E+00 -0.99512648393E+03  0.99512648393E+03  0.00000000000E+00 0. -1.
         24    1    1    2    0    0 -0.32803601384E+01  0.12788861491E+02 -0.42356030103E+03  0.43132917859E+03  0.80419002446E+02 0. -1.
          1    1    1    2  501    0  0.62225983955E+02  0.18480230094E+02 -0.45420732362E+03  0.45882228021E+03  0.00000000000E+00 0. -1.
         -2    1    1    2    0  502 -0.58945623817E+02 -0.31269091584E+02 -0.10115420243E+03  0.12117968198E+03  0.00000000000E+00 0.  1.
<mgrwt>
<rscale>  2 0.10656683E+03</rscale>
<asrwt>0</asrwt>
<pdfrwt beam="1">  1       21 0.24930237E-02 0.10656683E+03</pdfrwt>
<pdfrwt beam="2">  1       21 0.15309641E+00 0.10656683E+03</pdfrwt>
<totfact> 0.25132679E+05</totfact>
</mgrwt>
</event>
<event>
 5    1  0.1854763E+000  0.8680819E+02  0.7546771E-02  0.1310771E+00
         21   -1    0    0  501  502  0.00000000000E+00  0.00000000000E+00  0.58716659364E+03  0.58716659364E+03  0.00000000000E+00 0.  1.
         21   -1    0    0  502  503 -0.00000000000E+00 -0.00000000000E+00 -0.13820395504E+02  0.13820395504E+02  0.00000000000E+00 0. -1.
         24    1    1    2    0    0 -0.13427914985E+02 -0.26607494133E+01  0.19406890443E+03  0.21051684994E+03  0.80419002446E+02 0. -1.
          1    1    1    2  501    0  0.33507942069E+00 -0.43784212699E+02  0.20581119272E+03  0.21041724409E+03  0.00000000000E+00 0. -1.
         -2    1    1    2    0  503  0.13092835564E+02  0.46444962112E+02  0.17346610099E+03  0.18005289512E+03  0.00000000000E+00 0.  1.
<mgrwt>
<rscale>  2 0.86808188E+02</rscale>
<asrwt>0</asrwt>
<pdfrwt beam="1">  1       21 0.90333303E-01 0.86808188E+02</pdfrwt>
<pdfrwt beam="2">  1       21 0.21262151E-02 0.86808188E+02</pdfrwt>
<totfact> 0.11605346E+06</totfact>
</mgrwt>
</event>
<event>
 5    1  0.1854763E+000  0.8273117E+02  0.7546771E-02  0.1321475E+00
         21   -1    0    0  503  502  0.00000000000E+00  0.00000000000E+00  0.15574946205E+03  0.15574946205E+03  0.00000000000E+00 0. -1.
         21   -1    0    0  501  503 -0.00000000000E+00 -0.00000000000E+00 -0.48251227997E+02  0.48251227997E+02  0.00000000000E+00 0. -1.
         24    1    1    2    0    0 -0.55382109014E+02  0.16430975015E+02  0.53779184968E+02  0.11267906473E+03  0.80419002446E+02 0. -1.
          1    1    1    2  501    0  0.36056444343E+02  0.63072448310E+01  0.92273638702E+01  0.37749076280E+02  0.00000000000E+00 0. -1.
         -2    1    1    2    0  502  0.19325664671E+02 -0.22738219846E+02  0.44491685213E+02  0.53572549032E+02  0.00000000000E+00 0.  1.
<mgrwt>
<rscale>  2 0.82731172E+02</rscale>
<asrwt>0</asrwt>
<pdfrwt beam="1">  1       21 0.23961456E-01 0.82731172E+02</pdfrwt>
<pdfrwt beam="2">  1       21 0.74232659E-02 0.82731172E+02</pdfrwt>
<totfact> 0.21930519E+06</totfact>
</mgrwt>
</event>
<event>
 5    1  0.1854763E+000  0.9713654E+02  0.7546771E-02  0.1286435E+00
         21   -1    0    0  501  502  0.00000000000E+00  0.00000000000E+00  0.37785608580E+03  0.37785608580E+03  0.00000000000E+00 0. -1.
         21   -1    0    0  502  503 -0.00000000000E+00 -0.00000000000E+00 -0.54230697770E+02  0.54230697770E+02  0.00000000000E+00 0.  1.
         24    1    1    2    0    0 -0.11214535114E+02 -0.42406264073E+02  0.14891369029E+03  0.17483294924E+03  0.80419002446E+02 0. -1.
          1    1    1    2  501    0  0.47932836601E+02  0.45149492856E+02  0.20132636121E+03  0.21182147495E+03  0.00000000000E+00 0. -1.
         -2    1    1    2    0  503 -0.36718301486E+02 -0.27432287830E+01 -0.26614663465E+02  0.45432359388E+02  0.00000000000E+00 0.  1.
<mgrwt>
<rscale>  2 0.97136545E+02</rscale>
<asrwt>0</asrwt>
<pdfrwt beam="1">  1       21 0.58131704E-01 0.97136545E+02</pdfrwt>
<pdfrwt beam="2">  1       21 0.83431845E-02 0.97136545E+02</pdfrwt>
<totfact> 0.31538372E+05</totfact>
</mgrwt>
</event>
<event>
 5    1  0.1854763E+000  0.6450631E+02  0.7546771E-02  0.1379838E+00
         21   -1    0    0  503  502  0.00000000000E+00  0.00000000000E+00  0.24688509053E+02  0.24688509053E+02  0.00000000000E+00 0.  1.
         21   -1    0    0  501  503 -0.00000000000E+00 -0.00000000000E+00 -0.32043163353E+03  0.32043163353E+03  0.00000000000E+00 0. -1.
         24    1    1    2    0    0  0.17617504726E+02 -0.10473899431E+02 -0.15784185451E+03  0.17832931904E+03  0.80419002446E+02 0.  0.
          1    1    1    2  501    0 -0.20157977190E+02 -0.11964411346E+02 -0.14192985706E+03  0.14385261732E+03  0.00000000000E+00 0. -1.
         -2    1    1    2    0  502  0.25404724641E+01  0.22438310777E+02  0.40285870899E+01  0.22938206225E+02  0.00000000000E+00 0.  1.
<mgrwt>
<rscale>  2 0.64506313E+02</rscale>
<asrwt>0</asrwt>
<pdfrwt beam="1">  1       21 0.37982324E-02 0.64506313E+02</pdfrwt>
<pdfrwt beam="2">  1       21 0.49297172E-01 0.64506313E+02</pdfrwt>
<totfact> 0.16383362E+06</totfact>
</mgrwt>
</event>
<event>
 5    1  0.1854763E+000  0.9359182E+02  0.7546771E-02  0.1294380E+00
         21   -1    0    0  501  502  0.00000000000E+00  0.00000000000E+00  0.49833086783E+02  0.49833086783E+02  0.00000000000E+00 0.  1.
         21   -1    0    0  502  503 -0.00000000000E+00 -0.00000000000E+00 -0.33502119845E+03  0.33502119845E+03  0.00000000000E+00 0.  1.
         24    1    1    2    0    0  0.55534422213E+02 -0.29350930921E+02 -0.15637420656E+03  0.18672347905E+03  0.80419002446E+02 0.  0.
          1    1    1    2  501    0 -0.38616701711E+02  0.46908347512E+02  0.60696556359E+01  0.61061308837E+02  0.00000000000E+00 0. -1.
         -2    1    1    2    0  503 -0.16917720502E+02 -0.17557416591E+02 -0.13488356075E+03  0.13706949735E+03  0.00000000000E+00 0.  1.
<mgrwt>
<rscale>  2 0.93591823E+02</rscale>
<asrwt>0</asrwt>
<pdfrwt beam="1">  1       21 0.76666286E-02 0.93591823E+02</pdfrwt>
<pdfrwt beam="2">  1       21 0.51541724E-01 0.93591823E+02</pdfrwt>
<totfact> 0.46797315E+05</totfact>
</mgrwt>
</event>
<event>
 5    1  0.1854763E+000  0.7246663E+02  0.7546771E-02  0.1351900E+00
         21   -1    0    0  501  502  0.00000000000E+00  0.00000000000E+00  0.20221168792E+03  0.20221168792E+03  0.00000000000E+00 0.  1.
         21   -1    0    0  502  503 -0.00000000000E+00 -0.00000000000E+00 -0.42378403813E+02  0.42378403813E+02  0.00000000000E+00 0.  1.
         24    1    1    2    0    0  0.12559482761E+02 -0.64485045303E+01  0.11699908872E+03  0.14267209444E+03  0.80419002446E+02 0.  1.
          1    1    1    2  501    0  0.38323290948E+01  0.32380262309E+02  0.58873670445E+02  0.67299904942E+02  0.00000000000E+00 0. -1.
         -2    1    1    2    0  503 -0.16391811856E+02 -0.25931757779E+02 -0.16039475058E+02  0.34618092344E+02  0.00000000000E+00 0.  1.
<mgrwt>
<rscale>  2 0.72466634E+02</rscale>
<asrwt>0</asrwt>
<pdfrwt beam="1">  1       21 0.31109490E-01 0.72466634E+02</pdfrwt>
<pdfrwt beam="2">  1       21 0.65197546E-02 0.72466634E+02</pdfrwt>
<totfact> 0.16612363E+06</totfact>
</mgrwt>
</event>
<event>
 5    1  0.1854763E+000  0.6501403E+02  0.7546771E-02  0.1377919E+00
         21   -1    0    0  503  502  0.00000000000E+00  0.00000000000E+00  0.15558043449E+03  0.15558043449E+03  0.00000000000E+00 0. -1.
         21   -1    0    0  501  503 -0.00000000000E+00 -0.00000000000E+00 -0.33349956480E+02  0.33349956480E+02  0.00000000000E+00 0.  1.
         24    1    1    2    0    0  0.11926834157E+02  0.24683372105E+01  0.68954402059E+02  0.10663145680E+03  0.80419002446E+02 0.  0.
          1    1    1    2  501    0 -0.69147660058E+01  0.22338309642E+02  0.74022126645E-01  0.23384172977E+02  0.00000000000E+00 0. -1.
         -2    1    1    2    0  502 -0.50120681509E+01 -0.24806646852E+02  0.53202053827E+02  0.58914761195E+02  0.00000000000E+00 0.  1.
<mgrwt>
<rscale>  2 0.65014026E+02</rscale>
<asrwt>0</asrwt>
<pdfrwt beam="1">  1       21 0.23935451E-01 0.65014026E+02</pdfrwt>
<pdfrwt beam="2">  1       21 0.51307626E-02 0.65014026E+02</pdfrwt>
<totfact> 0.40201385E+06</totfact>
</mgrwt>
</event>
<event>
 5    1  0.1854763E+000  0.1106768E+03  0.7546771E-02  0.1259322E+00
         21   -1    0    0  503  502  0.00000000000E+00  0.00000000000E+00  0.12631457274E+04  0.12631457274E+04  0.00000000000E+00 0. -1.
         21   -1    0    0  501  503 -0.00000000000E+00 -0.00000000000E+00 -0.10178681076E+02  0.10178681076E+02  0.00000000000E+00 0.  1.
         24    1    1    2    0    0  0.11539828659E+02  0.26198607273E+02  0.52664093936E+03  0.53351422627E+03  0.80419002446E+02 0. -1.
          1    1    1    2  501    0 -0.71766958814E+02 -0.24177491038E+02  0.30840469637E+03  0.31756653507E+03  0.00000000000E+00 0. -1.
         -2    1    1    2    0  502  0.60227130155E+02 -0.20211162348E+01  0.41792141057E+03  0.42224364711E+03  0.00000000000E+00 0.  1.
<mgrwt>
<rscale>  2 0.11067680E+03</rscale>
<asrwt>0</asrwt>
<pdfrwt beam="1">  1       21 0.19432999E+00 0.11067680E+03</pdfrwt>
<pdfrwt beam="2">  1       21 0.15659519E-02 0.11067680E+03</pdfrwt>
<totfact> 0.27793488E+05</totfact>
</mgrwt>
</event>
<event>
 5    1  0.1854763E+000  0.7073269E+02  0.7546771E-02  0.1357619E+00
         21   -1    0    0  503  502  0.00000000000E+00  0.00000000000E+00  0.30519943695E+02  0.30519943695E+02  0.00000000000E+00 0. -1.
         21   -1    0    0  501  503 -0.00000000000E+00 -0.00000000000E+00 -0.24943159186E+03  0.24943159186E+03  0.00000000000E+00 0. -1.
         24    1    1    2    0    0  0.47388198300E+02  0.42204621010E+01 -0.79065220853E+02  0.12240089355E+03  0.80419002446E+02 0.  0.
          1    1    1    2  501    0 -0.24570636179E+02  0.11089096019E+01 -0.12970851413E+03  0.13201986396E+03  0.00000000000E+00 0. -1.
         -2    1    1    2    0  502 -0.22817562121E+02 -0.53293717029E+01 -0.10137913182E+02  0.25530778045E+02  0.00000000000E+00 0.  1.
<mgrwt>
<rscale>  2 0.70732686E+02</rscale>
<asrwt>0</asrwt>
<pdfrwt beam="1">  1       21 0.46953761E-02 0.70732686E+02</pdfrwt>
<pdfrwt beam="2">  1       21 0.38374090E-01 0.70732686E+02</pdfrwt>
<totfact> 0.19107201E+06</totfact>
</mgrwt>
</event>
<event>
 5    1  0.1854763E+000  0.6606441E+02  0.7546771E-02  0.1374012E+00
         21   -1    0    0  501  502  0.00000000000E+00  0.00000000000E+00  0.39775674482E+02  0.39775674482E+02  0.00000000000E+00 0. -1.
         21   -1    0    0  502  503 -0.00000000000E+00 -0.00000000000E+00 -0.43891536427E+03  0.43891536427E+03  0.00000000000E+00 0. -1.
         24    1    1    2    0    0 -0.10614154320E+01  0.82449979762E+01 -0.14807753501E+03  0.16871063666E+03  0.80419002446E+02 0. -1.
          1    1    1    2  501    0  0.25756360339E+02 -0.21540081874E+01  0.23085708654E+02  0.34655155363E+02  0.00000000000E+00 0. -1.
         -2    1    1    2    0  503 -0.24694944907E+02 -0.60909897888E+01 -0.27414786343E+03  0.27532524673E+03  0.00000000000E+00 0.  1.
<mgrwt>
<rscale>  2 0.66064412E+02</rscale>
<asrwt>0</asrwt>
<pdfrwt beam="1">  1       21 0.61193347E-02 0.66064412E+02</pdfrwt>
<pdfrwt beam="2">  1       21 0.67525439E-01 0.66064412E+02</pdfrwt>
<totfact> 0.38998449E+05</totfact>
</mgrwt>
</event>
<event>
 5    1  0.1854763E+000  0.1204162E+03  0.7546771E-02  0.1242412E+00
         21   -1    0    0  503  502  0.00000000000E+00  0.00000000000E+00  0.31404156182E+03  0.31404156182E+03  0.00000000000E+00 0. -1.
         21   -1    0    0  501  503 -0.00000000000E+00 -0.00000000000E+00 -0.69262743959E+02  0.69262743959E+02  0.00000000000E+00 0. -1.
         24    1    1    2    0    0  0.40943162607E+02 -0.95487489512E+02  0.22195630878E+03  0.25792638907E+03  0.80419002446E+02 0. -1.
          1    1    1    2  501    0 -0.45987022633E+02  0.72047557857E+02 -0.85418396336E+01  0.85898893288E+02  0.00000000000E+00 0. -1.
         -2    1    1    2    0  502  0.50438600256E+01  0.23439931655E+02  0.31364348718E+02  0.39479023423E+02  0.00000000000E+00 0.  1.
<mgrwt>
<rscale>  2 0.12041616E+03</rscale>
<asrwt>0</asrwt>
<pdfrwt beam="1">  1       21 0.48314086E-01 0.12041616E+03</pdfrwt>
<pdfrwt beam="2">  1       21 0.10655807E-01 0.12041616E+03</pdfrwt>
<totfact> 0.30131054E+05</totfact>
</mgrwt>
</event>
<event>
 5    1  0.1854763E+000  0.1022134E+03  0.7546771E-02  0.1275709E+00
         21   -1    0    0  503  502  0.00000000000E+00  0.00000000000E+00  0.18847032123E+02  0.18847032123E+02  0.00000000000E+00 0. -1.
         21   -1    0    0  501  503 -0.00000000000E+00 -0.00000000000E+00 -0.97916971958E+03  0.97916971958E+03  0.00000000000E+00 0.  1.
         24    1    1    2    0    0  0.25121625464E+02 -0.73904723990E+02 -0.45974345055E+03  0.47320636151E+03  0.80419002446E+02 0.  0.
          1    1    1    2  501    0 -0.39708770326E+02  0.45265850610E+02 -0.48565648997E+03  0.48937512189E+03  0.00000000000E+00 0. -1.
         -2    1    1    2    0  502  0.14587144861E+02  0.28638873380E+02 -0.14922746932E+02  0.35435268302E+02  0.00000000000E+00 0.  1.
<mgrwt>
<rscale>  2 0.10221336E+03</rscale>
<asrwt>0</asrwt>
<pdfrwt beam="1">  1       21 0.28995434E-02 0.10221336E+03</pdfrwt>
<pdfrwt beam="2">  1       21 0.15064150E+00 0.10221336E+03</pdfrwt>
<totfact> 0.20541918E+05</totfact>
</mgrwt>
</event>
<event>
 5    1  0.1854763E+000  0.1311891E+03  0.7546771E-02  0.1225702E+00
         21   -1    0    0  501  502  0.00000000000E+00  0.00000000000E+00  0.36488824839E+02  0.36488824839E+02  0.00000000000E+00 0. -1.
         21   -1    0    0  502  503 -0.00000000000E+00 -0.00000000000E+00 -0.77387356307E+03  0.77387356307E+03  0.00000000000E+00 0. -1.
         24    1    1    2    0    0  0.11289934112E+03 -0.25666714795E+02 -0.25092061751E+03  0.28780794589E+03  0.80419002446E+02 0. -1.
          1    1    1    2  501    0 -0.91311584162E+02  0.35132704819E+02 -0.11776938768E+03  0.15310695943E+03  0.00000000000E+00 0. -1.
         -2    1    1    2    0  503 -0.21587756961E+02 -0.94659900236E+01 -0.36869473305E+03  0.36944748259E+03  0.00000000000E+00 0.  1.
<mgrwt>
<rscale>  2 0.13118905E+03</rscale>
<asrwt>0</asrwt>
<pdfrwt beam="1">  1       21 0.56136662E-02 0.13118905E+03</pdfrwt>
<pdfrwt beam="2">  1       21 0.11905745E+00 0.13118905E+03</pdfrwt>
<totfact> 0.12206923E+05</totfact>
</mgrwt>
</event>
<event>
 5    1  0.1854763E+000  0.9336234E+02  0.7546771E-02  0.1294908E+00
         21   -1    0    0  501  502  0.00000000000E+00  0.00000000000E+00  0.33996825092E+02  0.33996825092E+02  0.00000000000E+00 0. -1.
         21   -1    0    0  502  503 -0.00000000000E+00 -0.00000000000E+00 -0.49061034144E+03  0.49061034144E+03  0.00000000000E+00 0.  1.
         24    1    1    2    0    0  0.26593435798E+02 -0.83824181138E+01 -0.73836363196E+02  0.11267874798E+03  0.80419002446E+02 0. -1.
          1    1    1    2  501    0 -0.61126537036E+02 -0.10849154668E+02 -0.58665657998E+02  0.85415555465E+02  0.00000000000E+00 0. -1.
         -2    1    1    2    0  503  0.34533101239E+02  0.19231572782E+02 -0.32411149515E+03  0.32651286309E+03  0.00000000000E+00 0.  1.
<mgrwt>
<rscale>  2 0.93362339E+02</rscale>
<asrwt>0</asrwt>
<pdfrwt beam="1">  1       21 0.52302806E-02 0.93362339E+02</pdfrwt>
<pdfrwt beam="2">  1       21 0.75478516E-01 0.93362339E+02</pdfrwt>
<totfact> 0.39762084E+05</totfact>
</mgrwt>
</event>
<event>
 5    1  0.1854763E+000  0.7625897E+02  0.7546771E-02  0.1340016E+00
         21   -1    0    0  503  502  0.00000000000E+00  0.00000000000E+00  0.74844145241E+02  0.74844145241E+02  0.00000000000E+00 0.  1.
         21   -1    0    0  501  503 -0.00000000000E+00 -0.00000000000E+00 -0.95202319089E+02  0.95202319089E+02  0.00000000000E+00 0. -1.
         24    1    1    2    0    0  0.29244277568E+01  0.31468301794E+02 -0.25069639020E+02  0.89969489553E+02  0.80419002446E+02 0. -1.
          1    1    1    2  501    0  0.22155213773E+02  0.41591842720E+01 -0.19871725649E+02  0.30050587205E+02  0.00000000000E+00 0. -1.
         -2    1    1    2    0  502 -0.25079641530E+02 -0.35627486066E+02  0.24583190821E+02  0.50026387572E+02  0.00000000000E+00 0.  1.
<mgrwt>
<rscale>  2 0.76258968E+02</rscale>
<asrwt>0</asrwt>
<pdfrwt beam="1">  1       21 0.11514484E-01 0.76258968E+02</pdfrwt>
<pdfrwt beam="2">  1       21 0.14646511E-01 0.76258968E+02</pdfrwt>
<totfact> 0.25095544E+06</totfact>
</mgrwt>
</event>
<event>
 5    1  0.1854763E+000  0.1064548E+03  0.7546771E-02  0.1267279E+00
         21   -1    0    0  501  502  0.00000000000E+00  0.00000000000E+00  0.22136155513E+02  0.22136155513E+02  0.00000000000E+00 0. -1.
         21   -1    0    0  502  503 -0.00000000000E+00 -0.00000000000E+00 -0.10079916131E+04  0.10079916131E+04  0.00000000000E+00 0.  1.
         24    1    1    2    0    0 -0.14546188879E+01  0.59111800060E+02 -0.31999073590E+03  0.33519786372E+03  0.80419002446E+02 0. -1.
          1    1    1    2  501    0 -0.23427087379E+01 -0.85952349285E+02 -0.11597674886E+03  0.14437416981E+03  0.00000000000E+00 0. -1.
         -2    1    1    2    0  503  0.37973276258E+01  0.26840549226E+02 -0.54988797287E+03  0.55055573513E+03  0.00000000000E+00 0.  1.
<mgrwt>
<rscale>  2 0.10645481E+03</rscale>
<asrwt>0</asrwt>
<pdfrwt beam="1">  1       21 0.34055636E-02 0.10645481E+03</pdfrwt>
<pdfrwt beam="2">  1       21 0.15507558E+00 0.10645481E+03</pdfrwt>
<totfact> 0.14620784E+05</totfact>
</mgrwt>
</event>
<event>
 5    1  0.1854763E+000  0.8337738E+02  0.7546771E-02  0.1319731E+00
         21   -1    0    0  501  502  0.00000000000E+00  0.00000000000E+00  0.31503219723E+01  0.31503219723E+01  0.00000000000E+00 0. -1.
         21   -1    0    0  502  503 -0.00000000000E+00 -0.00000000000E+00 -0.26275335580E+04  0.26275335580E+04  0.00000000000E+00 0.  1.
         24    1    1    2    0    0 -0.17058026075E+02  0.26988745358E+02 -0.16625441990E+04  0.16647942210E+04  0.80419002446E+02 0.  1.
          1    1    1    2  501    0 -0.27084414355E+02 -0.23657609501E+02 -0.23835761794E+03  0.24105518459E+03  0.00000000000E+00 0. -1.
         -2    1    1    2    0  503  0.44142440430E+02 -0.33311358563E+01 -0.72348141903E+03  0.72483447435E+03  0.00000000000E+00 0.  1.
<mgrwt>
<rscale>  2 0.83377380E+02</rscale>
<asrwt>0</asrwt>
<pdfrwt beam="1">  1       21 0.48466407E-03 0.83377380E+02</pdfrwt>
<pdfrwt beam="2">  1       21 0.40423664E+00 0.83377380E+02</pdfrwt>
<totfact> 0.11310602E+05</totfact>
</mgrwt>
</event>
<event>
 5    1  0.1854763E+000  0.1991753E+03  0.7546771E-02  0.1150437E+00
         21   -1    0    0  501  502  0.00000000000E+00  0.00000000000E+00  0.11544085065E+03  0.11544085065E+03  0.00000000000E+00 0. -1.
         21   -1    0    0  502  503 -0.00000000000E+00 -0.00000000000E+00 -0.93217674860E+03  0.93217674860E+03  0.00000000000E+00 0.  1.
         24    1    1    2    0    0 -0.19460265612E+02  0.16263549385E+03 -0.22400291425E+03  0.28891785570E+03  0.80419002446E+02 0.  1.
          1    1    1    2  501    0 -0.20522440098E+02  0.20155772504E+02  0.67016843815E+02  0.72929301846E+02  0.00000000000E+00 0. -1.
         -2    1    1    2    0  503  0.39982705710E+02 -0.18279126636E+03 -0.65974982751E+03  0.68577044170E+03  0.00000000000E+00 0.  1.
<mgrwt>
<rscale>  2 0.19917525E+03</rscale>
<asrwt>0</asrwt>
<pdfrwt beam="1">  1       21 0.17760131E-01 0.19917525E+03</pdfrwt>
<pdfrwt beam="2">  1       21 0.14341180E+00 0.19917525E+03</pdfrwt>
<totfact> 0.96277502E+03</totfact>
</mgrwt>
</event>
<event>
 5    1  0.1854763E+000  0.1343364E+03  0.7546771E-02  0.1221160E+00
         21   -1    0    0  503  502  0.00000000000E+00  0.00000000000E+00  0.18381934301E+04  0.18381934301E+04  0.00000000000E+00 0.  1.
         21   -1    0    0  501  503 -0.00000000000E+00 -0.00000000000E+00 -0.13765420640E+03  0.13765420640E+03  0.00000000000E+00 0. -1.
         24    1    1    2    0    0 -0.87205959861E+02  0.83276616174E+02  0.36112026533E+03  0.38912072192E+03  0.80419002446E+02 0.  0.
          1    1    1    2  501    0  0.48785474055E+02 -0.27489399800E+02 -0.11648624159E+03  0.12924679516E+03  0.00000000000E+00 0. -1.
         -2    1    1    2    0  502  0.38420485806E+02 -0.55787216374E+02  0.14559051999E+04  0.14574801194E+04  0.00000000000E+00 0.  1.
<mgrwt>
<rscale>  2 0.13433640E+03</rscale>
<asrwt>0</asrwt>
<pdfrwt beam="1">  1       21 0.28279897E+00 0.13433640E+03</pdfrwt>
<pdfrwt beam="2">  1       21 0.21177572E-01 0.13433640E+03</pdfrwt>
<totfact> 0.97264085E+02</totfact>
</mgrwt>
</event>
<event>
 5    1  0.1854763E+000  0.9246317E+02  0.7546771E-02  0.1296994E+00
         21   -1    0    0  503  502  0.00000000000E+00  0.00000000000E+00  0.77939664397E+02  0.77939664397E+02  0.00000000000E+00 0. -1.
         21   -1    0    0  501  503 -0.00000000000E+00 -0.00000000000E+00 -0.12041543841E+03  0.12041543841E+03  0.00000000000E+00 0.  1.
         24    1    1    2    0    0  0.45591109033E+01  0.56334815548E+02 -0.23190276535E+02  0.10099208788E+03  0.80419002446E+02 0.  1.
          1    1    1    2  501    0  0.17197827379E+02 -0.61842783705E+02 -0.31834014155E+02  0.71649840336E+02  0.00000000000E+00 0. -1.
         -2    1    1    2    0  502 -0.21756938282E+02  0.55079681570E+01  0.12548516676E+02  0.25713174588E+02  0.00000000000E+00 0.  1.
<mgrwt>
<rscale>  2 0.92463169E+02</rscale>
<asrwt>0</asrwt>
<pdfrwt beam="1">  1       21 0.11990718E-01 0.92463169E+02</pdfrwt>
<pdfrwt beam="2">  1       21 0.18525452E-01 0.92463169E+02</pdfrwt>
<totfact> 0.15456517E+06</totfact>
</mgrwt>
</event>
<event>
 5    1  0.1854763E+000  0.1201987E+03  0.7546771E-02  0.1242770E+00
         21   -1    0    0  503  502  0.00000000000E+00  0.00000000000E+00  0.51150930555E+02  0.51150930555E+02  0.00000000000E+00 0.  1.
         21   -1    0    0  501  503 -0.00000000000E+00 -0.00000000000E+00 -0.32701359150E+03  0.32701359150E+03  0.00000000000E+00 0.  1.
         24    1    1    2    0    0  0.39658289964E+02  0.88436526465E+02 -0.20935818127E+03  0.24431918303E+03  0.80419002446E+02 0.  1.
          1    1    1    2  501    0 -0.51982982272E+02 -0.43258482096E+02 -0.50333263680E+02  0.84302812241E+02  0.00000000000E+00 0. -1.
         -2    1    1    2    0  502  0.12324692308E+02 -0.45178044369E+02 -0.16171215992E+02  0.49542526784E+02  0.00000000000E+00 0.  1.
<mgrwt>
<rscale>  2 0.12019868E+03</rscale>
<asrwt>0</asrwt>
<pdfrwt beam="1">  1       21 0.78693738E-02 0.12019868E+03</pdfrwt>
<pdfrwt beam="2">  1       21 0.50309784E-01 0.12019868E+03</pdfrwt>
<totfact> 0.46931395E+05</totfact>
</mgrwt>
</event>
<event>
 5    1  0.1854763E+000  0.1007050E+03  0.7546771E-02  0.1278820E+00
         21   -1    0    0  501  502  0.00000000000E+00  0.00000000000E+00  0.49629478090E+03  0.49629478090E+03  0.00000000000E+00 0.  1.
         21   -1    0    0  502  503 -0.00000000000E+00 -0.00000000000E+00 -0.23034304196E+02  0.23034304196E+02  0.00000000000E+00 0. -1.
         24    1    1    2    0    0  0.36651560173E+02  0.60231791919E+02  0.31086909628E+03  0.32875221155E+03  0.80419002446E+02 0. -1.
          1    1    1    2  501    0 -0.72987064170E+01 -0.64399899997E+02  0.13694130708E+03  0.15150425677E+03  0.00000000000E+00 0. -1.
         -2    1    1    2    0  503 -0.29352853756E+02  0.41681080784E+01  0.25450073343E+02  0.39072616776E+02  0.00000000000E+00 0.  1.
<mgrwt>
<rscale>  2 0.10070502E+03</rscale>
<asrwt>0</asrwt>
<pdfrwt beam="1">  1       21 0.76353035E-01 0.10070502E+03</pdfrwt>
<pdfrwt beam="2">  1       21 0.35437395E-02 0.10070502E+03</pdfrwt>
<totfact> 0.73815782E+05</totfact>
</mgrwt>
</event>
<event>
 5    1  0.1854763E+000  0.1044218E+03  0.7546771E-02  0.1271263E+00
         21   -1    0    0  503  502  0.00000000000E+00  0.00000000000E+00  0.10113731399E+03  0.10113731399E+03  0.00000000000E+00 0.  1.
         21   -1    0    0  501  503 -0.00000000000E+00 -0.00000000000E+00 -0.15516846500E+03  0.15516846500E+03  0.00000000000E+00 0. -1.
         24    1    1    2    0    0  0.39809938578E+02 -0.36118692505E+02  0.12993093267E+02  0.97598297039E+02  0.80419002446E+02 0. -1.
          1    1    1    2  501    0 -0.72185066934E+02  0.15809318488E+02 -0.88160363927E+02  0.11503420451E+03  0.00000000000E+00 0. -1.
         -2    1    1    2    0  502  0.32375128355E+02  0.20309374017E+02  0.21136119648E+02  0.43673277445E+02  0.00000000000E+00 0.  1.
<mgrwt>
<rscale>  2 0.10442180E+03</rscale>
<asrwt>0</asrwt>
<pdfrwt beam="1">  1       21 0.15559587E-01 0.10442180E+03</pdfrwt>
<pdfrwt beam="2">  1       21 0.23872071E-01 0.10442180E+03</pdfrwt>
<totfact> 0.61069978E+05</totfact>
</mgrwt>
</event>
<event>
 5    1  0.1854763E+000  0.1189620E+03  0.7546771E-02  0.1244819E+00
         21   -1    0    0  501  502  0.00000000000E+00  0.00000000000E+00  0.99259648005E+02  0.99259648005E+02  0.00000000000E+00 0.  1.
         21   -1    0    0  502  503 -0.00000000000E+00 -0.00000000000E+00 -0.30274266963E+03  0.30274266963E+03  0.00000000000E+00 0.  1.
         24    1    1    2    0    0 -0.98917188427E+02  0.92378481641E+01 -0.34783741729E+02  0.13246536396E+03  0.80419002446E+02 0.  1.
          1    1    1    2  501    0  0.27476349454E+02 -0.24774444972E+02  0.36336592024E+02  0.51856251532E+02  0.00000000000E+00 0. -1.
         -2    1    1    2    0  503  0.71440838973E+02  0.15536596807E+02 -0.20503587192E+03  0.21768070215E+03  0.00000000000E+00 0.  1.
<mgrwt>
<rscale>  2 0.11896195E+03</rscale>
<asrwt>0</asrwt>
<pdfrwt beam="1">  1       21 0.15270715E-01 0.11896195E+03</pdfrwt>
<pdfrwt beam="2">  1       21 0.46575796E-01 0.11896195E+03</pdfrwt>
<totfact> 0.17140548E+05</totfact>
</mgrwt>
</event>
<event>
 5    1  0.1854763E+000  0.6584634E+02  0.7546771E-02  0.1374816E+00
         21   -1    0    0  503  502  0.00000000000E+00  0.00000000000E+00  0.22464024033E+02  0.22464024033E+02  0.00000000000E+00 0. -1.
         21   -1    0    0  501  503 -0.00000000000E+00 -0.00000000000E+00 -0.26809431235E+03  0.26809431235E+03  0.00000000000E+00 0.  1.
         24    1    1    2    0    0  0.40743253987E+00 -0.13045568173E+01 -0.16111576916E+03  0.18007602532E+03  0.80419002446E+02 0.  1.
          1    1    1    2  501    0 -0.14990931211E+01 -0.24944907944E+02 -0.80016338514E+02  0.83827860176E+02  0.00000000000E+00 0. -1.
         -2    1    1    2    0  502  0.10916605812E+01  0.26249464761E+02 -0.44981806497E+01  0.26654450890E+02  0.00000000000E+00 0.  1.
<mgrwt>
<rscale>  2 0.65846341E+02</rscale>
<asrwt>0</asrwt>
<pdfrwt beam="1">  1       21 0.34560035E-02 0.65846341E+02</pdfrwt>
<pdfrwt beam="2">  1       21 0.41245281E-01 0.65846341E+02</pdfrwt>
<totfact> 0.27271566E+06</totfact>
</mgrwt>
</event>
<event>
 5    1  0.1854763E+000  0.8044248E+02  0.7546771E-02  0.1327800E+00
         21   -1    0    0  503  502  0.00000000000E+00  0.00000000000E+00  0.15948354616E+03  0.15948354616E+03  0.00000000000E+00 0. -1.
         21   -1    0    0  501  503 -0.00000000000E+00 -0.00000000000E+00 -0.57876839150E+02  0.57876839150E+02  0.00000000000E+00 0.  1.
         24    1    1    2    0    0 -0.44367254736E+01 -0.59677861936E+01  0.33091178040E+01  0.80829853520E+02  0.80419002446E+02 0.  1.
          1    1    1    2  501    0  0.19353245822E+02  0.39188577142E+02  0.16013065807E+02  0.46547942798E+02  0.00000000000E+00 0. -1.
         -2    1    1    2    0  502 -0.14916520348E+02 -0.33220790948E+02  0.82284523398E+02  0.89982588990E+02  0.00000000000E+00 0.  1.
<mgrwt>
<rscale>  2 0.80442482E+02</rscale>
<asrwt>0</asrwt>
<pdfrwt beam="1">  1       21 0.24535930E-01 0.80442482E+02</pdfrwt>
<pdfrwt beam="2">  1       21 0.89041291E-02 0.80442482E+02</pdfrwt>
<totfact> 0.15372896E+06</totfact>
</mgrwt>
</event>
<event>
 5    1  0.1854763E+000  0.8889177E+02  0.7546771E-02  0.1305558E+00
         21   -1    0    0  501  502  0.00000000000E+00  0.00000000000E+00  0.25427171756E+03  0.25427171756E+03  0.00000000000E+00 0.  1.
         21   -1    0    0  502  503 -0.00000000000E+00 -0.00000000000E+00 -0.54790287877E+02  0.54790287877E+02  0.00000000000E+00 0.  1.
         24    1    1    2    0    0  0.23633241738E+02  0.22067194206E+02  0.18302549162E+03  0.20251182116E+03  0.80419002446E+02 0.  1.
          1    1    1    2  501    0  0.25011612417E+02 -0.32844088646E+02  0.34252613486E+02  0.53642860152E+02  0.00000000000E+00 0. -1.
         -2    1    1    2    0  503 -0.48644854154E+02  0.10776894441E+02 -0.17796675420E+02  0.52907324120E+02  0.00000000000E+00 0.  1.
<mgrwt>
<rscale>  2 0.88891774E+02</rscale>
<asrwt>0</asrwt>
<pdfrwt beam="1">  1       21 0.39118725E-01 0.88891774E+02</pdfrwt>
<pdfrwt beam="2">  1       21 0.84292752E-02 0.88891774E+02</pdfrwt>
<totfact> 0.69305814E+05</totfact>
</mgrwt>
</event>
<event>
 5    1  0.1854763E+000  0.1019076E+03  0.7546771E-02  0.1276335E+00
         21   -1    0    0  503  502  0.00000000000E+00  0.00000000000E+00  0.12321548188E+03  0.12321548188E+03  0.00000000000E+00 0.  1.
         21   -1    0    0  501  503 -0.00000000000E+00 -0.00000000000E+00 -0.94189327165E+03  0.94189327165E+03  0.00000000000E+00 0.  1.
         24    1    1    2    0    0  0.49280376262E+02 -0.31069537920E+02 -0.91474234980E+03  0.92011665246E+03  0.80419002446E+02 0.  1.
          1    1    1    2  501    0 -0.55775876229E+02 -0.15183246195E+02  0.33152677581E+02  0.66637672265E+02  0.00000000000E+00 0. -1.
         -2    1    1    2    0  502  0.64954999669E+01  0.46252784115E+02  0.62911882448E+02  0.78354428792E+02  0.00000000000E+00 0.  1.
<mgrwt>
<rscale>  2 0.10190760E+03</rscale>
<asrwt>0</asrwt>
<pdfrwt beam="1">  1       21 0.18956228E-01 0.10190760E+03</pdfrwt>
<pdfrwt beam="2">  1       21 0.14490665E+00 0.10190760E+03</pdfrwt>
<totfact> 0.90955789E+03</totfact>
</mgrwt>
</event>
<event>
 5    1  0.1854763E+000  0.7876450E+02  0.7546771E-02  0.1332595E+00
         21   -1    0    0  503  502  0.00000000000E+00  0.00000000000E+00  0.10619935107E+02  0.10619935107E+02  0.00000000000E+00 0. -1.
         21   -1    0    0  501  503 -0.00000000000E+00 -0.00000000000E+00 -0.62915403295E+03  0.62915403295E+03  0.00000000000E+00 0.  1.
         24    1    1    2    0    0  0.38321705031E+02 -0.12308100483E+02 -0.30115029777E+03  0.31429088472E+03  0.80419002446E+02 0. -1.
          1    1    1    2  501    0 -0.88091552903E+01 -0.21194402126E+02 -0.16828252142E+03  0.16984054555E+03  0.00000000000E+00 0. -1.
         -2    1    1    2    0  502 -0.29512549741E+02  0.33502502609E+02 -0.14910127865E+03  0.15564253779E+03  0.00000000000E+00 0.  1.
<mgrwt>
<rscale>  2 0.78764498E+02</rscale>
<asrwt>0</asrwt>
<pdfrwt beam="1">  1       21 0.16338360E-02 0.78764498E+02</pdfrwt>
<pdfrwt beam="2">  1       21 0.96792940E-01 0.78764498E+02</pdfrwt>
<totfact> 0.15061637E+06</totfact>
</mgrwt>
</event>
<event>
 5    1  0.1854763E+000  0.7903864E+02  0.7546771E-02  0.1331802E+00
         21   -1    0    0  503  502  0.00000000000E+00  0.00000000000E+00  0.81828065296E+03  0.81828065296E+03  0.00000000000E+00 0. -1.
         21   -1    0    0  501  503 -0.00000000000E+00 -0.00000000000E+00 -0.13185439199E+02  0.13185439199E+02  0.00000000000E+00 0. -1.
         24    1    1    2    0    0  0.34312234501E+02 -0.12699862457E+02  0.16307612364E+03  0.18547143715E+03  0.80419002446E+02 0. -1.
          1    1    1    2  501    0 -0.47447020820E+02 -0.49734057946E+01  0.36552182835E+03  0.36862197649E+03  0.00000000000E+00 0. -1.
         -2    1    1    2    0  502  0.13134786319E+02  0.17673268252E+02  0.27649726178E+03  0.27737267853E+03  0.00000000000E+00 0.  1.
<mgrwt>
<rscale>  2 0.79038640E+02</rscale>
<asrwt>0</asrwt>
<pdfrwt beam="1">  1       21 0.12588929E+00 0.79038640E+02</pdfrwt>
<pdfrwt beam="2">  1       21 0.20285298E-02 0.79038640E+02</pdfrwt>
<totfact> 0.57564378E+05</totfact>
</mgrwt>
</event>
<event>
 5    1  0.1854763E+000  0.7670389E+02  0.7546771E-02  0.1338674E+00
         21   -1    0    0  501  502  0.00000000000E+00  0.00000000000E+00  0.55053650027E+02  0.55053650027E+02  0.00000000000E+00 0. -1.
         21   -1    0    0  502  503 -0.00000000000E+00 -0.00000000000E+00 -0.14047044554E+03  0.14047044554E+03  0.00000000000E+00 0. -1.
         24    1    1    2    0    0 -0.15968686016E+01 -0.42811646419E+02 -0.29329903507E+02  0.95722757234E+02  0.80419002446E+02 0. -1.
          1    1    1    2  501    0 -0.21136602366E+02  0.28287859348E+02  0.23989439210E+01  0.35393698281E+02  0.00000000000E+00 0. -1.
         -2    1    1    2    0  503  0.22733470967E+02  0.14523787070E+02 -0.58485835928E+02  0.64407640054E+02  0.00000000000E+00 0.  1.
<mgrwt>
<rscale>  2 0.76703894E+02</rscale>
<asrwt>0</asrwt>
<pdfrwt beam="1">  1       21 0.84697924E-02 0.76703894E+02</pdfrwt>
<pdfrwt beam="2">  1       21 0.21610837E-01 0.76703894E+02</pdfrwt>
<totfact> 0.21133373E+06</totfact>
</mgrwt>
</event>
<event>
 5    1  0.1854763E+000  0.1260572E+03  0.7546771E-02  0.1233426E+00
         21   -1    0    0  503  502  0.00000000000E+00  0.00000000000E+00  0.37225506280E+03  0.37225506280E+03  0.00000000000E+00 0. -1.
         21   -1    0    0  501  503 -0.00000000000E+00 -0.00000000000E+00 -0.13527078672E+03  0.13527078672E+03  0.00000000000E+00 0.  1.
         24    1    1    2    0    0  0.58603704660E+02 -0.14177251478E+02 -0.74211886900E+02  0.12494002069E+03  0.80419002446E+02 0.  1.
          1    1    1    2  501    0 -0.61521419810E+02  0.71432271981E+02  0.35092189820E+02  0.10059282461E+03  0.00000000000E+00 0. -1.
         -2    1    1    2    0  502  0.29177151501E+01 -0.57255020503E+02  0.27610397316E+03  0.28199300422E+03  0.00000000000E+00 0.  1.
<mgrwt>
<rscale>  2 0.12605716E+03</rscale>
<asrwt>0</asrwt>
<pdfrwt beam="1">  1       21 0.57270009E-01 0.12605716E+03</pdfrwt>
<pdfrwt beam="2">  1       21 0.20810890E-01 0.12605716E+03</pdfrwt>
<totfact> 0.63280254E+04</totfact>
</mgrwt>
</event>
<event>
 5    1  0.1854763E+000  0.1292395E+03  0.7546771E-02  0.1228589E+00
         21   -1    0    0  503  502  0.00000000000E+00  0.00000000000E+00  0.11380713063E+03  0.11380713063E+03  0.00000000000E+00 0.  1.
         21   -1    0    0  501  503 -0.00000000000E+00 -0.00000000000E+00 -0.63049778333E+03  0.63049778333E+03  0.00000000000E+00 0.  1.
         24    1    1    2    0    0 -0.65694817851E+02  0.14257739821E+02 -0.52984520628E+03  0.54011318333E+03  0.80419002446E+02 0.  1.
          1    1    1    2  501    0 -0.43648608839E+02 -0.47981914938E+01 -0.58479869874E+02  0.73130833960E+02  0.00000000000E+00 0. -1.
         -2    1    1    2    0  502  0.10934342669E+03 -0.94595483275E+01  0.71634423451E+02  0.13106089668E+03  0.00000000000E+00 0.  1.
<mgrwt>
<rscale>  2 0.12923949E+03</rscale>
<asrwt>0</asrwt>
<pdfrwt beam="1">  1       21 0.17508789E-01 0.12923949E+03</pdfrwt>
<pdfrwt beam="2">  1       21 0.96999660E-01 0.12923949E+03</pdfrwt>
<totfact> 0.27120222E+04</totfact>
</mgrwt>
</event>
<event>
 5    1  0.1854763E+000  0.7803210E+02  0.7546771E-02  0.1334731E+00
         21   -1    0    0  501  502  0.00000000000E+00  0.00000000000E+00  0.13194848263E+04  0.13194848263E+04  0.00000000000E+00 0. -1.
         21   -1    0    0  502  503 -0.00000000000E+00 -0.00000000000E+00 -0.14175401332E+02  0.14175401332E+02  0.00000000000E+00 0. -1.
         24    1    1    2    0    0 -0.50521105027E+02 -0.25799637267E+02  0.18777533627E+03  0.21200187783E+03  0.80419002446E+02 0. -1.
          1    1    1    2  501    0  0.27192278048E+02  0.81177615772E+01  0.10043290815E+04  0.10047299249E+04  0.00000000000E+00 0. -1.
         -2    1    1    2    0  503  0.23328826979E+02  0.17681875690E+02  0.11320500714E+03  0.11692842485E+03  0.00000000000E+00 0.  1.
<mgrwt>
<rscale>  2 0.78032100E+02</rscale>
<asrwt>0</asrwt>
<pdfrwt beam="1">  1       21 0.20299757E+00 0.78032100E+02</pdfrwt>
<pdfrwt beam="2">  1       21 0.21808320E-02 0.78032100E+02</pdfrwt>
<totfact> 0.14822847E+05</totfact>
</mgrwt>
</event>
<event>
 5    1  0.1854763E+000  0.8214607E+02  0.7546771E-02  0.1323069E+00
         21   -1    0    0  501  502  0.00000000000E+00  0.00000000000E+00  0.26884966956E+03  0.26884966956E+03  0.00000000000E+00 0. -1.
         21   -1    0    0  502  503 -0.00000000000E+00 -0.00000000000E+00 -0.92172381464E+02  0.92172381464E+02  0.00000000000E+00 0.  1.
         24    1    1    2    0    0 -0.32267703292E+02  0.13332281057E+02  0.88737869354E+01  0.88118751936E+02  0.80419002446E+02 0.  0.
          1    1    1    2  501    0  0.51151757777E+01 -0.38954116373E+02  0.21167906031E+03  0.21529424697E+03  0.00000000000E+00 0. -1.
         -2    1    1    2    0  503  0.27152527514E+02  0.25621835316E+02 -0.43875559147E+02  0.57609052117E+02  0.00000000000E+00 0.  1.
<mgrwt>
<rscale>  2 0.82146068E+02</rscale>
<asrwt>0</asrwt>
<pdfrwt beam="1">  1       21 0.41361487E-01 0.82146068E+02</pdfrwt>
<pdfrwt beam="2">  1       21 0.14180367E-01 0.82146068E+02</pdfrwt>
<totfact> 0.25101438E+05</totfact>
</mgrwt>
</event>
<event>
 5    1  0.1854763E+000  0.1335376E+03  0.7546771E-02  0.1222299E+00
         21   -1    0    0  501  502  0.00000000000E+00  0.00000000000E+00  0.17408735547E+03  0.17408735547E+03  0.00000000000E+00 0. -1.
         21   -1    0    0  502  503 -0.00000000000E+00 -0.00000000000E+00 -0.16625125354E+03  0.16625125354E+03  0.00000000000E+00 0. -1.
         24    1    1    2    0    0  0.39960804836E+02  0.11312022377E+03  0.32247567394E+02  0.14798706872E+03  0.80419002446E+02 0. -1.
          1    1    1    2  501    0 -0.11573144665E+02 -0.70447509514E+02  0.60228232648E+02  0.93403582812E+02  0.00000000000E+00 0. -1.
         -2    1    1    2    0  503 -0.28387660171E+02 -0.42672714261E+02 -0.84639698113E+02  0.98947957478E+02  0.00000000000E+00 0.  1.
<mgrwt>
<rscale>  2 0.13353757E+03</rscale>
<asrwt>0</asrwt>
<pdfrwt beam="1">  1       21 0.26782670E-01 0.13353757E+03</pdfrwt>
<pdfrwt beam="2">  1       21 0.25577116E-01 0.13353757E+03</pdfrwt>
<totfact> 0.19565618E+05</totfact>
</mgrwt>
</event>
<event>
 5    1  0.1854763E+000  0.7984916E+02  0.7546771E-02  0.1329480E+00
         21   -1    0    0  503  502  0.00000000000E+00  0.00000000000E+00  0.22062128344E+02  0.22062128344E+02  0.00000000000E+00 0.  1.
         21   -1    0    0  501  503 -0.00000000000E+00 -0.00000000000E+00 -0.83899480968E+03  0.83899480968E+03  0.00000000000E+00 0. -1.
         24    1    1    2    0    0  0.22116489876E+02  0.20263653613E+01 -0.43772834701E+03  0.44560808679E+03  0.80419002446E+02 0. -1.
          1    1    1    2  501    0 -0.47108564409E+02 -0.13155403454E+02 -0.38448699150E+03  0.38758551071E+03  0.00000000000E+00 0. -1.
         -2    1    1    2    0  502  0.24992074533E+02  0.11129038093E+02  0.52826571733E+01  0.27863340524E+02  0.00000000000E+00 0.  1.
<mgrwt>
<rscale>  2 0.79849159E+02</rscale>
<asrwt>0</asrwt>
<pdfrwt beam="1">  1       21 0.33941737E-02 0.79849159E+02</pdfrwt>
<pdfrwt beam="2">  1       21 0.12907612E+00 0.79849159E+02</pdfrwt>
<totfact> 0.23627490E+05</totfact>
</mgrwt>
</event>
<event>
 5    1  0.1854763E+000  0.6340035E+02  0.7546771E-02  0.1384092E+00
         21   -1    0    0  501  502  0.00000000000E+00  0.00000000000E+00  0.31977774015E+03  0.31977774015E+03  0.00000000000E+00 0. -1.
         21   -1    0    0  502  503 -0.00000000000E+00 -0.00000000000E+00 -0.24706434812E+02  0.24706434812E+02  0.00000000000E+00 0.  1.
         24    1    1    2    0    0 -0.17323550449E+01 -0.16113481102E+02  0.75142698619E+02  0.11124875926E+03  0.80419002446E+02 0.  0.
          1    1    1    2  501    0 -0.19422680782E+02  0.13024918793E+02  0.20686112486E+03  0.20817880300E+03  0.00000000000E+00 0. -1.
         -2    1    1    2    0  503  0.21155035826E+02  0.30885623090E+01  0.13067481852E+02  0.25056612698E+02  0.00000000000E+00 0.  1.
<mgrwt>
<rscale>  2 0.63400349E+02</rscale>
<asrwt>0</asrwt>
<pdfrwt beam="1">  1       21 0.49196572E-01 0.63400349E+02</pdfrwt>
<pdfrwt beam="2">  1       21 0.38009902E-02 0.63400349E+02</pdfrwt>
<totfact> 0.16419835E+06</totfact>
</mgrwt>
</event>
<event>
 5    1  0.1854763E+000  0.6450060E+02  0.7546771E-02  0.1379860E+00
         21   -1    0    0  503  502  0.00000000000E+00  0.00000000000E+00  0.22731212998E+02  0.22731212998E+02  0.00000000000E+00 0.  1.
         21   -1    0    0  501  503 -0.00000000000E+00 -0.00000000000E+00 -0.51646974466E+03  0.51646974466E+03  0.00000000000E+00 0.  1.
         24    1    1    2    0    0  0.84401217348E+01 -0.31212001223E+02 -0.47843252214E+03  0.48622044267E+03  0.80419002446E+02 0.  1.
          1    1    1    2  501    0 -0.17388963950E+02  0.11987685864E+02 -0.22239715664E+02  0.30670598828E+02  0.00000000000E+00 0. -1.
         -2    1    1    2    0  502  0.89488422148E+01  0.19224315359E+02  0.69337061459E+01  0.22309916157E+02  0.00000000000E+00 0.  1.
<mgrwt>
<rscale>  2 0.64500604E+02</rscale>
<asrwt>0</asrwt>
<pdfrwt beam="1">  1       21 0.34971098E-02 0.64500604E+02</pdfrwt>
<pdfrwt beam="2">  1       21 0.79456880E-01 0.64500604E+02</pdfrwt>
<totfact> 0.68912335E+05</totfact>
</mgrwt>
</event>
<event>
 5    1  0.1854763E+000  0.7871623E+02  0.7546771E-02  0.1332735E+00
         21   -1    0    0  503  502  0.00000000000E+00  0.00000000000E+00  0.17877688565E+04  0.17877688565E+04  0.00000000000E+00 0.  1.
         21   -1    0    0  501  503 -0.00000000000E+00 -0.00000000000E+00 -0.12563117675E+02  0.12563117675E+02  0.00000000000E+00 0. -1.
         24    1    1    2    0    0  0.60440314813E+01 -0.20481595758E+01  0.17912265148E+03  0.19645066939E+03  0.80419002446E+02 0.  0.
          1    1    1    2  501    0  0.10007351408E+02 -0.34990512927E+02  0.87611435913E+02  0.94869630440E+02  0.00000000000E+00 0. -1.
         -2    1    1    2    0  502 -0.16051382889E+02  0.37038672503E+02  0.15084716514E+04  0.15090116744E+04  0.00000000000E+00 0.  1.
<mgrwt>
<rscale>  2 0.78716226E+02</rscale>
<asrwt>0</asrwt>
<pdfrwt beam="1">  1       21 0.27504116E+00 0.78716226E+02</pdfrwt>
<pdfrwt beam="2">  1       21 0.19327888E-02 0.78716226E+02</pdfrwt>
<totfact> 0.70140659E+04</totfact>
</mgrwt>
</event>
<event>
 5    1  0.1854763E+000  0.1138342E+03  0.7546771E-02  0.1253630E+00
         21   -1    0    0  501  502  0.00000000000E+00  0.00000000000E+00  0.45341567118E+03  0.45341567118E+03  0.00000000000E+00 0.  1.
         21   -1    0    0  502  503 -0.00000000000E+00 -0.00000000000E+00 -0.73782141676E+02  0.73782141676E+02  0.00000000000E+00 0.  1.
         24    1    1    2    0    0 -0.95106473649E+02  0.20766191398E+02  0.36257542000E+03  0.38393310247E+03  0.80419002446E+02 0.  1.
          1    1    1    2  501    0  0.14309906246E+02 -0.14482351984E+02  0.51371701753E+02  0.55259059680E+02  0.00000000000E+00 0. -1.
         -2    1    1    2    0  503  0.80796567403E+02 -0.62838394144E+01 -0.34313592249E+02  0.88005650699E+02  0.00000000000E+00 0.  1.
<mgrwt>
<rscale>  2 0.11383423E+03</rscale>
<asrwt>0</asrwt>
<pdfrwt beam="1">  1       21 0.69756255E-01 0.11383423E+03</pdfrwt>
<pdfrwt beam="2">  1       21 0.11351099E-01 0.11383423E+03</pdfrwt>
<totfact> 0.12460190E+05</totfact>
</mgrwt>
</event>
<event>
 5    1  0.1854763E+000  0.6793466E+02  0.7546771E-02  0.1367261E+00
         21   -1    0    0  503  502  0.00000000000E+00  0.00000000000E+00  0.57976785286E+02  0.57976785286E+02  0.00000000000E+00 0. -1.
         21   -1    0    0  501  503 -0.00000000000E+00 -0.00000000000E+00 -0.79623865339E+02  0.79623865339E+02  0.00000000000E+00 0.  1.
         24    1    1    2    0    0  0.28840606850E+01 -0.99556502669E+01 -0.11845216088E+02  0.81944846554E+02  0.80419002446E+02 0. -1.
          1    1    1    2  501    0  0.44953408038E+01 -0.21761425849E+02 -0.38309946630E+01  0.22548708700E+02  0.00000000000E+00 0. -1.
         -2    1    1    2    0  502 -0.73794014888E+01  0.31717076116E+02 -0.59708693016E+01  0.33107095371E+02  0.00000000000E+00 0.  1.
<mgrwt>
<rscale>  2 0.67934657E+02</rscale>
<asrwt>0</asrwt>
<pdfrwt beam="1">  1       21 0.89195055E-02 0.67934657E+02</pdfrwt>
<pdfrwt beam="2">  1       21 0.12249825E-01 0.67934657E+02</pdfrwt>
<totfact> 0.52932006E+06</totfact>
</mgrwt>
</event>
<event>
 5    1  0.1854763E+000  0.8618405E+02  0.7546771E-02  0.1312365E+00
         21   -1    0    0  503  502  0.00000000000E+00  0.00000000000E+00  0.78868678022E+01  0.78868678022E+01  0.00000000000E+00 0. -1.
         21   -1    0    0  501  503 -0.00000000000E+00 -0.00000000000E+00 -0.96922227482E+03  0.96922227482E+03  0.00000000000E+00 0. -1.
         24    1    1    2    0    0  0.39777568584E+02  0.43806347650E+02 -0.52275191078E+03  0.53220111540E+03  0.80419002446E+02 0. -1.
          1    1    1    2  501    0 -0.45313273368E+02 -0.22652898904E+02 -0.35096187692E+03  0.35459933111E+03  0.00000000000E+00 0. -1.
         -2    1    1    2    0  502  0.55357047845E+01 -0.21153448746E+02 -0.87621619317E+02  0.90308696110E+02  0.00000000000E+00 0.  1.
<mgrwt>
<rscale>  2 0.86184050E+02</rscale>
<asrwt>0</asrwt>
<pdfrwt beam="1">  1       21 0.12133639E-02 0.86184050E+02</pdfrwt>
<pdfrwt beam="2">  1       21 0.14911116E+00 0.86184050E+02</pdfrwt>
<totfact> 0.85267312E+05</totfact>
</mgrwt>
</event>
<event>
 5    1  0.1854763E+000  0.7273941E+02  0.7546771E-02  0.1351018E+00
         21   -1    0    0  501  502  0.00000000000E+00  0.00000000000E+00  0.71105648464E+02  0.71105648464E+02  0.00000000000E+00 0.  1.
         21   -1    0    0  502  503 -0.00000000000E+00 -0.00000000000E+00 -0.16991230304E+03  0.16991230304E+03  0.00000000000E+00 0. -1.
         24    1    1    2    0    0  0.29521316386E+02  0.33297916917E+02 -0.92833084048E+02  0.13063482247E+03  0.80419002446E+02 0. -1.
          1    1    1    2  501    0 -0.36726972088E+01 -0.26618947441E+02  0.45245719175E+02  0.52623494480E+02  0.00000000000E+00 0. -1.
         -2    1    1    2    0  503 -0.25848619178E+02 -0.66789694764E+01 -0.51219289699E+02  0.57759634555E+02  0.00000000000E+00 0.  1.
<mgrwt>
<rscale>  2 0.72739414E+02</rscale>
<asrwt>0</asrwt>
<pdfrwt beam="1">  1       21 0.10939330E-01 0.72739414E+02</pdfrwt>
<pdfrwt beam="2">  1       21 0.26140354E-01 0.72739414E+02</pdfrwt>
<totfact> 0.95519690E+05</totfact>
</mgrwt>
</event>
<event>
 5    1  0.1854763E+000  0.8093721E+02  0.7546771E-02  0.1326413E+00
         21   -1    0    0  501  502  0.00000000000E+00  0.00000000000E+00  0.15438808657E+02  0.15438808657E+02  0.00000000000E+00 0.  1.
         21   -1    0    0  502  503 -0.00000000000E+00 -0.00000000000E+00 -0.63121960479E+03  0.63121960479E+03  0.00000000000E+00 0.  1.
         24    1    1    2    0    0 -0.19526468128E+02  0.55858028400E+02 -0.25910056069E+03  0.27767196257E+03  0.80419002446E+02 0.  1.
          1    1    1    2  501    0 -0.85803626004E+00 -0.25203080224E+02 -0.25845745146E+02  0.36110026601E+02  0.00000000000E+00 0. -1.
         -2    1    1    2    0  503  0.20384504388E+02 -0.30654948175E+02 -0.33083449030E+03  0.33287642428E+03  0.00000000000E+00 0.  1.
<mgrwt>
<rscale>  2 0.80937211E+02</rscale>
<asrwt>0</asrwt>
<pdfrwt beam="1">  1       21 0.23752010E-02 0.80937211E+02</pdfrwt>
<pdfrwt beam="2">  1       21 0.97110723E-01 0.80937211E+02</pdfrwt>
<totfact> 0.82373633E+05</totfact>
</mgrwt>
</event>
<event>
 5    1  0.1854763E+000  0.9518741E+02  0.7546771E-02  0.1290755E+00
         21   -1    0    0  503  502  0.00000000000E+00  0.00000000000E+00  0.13264537585E+02  0.13264537585E+02  0.00000000000E+00 0.  1.
         21   -1    0    0  501  503 -0.00000000000E+00 -0.00000000000E+00 -0.12256805783E+04  0.12256805783E+04  0.00000000000E+00 0. -1.
         24    1    1    2    0    0 -0.50969223884E+02  0.21530255588E+02 -0.71295436839E+03  0.71960583728E+03  0.80419002446E+02 0. -1.
          1    1    1    2  501    0  0.61370418711E+02  0.75900715568E+01 -0.47731591564E+03  0.48130491459E+03  0.00000000000E+00 0. -1.
         -2    1    1    2    0  502 -0.10401194827E+02 -0.29120327145E+02 -0.22145756672E+02  0.38034364007E+02  0.00000000000E+00 0.  1.
<mgrwt>
<rscale>  2 0.95187413E+02</rscale>
<asrwt>0</asrwt>
<pdfrwt beam="1">  1       21 0.20406971E-02 0.95187413E+02</pdfrwt>
<pdfrwt beam="2">  1       21 0.18856634E+00 0.95187413E+02</pdfrwt>
<totfact> 0.19994422E+05</totfact>
</mgrwt>
</event>
<event>
 5    1  0.1854763E+000  0.8254382E+02  0.7546771E-02  0.1321984E+00
         21   -1    0    0  501  502  0.00000000000E+00  0.00000000000E+00  0.18279464743E+03  0.18279464743E+03  0.00000000000E+00 0.  1.
         21   -1    0    0  502  503 -0.00000000000E+00 -0.00000000000E+00 -0.58588389085E+02  0.58588389085E+02  0.00000000000E+00 0. -1.
         24    1    1    2    0    0 -0.19380267747E+02  0.37590478038E+02  0.33082977314E+02  0.96697146594E+02  0.80419002446E+02 0. -1.
          1    1    1    2  501    0 -0.13655778014E+02 -0.38835464119E+02  0.10191049938E+03  0.10991097957E+03  0.00000000000E+00 0. -1.
         -2    1    1    2    0  503  0.33036045761E+02  0.12449860808E+01 -0.10787218351E+02  0.34774910347E+02  0.00000000000E+00 0.  1.
<mgrwt>
<rscale>  2 0.82543822E+02</rscale>
<asrwt>0</asrwt>
<pdfrwt beam="1">  1       21 0.28122253E-01 0.82543822E+02</pdfrwt>
<pdfrwt beam="2">  1       21 0.90135984E-02 0.82543822E+02</pdfrwt>
<totfact> 0.11664743E+06</totfact>
</mgrwt>
</event>
<event>
 5    1  0.1854763E+000  0.7531440E+02  0.7546771E-02  0.1342900E+00
         21   -1    0    0  501  502  0.00000000000E+00  0.00000000000E+00  0.23444722804E+04  0.23444722804E+04  0.00000000000E+00 0. -1.
         21   -1    0    0  502  503 -0.00000000000E+00 -0.00000000000E+00 -0.28868772180E+01  0.28868772180E+01  0.00000000000E+00 0.  1.
         24    1    1    2    0    0  0.50115750143E+01  0.77465872707E+01  0.98567181787E+03  0.98899002724E+03  0.80419002446E+02 0.  1.
          1    1    1    2  501    0 -0.28938138660E+02 -0.26533647041E+02  0.10924167003E+04  0.10931219956E+04  0.00000000000E+00 0. -1.
         -2    1    1    2    0  503  0.23926563645E+02  0.18787059770E+02  0.26349688507E+03  0.26524713477E+03  0.00000000000E+00 0.  1.
<mgrwt>
<rscale>  2 0.75314395E+02</rscale>
<asrwt>0</asrwt>
<pdfrwt beam="1">  1       21 0.36068652E+00 0.75314395E+02</pdfrwt>
<pdfrwt beam="2">  1       21 0.44413683E-03 0.75314395E+02</pdfrwt>
<totfact> 0.23563269E+05</totfact>
</mgrwt>
</event>
<event>
 5    1  0.1854763E+000  0.9783303E+02  0.7546771E-02  0.1284920E+00
         21   -1    0    0  501  502  0.00000000000E+00  0.00000000000E+00  0.10168816740E+04  0.10168816740E+04  0.00000000000E+00 0. -1.
         21   -1    0    0  502  503 -0.00000000000E+00 -0.00000000000E+00 -0.10401665131E+03  0.10401665131E+03  0.00000000000E+00 0.  1.
         24    1    1    2    0    0  0.49983054183E+02  0.22564694411E+02  0.15162961294E+03  0.18018386891E+03  0.80419002446E+02 0. -1.
          1    1    1    2  501    0 -0.62335553338E+02  0.10334424859E+02  0.84631109531E+03  0.84866659625E+03  0.00000000000E+00 0. -1.
         -2    1    1    2    0  503  0.12352499155E+02 -0.32899119270E+02 -0.85075685566E+02  0.92047860153E+02  0.00000000000E+00 0.  1.
<mgrwt>
<rscale>  2 0.97833034E+02</rscale>
<asrwt>0</asrwt>
<pdfrwt beam="1">  1       21 0.15644333E+00 0.97833034E+02</pdfrwt>
<pdfrwt beam="2">  1       21 0.16002562E-01 0.97833034E+02</pdfrwt>
<totfact> 0.10213576E+04</totfact>
</mgrwt>
</event>
<event>
 5    1  0.1854763E+000  0.1306743E+03  0.7546771E-02  0.1226459E+00
         21   -1    0    0  501  502  0.00000000000E+00  0.00000000000E+00  0.10615239407E+03  0.10615239407E+03  0.00000000000E+00 0.  1.
         21   -1    0    0  502  503 -0.00000000000E+00 -0.00000000000E+00 -0.22556587901E+03  0.22556587901E+03  0.00000000000E+00 0. -1.
         24    1    1    2    0    0  0.10858122709E+03  0.43409533168E+02  0.25162630743E+02  0.14413411944E+03  0.80419002446E+02 0.  1.
          1    1    1    2  501    0 -0.75997139796E+02 -0.41960466187E+02 -0.10171855543E+03  0.13372699988E+03  0.00000000000E+00 0. -1.
         -2    1    1    2    0  503 -0.32584087291E+02 -0.14490669816E+01 -0.42857560254E+02  0.53857153755E+02  0.00000000000E+00 0.  1.
<mgrwt>
<rscale>  2 0.13067428E+03</rscale>
<asrwt>0</asrwt>
<pdfrwt beam="1">  1       21 0.16331138E-01 0.13067428E+03</pdfrwt>
<pdfrwt beam="2">  1       21 0.34702443E-01 0.13067428E+03</pdfrwt>
<totfact> 0.27257898E+05</totfact>
</mgrwt>
</event>
<event>
 5    1  0.1854763E+000  0.1346636E+03  0.7546771E-02  0.1220695E+00
         21   -1    0    0  501  502  0.00000000000E+00  0.00000000000E+00  0.93211339936E+01  0.93211339936E+01  0.00000000000E+00 0.  1.
         21   -1    0    0  502  503 -0.00000000000E+00 -0.00000000000E+00 -0.19552641030E+04  0.19552641030E+04  0.00000000000E+00 0.  1.
         24    1    1    2    0    0  0.68871917199E+02  0.82425621091E+02 -0.90009776860E+03  0.91004424782E+03  0.80419002446E+02 0.  1.
          1    1    1    2  501    0  0.19071927652E+02 -0.12673335000E+02 -0.17751315950E+03  0.17898400387E+03  0.00000000000E+00 0. -1.
         -2    1    1    2    0  503 -0.87943844851E+02 -0.69752286091E+02 -0.86833204095E+03  0.87555698535E+03  0.00000000000E+00 0.  1.
<mgrwt>
<rscale>  2 0.13466361E+03</rscale>
<asrwt>0</asrwt>
<pdfrwt beam="1">  1       21 0.14340219E-02 0.13466361E+03</pdfrwt>
<pdfrwt beam="2">  1       21 0.30080960E+00 0.13466361E+03</pdfrwt>
<totfact> 0.75275972E+04</totfact>
</mgrwt>
</event>
<event>
 5    1  0.1854763E+000  0.1083997E+03  0.7546771E-02  0.1263562E+00
         21   -1    0    0  503  502  0.00000000000E+00  0.00000000000E+00  0.64819011497E+02  0.64819011497E+02  0.00000000000E+00 0. -1.
         21   -1    0    0  501  503 -0.00000000000E+00 -0.00000000000E+00 -0.20087957699E+03  0.20087957699E+03  0.00000000000E+00 0. -1.
         24    1    1    2    0    0  0.40081476726E+01 -0.58151287879E+02 -0.59415359155E+02  0.11573693614E+03  0.80419002446E+02 0. -1.
          1    1    1    2  501    0 -0.52702711175E+02  0.36964085634E+02 -0.72111424873E+02  0.96664248764E+02  0.00000000000E+00 0. -1.
         -2    1    1    2    0  502  0.48694563502E+02  0.21187202245E+02 -0.45337814619E+01  0.53297403577E+02  0.00000000000E+00 0.  1.
<mgrwt>
<rscale>  2 0.10839973E+03</rscale>
<asrwt>0</asrwt>
<pdfrwt beam="1">  1       21 0.99721554E-02 0.10839973E+03</pdfrwt>
<pdfrwt beam="2">  1       21 0.30904551E-01 0.10839973E+03</pdfrwt>
<totfact> 0.82189358E+05</totfact>
</mgrwt>
</event>
<event>
 5    1  0.1854763E+000  0.8929744E+02  0.7546771E-02  0.1304562E+00
         21   -1    0    0  503  502  0.00000000000E+00  0.00000000000E+00  0.25253543542E+02  0.25253543542E+02  0.00000000000E+00 0.  1.
         21   -1    0    0  501  503 -0.00000000000E+00 -0.00000000000E+00 -0.15532403336E+04  0.15532403336E+04  0.00000000000E+00 0. -1.
         24    1    1    2    0    0 -0.99812459963E+01  0.63809083078E+02 -0.51162406361E+03  0.52191725663E+03  0.80419002446E+02 0.  1.
          1    1    1    2  501    0 -0.14735636524E+02 -0.31468928335E+02 -0.10152633818E+04  0.10158578478E+04  0.00000000000E+00 0. -1.
         -2    1    1    2    0  502  0.24716882520E+02 -0.32340154742E+02 -0.10993445850E+01  0.40718772683E+02  0.00000000000E+00 0.  1.
<mgrwt>
<rscale>  2 0.89297437E+02</rscale>
<asrwt>0</asrwt>
<pdfrwt beam="1">  1       21 0.38851608E-02 0.89297437E+02</pdfrwt>
<pdfrwt beam="2">  1       21 0.23896004E+00 0.89297437E+02</pdfrwt>
<totfact> 0.35347769E+04</totfact>
</mgrwt>
</event>
<event>
 5    1  0.1854763E+000  0.9224052E+02  0.7546771E-02  0.1297515E+00
         21   -1    0    0  501  502  0.00000000000E+00  0.00000000000E+00  0.42092910646E+03  0.42092910646E+03  0.00000000000E+00 0. -1.
         21   -1    0    0  502  503 -0.00000000000E+00 -0.00000000000E+00 -0.16598885600E+03  0.16598885600E+03  0.00000000000E+00 0. -1.
         24    1    1    2    0    0 -0.51273502010E+02  0.39637972137E+01 -0.13667466409E+02  0.96429763503E+02  0.80419002446E+02 0. -1.
          1    1    1    2  501    0  0.66300918517E+02  0.11691947773E+02  0.37546323694E+03  0.38145138056E+03  0.00000000000E+00 0. -1.
         -2    1    1    2    0  503 -0.15027416507E+02 -0.15655744987E+02 -0.10685552006E+03  0.10903681840E+03  0.00000000000E+00 0.  1.
<mgrwt>
<rscale>  2 0.92240518E+02</rscale>
<asrwt>0</asrwt>
<pdfrwt beam="1">  1       21 0.64758324E-01 0.92240518E+02</pdfrwt>
<pdfrwt beam="2">  1       21 0.25536747E-01 0.92240518E+02</pdfrwt>
<totfact> 0.34063316E+04</totfact>
</mgrwt>
</event>
<event>
 5    1  0.1854763E+000  0.1104421E+03  0.7546771E-02  0.1259753E+00
         21   -1    0    0  503  502  0.00000000000E+00  0.00000000000E+00  0.40405602285E+02  0.40405602285E+02  0.00000000000E+00 0.  1.
         21   -1    0    0  501  503 -0.00000000000E+00 -0.00000000000E+00 -0.65340719990E+03  0.65340719990E+03  0.00000000000E+00 0. -1.
         24    1    1    2    0    0  0.21195638429E+02 -0.27117023678E+02 -0.47486887255E+03  0.48285841624E+03  0.80419002446E+02 0. -1.
          1    1    1    2  501    0  0.38439444435E+02  0.55382392479E+02 -0.12733850705E+03  0.14408294716E+03  0.00000000000E+00 0. -1.
         -2    1    1    2    0  502 -0.59635082864E+02 -0.28265368802E+02 -0.10794218007E+02  0.66871438777E+02  0.00000000000E+00 0.  1.
<mgrwt>
<rscale>  2 0.11044211E+03</rscale>
<asrwt>0</asrwt>
<pdfrwt beam="1">  1       21 0.62162476E-02 0.11044211E+03</pdfrwt>
<pdfrwt beam="2">  1       21 0.10052417E+00 0.11044211E+03</pdfrwt>
<totfact> 0.15508192E+05</totfact>
</mgrwt>
</event>
<event>
 5    1  0.1854763E+000  0.7219434E+02  0.7546771E-02  0.1352786E+00
         21   -1    0    0  503  502  0.00000000000E+00  0.00000000000E+00  0.78991427160E+02  0.78991427160E+02  0.00000000000E+00 0.  1.
         21   -1    0    0  501  503 -0.00000000000E+00 -0.00000000000E+00 -0.19818072754E+03  0.19818072754E+03  0.00000000000E+00 0. -1.
         24    1    1    2    0    0  0.41350401597E+01  0.34209814033E+01 -0.34037054989E+02  0.87490220811E+02  0.80419002446E+02 0.  0.
          1    1    1    2  501    0  0.10314277803E+02  0.27657184306E+02 -0.12995965333E+03  0.13326971022E+03  0.00000000000E+00 0. -1.
         -2    1    1    2    0  502 -0.14449317963E+02 -0.31078165709E+02  0.44807407933E+02  0.56412223667E+02  0.00000000000E+00 0.  1.
<mgrwt>
<rscale>  2 0.72194344E+02</rscale>
<asrwt>0</asrwt>
<pdfrwt beam="1">  1       21 0.12152527E-01 0.72194344E+02</pdfrwt>
<pdfrwt beam="2">  1       21 0.30489342E-01 0.72194344E+02</pdfrwt>
<totfact> 0.59524044E+05</totfact>
</mgrwt>
</event>
<event>
 5    1  0.1854763E+000  0.7326156E+02  0.7546771E-02  0.1349341E+00
         21   -1    0    0  501  502  0.00000000000E+00  0.00000000000E+00  0.18090580288E+03  0.18090580288E+03  0.00000000000E+00 0.  1.
         21   -1    0    0  502  503 -0.00000000000E+00 -0.00000000000E+00 -0.33505450576E+02  0.33505450576E+02  0.00000000000E+00 0. -1.
         24    1    1    2    0    0 -0.93930985403E-01 -0.27199363722E+02  0.57072899502E+02  0.10229538612E+03  0.80419002446E+02 0.  1.
          1    1    1    2  501    0  0.27548238786E+02  0.10420080031E+02  0.64322517251E+02  0.70745104096E+02  0.00000000000E+00 0. -1.
         -2    1    1    2    0  503 -0.27454307801E+02  0.16779283691E+02  0.26004935554E+02  0.41370763242E+02  0.00000000000E+00 0.  1.
<mgrwt>
<rscale>  2 0.73261561E+02</rscale>
<asrwt>0</asrwt>
<pdfrwt beam="1">  1       21 0.27831661E-01 0.73261561E+02</pdfrwt>
<pdfrwt beam="2">  1       21 0.51546848E-02 0.73261561E+02</pdfrwt>
<totfact> 0.30361810E+06</totfact>
</mgrwt>
</event>
<event>
 5    1  0.1854763E+000  0.8533724E+02  0.7546771E-02  0.1314553E+00
         21   -1    0    0  501  502  0.00000000000E+00  0.00000000000E+00  0.42239552896E+03  0.42239552896E+03  0.00000000000E+00 0. -1.
         21   -1    0    0  502  503 -0.00000000000E+00 -0.00000000000E+00 -0.63854312843E+02  0.63854312843E+02  0.00000000000E+00 0.  1.
         24    1    1    2    0    0 -0.33197864491E+02  0.28944464371E+01  0.14533016510E+03  0.16940646053E+03  0.80419002446E+02 0.  1.
          1    1    1    2  501    0 -0.23493646747E+02  0.99211078019E+01  0.24786573274E+03  0.24917423880E+03  0.00000000000E+00 0. -1.
         -2    1    1    2    0  503  0.56691511239E+02 -0.12815554239E+02 -0.34654681723E+02  0.67669142468E+02  0.00000000000E+00 0.  1.
<mgrwt>
<rscale>  2 0.85337238E+02</rscale>
<asrwt>0</asrwt>
<pdfrwt beam="1">  1       21 0.64983926E-01 0.85337238E+02</pdfrwt>
<pdfrwt beam="2">  1       21 0.98237407E-02 0.85337238E+02</pdfrwt>
<totfact> 0.18874512E+05</totfact>
</mgrwt>
</event>
<event>
 5    1  0.1854763E+000  0.7028187E+02  0.7546771E-02  0.1359137E+00
         21   -1    0    0  503  502  0.00000000000E+00  0.00000000000E+00  0.20399053721E+03  0.20399053721E+03  0.00000000000E+00 0.  1.
         21   -1    0    0  501  503 -0.00000000000E+00 -0.00000000000E+00 -0.55104021106E+02  0.55104021106E+02  0.00000000000E+00 0. -1.
         24    1    1    2    0    0  0.19447350420E+01 -0.42994882180E+02  0.14533522323E+02  0.92362227743E+02  0.80419002446E+02 0. -1.
          1    1    1    2  501    0  0.11116360740E+02  0.18163108241E+02 -0.71587520691E+01  0.22465967779E+02  0.00000000000E+00 0. -1.
         -2    1    1    2    0  502 -0.13061095782E+02  0.24831773940E+02  0.14151174586E+03  0.14426636280E+03  0.00000000000E+00 0.  1.
<mgrwt>
<rscale>  2 0.70281870E+02</rscale>
<asrwt>0</asrwt>
<pdfrwt beam="1">  1       21 0.31383159E-01 0.70281870E+02</pdfrwt>
<pdfrwt beam="2">  1       21 0.84775418E-02 0.70281870E+02</pdfrwt>
<totfact> 0.10471955E+06</totfact>
</mgrwt>
</event>
<event>
 5    1  0.1854763E+000  0.1316664E+03  0.7546771E-02  0.1225004E+00
         21   -1    0    0  501  502  0.00000000000E+00  0.00000000000E+00  0.84994400204E+03  0.84994400204E+03  0.00000000000E+00 0.  1.
         21   -1    0    0  502  503 -0.00000000000E+00 -0.00000000000E+00 -0.31246715359E+02  0.31246715359E+02  0.00000000000E+00 0. -1.
         24    1    1    2    0    0  0.84382575177E+02  0.24730757952E+02  0.17876736379E+03  0.21484183878E+03  0.80419002446E+02 0. -1.
          1    1    1    2  501    0 -0.87174628945E+01  0.42237560114E+02  0.44218794810E+03  0.44428615451E+03  0.00000000000E+00 0. -1.
         -2    1    1    2    0  503 -0.75665112282E+02 -0.66968318066E+02  0.19774197479E+03  0.22206272410E+03  0.00000000000E+00 0.  1.
<mgrwt>
<rscale>  2 0.13166637E+03</rscale>
<asrwt>0</asrwt>
<pdfrwt beam="1">  1       21 0.13076060E+00 0.13166637E+03</pdfrwt>
<pdfrwt beam="2">  1       21 0.48071876E-02 0.13166637E+03</pdfrwt>
<totfact> 0.12572697E+05</totfact>
</mgrwt>
</event>
<event>
 5    1  0.1854763E+000  0.8095800E+02  0.7546771E-02  0.1326355E+00
         21   -1    0    0  501  502  0.00000000000E+00  0.00000000000E+00  0.90264592570E+02  0.90264592570E+02  0.00000000000E+00 0. -1.
         21   -1    0    0  502  503 -0.00000000000E+00 -0.00000000000E+00 -0.75600711697E+02  0.75600711697E+02  0.00000000000E+00 0. -1.
         24    1    1    2    0    0  0.47458538177E+02  0.18356957110E+02  0.21558531554E+02  0.97577030891E+02  0.80419002446E+02 0. -1.
          1    1    1    2  501    0 -0.43242752100E+02  0.45290285507E+01  0.16173341267E+01  0.43509349323E+02  0.00000000000E+00 0. -1.
         -2    1    1    2    0  503 -0.42157860772E+01 -0.22885985660E+02 -0.85119848086E+01  0.24778924054E+02  0.00000000000E+00 0.  1.
<mgrwt>
<rscale>  2 0.80957998E+02</rscale>
<asrwt>0</asrwt>
<pdfrwt beam="1">  1       21 0.13886860E-01 0.80957998E+02</pdfrwt>
<pdfrwt beam="2">  1       21 0.11630879E-01 0.80957998E+02</pdfrwt>
<totfact> 0.27180572E+06</totfact>
</mgrwt>
</event>
<event>
 5    1  0.1854763E+000  0.7602935E+02  0.7546771E-02  0.1340713E+00
         21   -1    0    0  501  502  0.00000000000E+00  0.00000000000E+00  0.11079855389E+04  0.11079855389E+04  0.00000000000E+00 0. -1.
         21   -1    0    0  502  503 -0.00000000000E+00 -0.00000000000E+00 -0.72899015334E+01  0.72899015334E+01  0.00000000000E+00 0. -1.
         24    1    1    2    0    0 -0.21811660673E+02  0.20959544780E+02  0.32255699231E+03  0.33380425447E+03  0.80419002446E+02 0. -1.
          1    1    1    2  501    0  0.39365683945E+02 -0.75416214653E+00  0.60459014623E+03  0.60587083669E+03  0.00000000000E+00 0. -1.
         -2    1    1    2    0  503 -0.17554023272E+02 -0.20205382633E+02  0.17354849878E+03  0.17560034923E+03  0.00000000000E+00 0.  1.
<mgrwt>
<rscale>  2 0.76029350E+02</rscale>
<asrwt>0</asrwt>
<pdfrwt beam="1">  1       21 0.17045918E+00 0.76029350E+02</pdfrwt>
<pdfrwt beam="2">  1       21 0.11215242E-02 0.76029350E+02</pdfrwt>
<totfact> 0.68349057E+05</totfact>
</mgrwt>
</event>
<event>
 5    1  0.1854763E+000  0.7837497E+02  0.7546771E-02  0.1333727E+00
         21   -1    0    0  501  502  0.00000000000E+00  0.00000000000E+00  0.16482019304E+03  0.16482019304E+03  0.00000000000E+00 0. -1.
         21   -1    0    0  502  503 -0.00000000000E+00 -0.00000000000E+00 -0.49889091840E+02  0.49889091840E+02  0.00000000000E+00 0. -1.
         24    1    1    2    0    0 -0.55408602978E+02 -0.15973310956E+02  0.95775635885E+02  0.13771509841E+03  0.80419002446E+02 0. -1.
          1    1    1    2  501    0  0.28101053534E+02  0.61012059681E+01  0.33879032742E+02  0.44437402979E+02  0.00000000000E+00 0. -1.
         -2    1    1    2    0  503  0.27307549444E+02  0.98721049881E+01 -0.14723567425E+02  0.32556783491E+02  0.00000000000E+00 0.  1.
<mgrwt>
<rscale>  2 0.78374966E+02</rscale>
<asrwt>0</asrwt>
<pdfrwt beam="1">  1       21 0.25356952E-01 0.78374966E+02</pdfrwt>
<pdfrwt beam="2">  1       21 0.76752450E-02 0.78374966E+02</pdfrwt>
<totfact> 0.18607359E+06</totfact>
</mgrwt>
</event>
<event>
 5    1  0.1854763E+000  0.9022886E+02  0.7546771E-02  0.1302298E+00
         21   -1    0    0  501  502  0.00000000000E+00  0.00000000000E+00  0.23977701956E+03  0.23977701956E+03  0.00000000000E+00 0.  1.
         21   -1    0    0  502  503 -0.00000000000E+00 -0.00000000000E+00 -0.58929842021E+02  0.58929842021E+02  0.00000000000E+00 0.  1.
         24    1    1    2    0    0 -0.54104456021E+01 -0.68635553429E+02  0.15363850426E+03  0.18658005805E+03  0.80419002446E+02 0.  1.
          1    1    1    2  501    0  0.16022943230E+02  0.25065729132E+02  0.52719892349E+02  0.60534391349E+02  0.00000000000E+00 0. -1.
         -2    1    1    2    0  503 -0.10612497628E+02  0.43569824297E+02 -0.25511219078E+02  0.51592412175E+02  0.00000000000E+00 0.  1.
<mgrwt>
<rscale>  2 0.90228858E+02</rscale>
<asrwt>0</asrwt>
<pdfrwt beam="1">  1       21 0.36888772E-01 0.90228858E+02</pdfrwt>
<pdfrwt beam="2">  1       21 0.90661297E-02 0.90228858E+02</pdfrwt>
<totfact> 0.68642545E+05</totfact>
</mgrwt>
</event>
<event>
 5    1  0.1854763E+000  0.7123937E+02  0.7546771E-02  0.1355929E+00
         21   -1    0    0  501  502  0.00000000000E+00  0.00000000000E+00  0.18008576951E+03  0.18008576951E+03  0.00000000000E+00 0. -1.
         21   -1    0    0  502  503 -0.00000000000E+00 -0.00000000000E+00 -0.24401176208E+03  0.24401176208E+03  0.00000000000E+00 0.  1.
         24    1    1    2    0    0  0.11496159550E+01 -0.21012633566E+02  0.32291422371E+02  0.89178496844E+02  0.80419002446E+02 0.  1.
          1    1    1    2  501    0  0.17278587837E+02 -0.12349741063E+02  0.11670019421E+03  0.11861703516E+03  0.00000000000E+00 0. -1.
         -2    1    1    2    0  503 -0.18428203792E+02  0.33362374628E+02 -0.21291760916E+03  0.21630199959E+03  0.00000000000E+00 0.  1.
<mgrwt>
<rscale>  2 0.71239366E+02</rscale>
<asrwt>0</asrwt>
<pdfrwt beam="1">  1       21 0.27705503E-01 0.71239366E+02</pdfrwt>
<pdfrwt beam="2">  1       21 0.37540271E-01 0.71239366E+02</pdfrwt>
<totfact> 0.90045480E+04</totfact>
</mgrwt>
</event>
<event>
 5    1  0.1854763E+000  0.8629917E+02  0.7546771E-02  0.1312070E+00
         21   -1    0    0  501  502  0.00000000000E+00  0.00000000000E+00  0.97753233911E+02  0.97753233911E+02  0.00000000000E+00 0.  1.
         21   -1    0    0  502  503 -0.00000000000E+00 -0.00000000000E+00 -0.13333590301E+03  0.13333590301E+03  0.00000000000E+00 0. -1.
         24    1    1    2    0    0  0.36798167755E+01 -0.10158904136E+02  0.38110162019E+02  0.89645662406E+02  0.80419002446E+02 0.  1.
          1    1    1    2  501    0  0.19870971526E+02  0.45120806300E+02  0.75867417340E+01  0.49882876027E+02  0.00000000000E+00 0. -1.
         -2    1    1    2    0  503 -0.23550788301E+02 -0.34961902164E+02 -0.81279572848E+02  0.91560598485E+02  0.00000000000E+00 0.  1.
<mgrwt>
<rscale>  2 0.86299171E+02</rscale>
<asrwt>0</asrwt>
<pdfrwt beam="1">  1       21 0.15038959E-01 0.86299171E+02</pdfrwt>
<pdfrwt beam="2">  1       21 0.20513216E-01 0.86299171E+02</pdfrwt>
<totfact> 0.85799233E+05</totfact>
</mgrwt>
</event>
<event>
 5    1  0.1854763E+000  0.6920398E+02  0.7546771E-02  0.1362821E+00
         21   -1    0    0  503  502  0.00000000000E+00  0.00000000000E+00  0.40275017336E+03  0.40275017336E+03  0.00000000000E+00 0. -1.
         21   -1    0    0  501  503 -0.00000000000E+00 -0.00000000000E+00 -0.17313035176E+02  0.17313035176E+02  0.00000000000E+00 0. -1.
         24    1    1    2    0    0  0.29388676315E+02  0.63363804732E+01  0.12438276674E+03  0.15113613939E+03  0.80419002446E+02 0.  0.
          1    1    1    2  501    0 -0.19055374854E+02 -0.24871545093E+02  0.69931992235E+02  0.76630180766E+02  0.00000000000E+00 0. -1.
         -2    1    1    2    0  502 -0.10333301461E+02  0.18535164620E+02  0.19112237921E+03  0.19229688838E+03  0.00000000000E+00 0.  1.
<mgrwt>
<rscale>  2 0.69203977E+02</rscale>
<asrwt>0</asrwt>
<pdfrwt beam="1">  1       21 0.61961558E-01 0.69203977E+02</pdfrwt>
<pdfrwt beam="2">  1       21 0.26635442E-02 0.69203977E+02</pdfrwt>
<totfact> 0.18230438E+06</totfact>
</mgrwt>
</event>
<event>
 5    1  0.1854763E+000  0.7190448E+02  0.7546771E-02  0.1353734E+00
         21   -1    0    0  503  502  0.00000000000E+00  0.00000000000E+00  0.27684031929E+03  0.27684031929E+03  0.00000000000E+00 0. -1.
         21   -1    0    0  501  503 -0.00000000000E+00 -0.00000000000E+00 -0.96333312464E+02  0.96333312464E+02  0.00000000000E+00 0. -1.
         24    1    1    2    0    0 -0.10559811122E+02  0.47845302018E+02  0.23394355391E+03  0.25218541771E+03  0.80419002446E+02 0. -1.
          1    1    1    2  501    0  0.81247189459E+01 -0.18651728613E+02 -0.79325641295E+02  0.81892950887E+02  0.00000000000E+00 0. -1.
         -2    1    1    2    0  502  0.24350921764E+01 -0.29193573405E+02  0.25889094207E+02  0.39095263151E+02  0.00000000000E+00 0.  1.
<mgrwt>
<rscale>  2 0.71904480E+02</rscale>
<asrwt>0</asrwt>
<pdfrwt beam="1">  1       21 0.42590818E-01 0.71904480E+02</pdfrwt>
<pdfrwt beam="2">  1       21 0.14820510E-01 0.71904480E+02</pdfrwt>
<totfact> 0.21958540E+05</totfact>
</mgrwt>
</event>
<event>
 5    1  0.1854763E+000  0.1054424E+03  0.7546771E-02  0.1269250E+00
         21   -1    0    0  503  502  0.00000000000E+00  0.00000000000E+00  0.19523086933E+03  0.19523086933E+03  0.00000000000E+00 0. -1.
         21   -1    0    0  501  503 -0.00000000000E+00 -0.00000000000E+00 -0.11557126510E+03  0.11557126510E+03  0.00000000000E+00 0.  1.
         24    1    1    2    0    0 -0.61256731646E+02 -0.17178109534E+02 -0.35519234556E+02  0.10851869239E+03  0.80419002446E+02 0.  1.
          1    1    1    2  501    0  0.57285403528E+02  0.49542282410E+02 -0.67812515600E+01  0.76039730250E+02  0.00000000000E+00 0. -1.
         -2    1    1    2    0  502  0.39713281183E+01 -0.32364172876E+02  0.12196009034E+03  0.12624371180E+03  0.00000000000E+00 0.  1.
<mgrwt>
<rscale>  2 0.10544242E+03</rscale>
<asrwt>0</asrwt>
<pdfrwt beam="1">  1       21 0.30035518E-01 0.10544242E+03</pdfrwt>
<pdfrwt beam="2">  1       21 0.17780195E-01 0.10544242E+03</pdfrwt>
<totfact> 0.31057676E+05</totfact>
</mgrwt>
</event>
<event>
 5    1  0.1854763E+000  0.1007307E+03  0.7546771E-02  0.1278767E+00
         21   -1    0    0  503  502  0.00000000000E+00  0.00000000000E+00  0.23199943289E+02  0.23199943289E+02  0.00000000000E+00 0. -1.
         21   -1    0    0  501  503 -0.00000000000E+00 -0.00000000000E+00 -0.69670496706E+03  0.69670496706E+03  0.00000000000E+00 0. -1.
         24    1    1    2    0    0  0.48134747358E+02 -0.17347684978E+02 -0.54480447053E+03  0.55307958120E+03  0.80419002446E+02 0. -1.
          1    1    1    2  501    0  0.18797427508E+02  0.32477025803E+02 -0.45507879745E+02  0.58983621496E+02  0.00000000000E+00 0. -1.
         -2    1    1    2    0  502 -0.66932174866E+02 -0.15129340824E+02 -0.83192673496E+02  0.10784170765E+03  0.00000000000E+00 0.  1.
<mgrwt>
<rscale>  2 0.10073066E+03</rscale>
<asrwt>0</asrwt>
<pdfrwt beam="1">  1       21 0.35692223E-02 0.10073066E+03</pdfrwt>
<pdfrwt beam="2">  1       21 0.10718537E+00 0.10073066E+03</pdfrwt>
<totfact> 0.33731986E+05</totfact>
</mgrwt>
</event>
<event>
 5    1  0.1854763E+000  0.8686416E+02  0.7546771E-02  0.1310628E+00
         21   -1    0    0  503  502  0.00000000000E+00  0.00000000000E+00  0.13041974254E+04  0.13041974254E+04  0.00000000000E+00 0.  1.
         21   -1    0    0  501  503 -0.00000000000E+00 -0.00000000000E+00 -0.12464166441E+02  0.12464166441E+02  0.00000000000E+00 0. -1.
         24    1    1    2    0    0 -0.10329896586E+02 -0.23646413730E+02  0.63283654683E+03  0.63844746894E+03  0.80419002446E+02 0.  1.
          1    1    1    2  501    0 -0.18181528591E+02  0.48281069635E+02  0.64363640365E+02  0.82488228664E+02  0.00000000000E+00 0. -1.
         -2    1    1    2    0  502  0.28511425178E+02 -0.24634655905E+02  0.59453307177E+03  0.59572589424E+03  0.00000000000E+00 0.  1.
<mgrwt>
<rscale>  2 0.86864163E+02</rscale>
<asrwt>0</asrwt>
<pdfrwt beam="1">  1       21 0.20064565E+00 0.86864163E+02</pdfrwt>
<pdfrwt beam="2">  1       21 0.19175651E-02 0.86864163E+02</pdfrwt>
<totfact> 0.18671093E+05</totfact>
</mgrwt>
</event>
<event>
 5    1  0.1854763E+000  0.6749828E+02  0.7546771E-02  0.1368813E+00
         21   -1    0    0  503  502  0.00000000000E+00  0.00000000000E+00  0.70827652492E+03  0.70827652492E+03  0.00000000000E+00 0. -1.
         21   -1    0    0  501  503 -0.00000000000E+00 -0.00000000000E+00 -0.11205312987E+02  0.11205312987E+02  0.00000000000E+00 0. -1.
         24    1    1    2    0    0  0.14712923535E+02  0.22447364560E+02  0.60267055538E+03  0.60860444343E+03  0.80419002446E+02 0. -1.
          1    1    1    2  501    0 -0.28851269272E+02 -0.78608200600E+01  0.26338895993E+02  0.39848785085E+02  0.00000000000E+00 0. -1.
         -2    1    1    2    0  502  0.14138345737E+02 -0.14586544500E+02  0.68061760561E+02  0.71028609386E+02  0.00000000000E+00 0.  1.
<mgrwt>
<rscale>  2 0.67498278E+02</rscale>
<asrwt>0</asrwt>
<pdfrwt beam="1">  1       21 0.10896558E+00 0.67498278E+02</pdfrwt>
<pdfrwt beam="2">  1       21 0.17238949E-02 0.67498278E+02</pdfrwt>
<totfact> 0.10491079E+06</totfact>
</mgrwt>
</event>
<event>
 5    1  0.1854763E+000  0.8310777E+02  0.7546771E-02  0.1320456E+00
         21   -1    0    0  503  502  0.00000000000E+00  0.00000000000E+00  0.13432273197E+03  0.13432273197E+03  0.00000000000E+00 0. -1.
         21   -1    0    0  501  503 -0.00000000000E+00 -0.00000000000E+00 -0.65058182141E+02  0.65058182141E+02  0.00000000000E+00 0. -1.
         24    1    1    2    0    0 -0.32477724831E+02 -0.22046893180E+02  0.73287521503E+02  0.11566825352E+03  0.80419002446E+02 0. -1.
          1    1    1    2  501    0  0.31986111064E+02  0.44205233568E+02 -0.18063187228E+02  0.57476018552E+02  0.00000000000E+00 0. -1.
         -2    1    1    2    0  502  0.49161376771E+00 -0.22158340387E+02  0.14040215550E+02  0.26236642040E+02  0.00000000000E+00 0.  1.
<mgrwt>
<rscale>  2 0.83107772E+02</rscale>
<asrwt>0</asrwt>
<pdfrwt beam="1">  1       21 0.20665036E-01 0.83107772E+02</pdfrwt>
<pdfrwt beam="2">  1       21 0.10008951E-01 0.83107772E+02</pdfrwt>
<totfact> 0.17277978E+06</totfact>
</mgrwt>
</event>
<event>
 5    1  0.1854763E+000  0.9013332E+02  0.7546771E-02  0.1302529E+00
         21   -1    0    0  501  502  0.00000000000E+00  0.00000000000E+00  0.11012782804E+02  0.11012782804E+02  0.00000000000E+00 0. -1.
         21   -1    0    0  502  503 -0.00000000000E+00 -0.00000000000E+00 -0.99135219466E+03  0.99135219466E+03  0.00000000000E+00 0.  1.
         24    1    1    2    0    0 -0.84814134865E+01 -0.60278312244E+01 -0.45452852193E+03  0.46170516818E+03  0.80419002446E+02 0.  0.
          1    1    1    2  501    0  0.45625702931E+02 -0.23872459001E+02 -0.10285992974E+03  0.11502940587E+03  0.00000000000E+00 0. -1.
         -2    1    1    2    0  503 -0.37144289444E+02  0.29900290225E+02 -0.42295096018E+03  0.42563040342E+03  0.00000000000E+00 0.  1.
<mgrwt>
<rscale>  2 0.90133322E+02</rscale>
<asrwt>0</asrwt>
<pdfrwt beam="1">  1       21 0.16942740E-02 0.90133322E+02</pdfrwt>
<pdfrwt beam="2">  1       21 0.15251574E+00 0.90133322E+02</pdfrwt>
<totfact> 0.47459050E+05</totfact>
</mgrwt>
</event>
<event>
 5    1  0.1854763E+000  0.1125947E+03  0.7546771E-02  0.1255839E+00
         21   -1    0    0  501  502  0.00000000000E+00  0.00000000000E+00  0.19735627429E+03  0.19735627429E+03  0.00000000000E+00 0.  1.
         21   -1    0    0  502  503 -0.00000000000E+00 -0.00000000000E+00 -0.15178066142E+03  0.15178066142E+03  0.00000000000E+00 0. -1.
         24    1    1    2    0    0 -0.37347854614E+02  0.18692950074E+02  0.36376188501E+02  0.97645950612E+02  0.80419002446E+02 0.  0.
          1    1    1    2  501    0 -0.47807166637E+02 -0.23644583717E+01  0.10914323796E+03  0.11917785968E+03  0.00000000000E+00 0. -1.
         -2    1    1    2    0  503  0.85155021251E+02 -0.16328491703E+02 -0.99943813586E+02  0.13231312542E+03  0.00000000000E+00 0.  1.
<mgrwt>
<rscale>  2 0.11259467E+03</rscale>
<asrwt>0</asrwt>
<pdfrwt beam="1">  1       21 0.30362504E-01 0.11259467E+03</pdfrwt>
<pdfrwt beam="2">  1       21 0.23350871E-01 0.11259467E+03</pdfrwt>
<totfact> 0.18371783E+05</totfact>
</mgrwt>
</event>
<event>
 5    1  0.1854763E+000  0.1181482E+03  0.7546771E-02  0.1246184E+00
         21   -1    0    0  503  502  0.00000000000E+00  0.00000000000E+00  0.34793182065E+02  0.34793182065E+02  0.00000000000E+00 0. -1.
         21   -1    0    0  501  503 -0.00000000000E+00 -0.00000000000E+00 -0.59868122060E+03  0.59868122060E+03  0.00000000000E+00 0.  1.
         24    1    1    2    0    0  0.36919933286E+02  0.68625748554E+02 -0.10834193877E+03  0.15581324234E+03  0.80419002446E+02 0. -1.
          1    1    1    2  501    0  0.30563868246E+02 -0.41600112088E+02 -0.31726030865E+03  0.32143245451E+03  0.00000000000E+00 0. -1.
         -2    1    1    2    0  502 -0.67483801531E+02 -0.27025636466E+02 -0.13828579112E+03  0.15622870581E+03  0.00000000000E+00 0.  1.
<mgrwt>
<rscale>  2 0.11814817E+03</rscale>
<asrwt>0</asrwt>
<pdfrwt beam="1">  1       21 0.53527971E-02 0.11814817E+03</pdfrwt>
<pdfrwt beam="2">  1       21 0.92104805E-01 0.11814817E+03</pdfrwt>
<totfact> 0.24361860E+05</totfact>
</mgrwt>
</event>
<event>
 5    1  0.1854763E+000  0.9258419E+02  0.7546771E-02  0.1296712E+00
         21   -1    0    0  501  502  0.00000000000E+00  0.00000000000E+00  0.23913321034E+03  0.23913321034E+03  0.00000000000E+00 0.  1.
         21   -1    0    0  502  503 -0.00000000000E+00 -0.00000000000E+00 -0.37741525701E+02  0.37741525701E+02  0.00000000000E+00 0. -1.
         24    1    1    2    0    0  0.15713172503E+02 -0.47459860469E+01  0.76651187837E+02  0.11230337807E+03  0.80419002446E+02 0. -1.
          1    1    1    2  501    0  0.41206909513E+02 -0.13429060059E+02  0.75884699364E+02  0.87388996122E+02  0.00000000000E+00 0. -1.
         -2    1    1    2    0  503 -0.56920082017E+02  0.18175046106E+02  0.48855797436E+02  0.77182361851E+02  0.00000000000E+00 0.  1.
<mgrwt>
<rscale>  2 0.92584186E+02</rscale>
<asrwt>0</asrwt>
<pdfrwt beam="1">  1       21 0.36789724E-01 0.92584186E+02</pdfrwt>
<pdfrwt beam="2">  1       21 0.58063887E-02 0.92584186E+02</pdfrwt>
<totfact> 0.14719069E+06</totfact>
</mgrwt>
</event>
<event>
 5    1  0.1854763E+000  0.9826309E+02  0.7546771E-02  0.1283991E+00
         21   -1    0    0  501  502  0.00000000000E+00  0.00000000000E+00  0.22498721139E+03  0.22498721139E+03  0.00000000000E+00 0.  1.
         21   -1    0    0  502  503 -0.00000000000E+00 -0.00000000000E+00 -0.58662764068E+02  0.58662764068E+02  0.00000000000E+00 0.  1.
         24    1    1    2    0    0  0.78694829457E+02  0.13018424105E+02  0.15013804203E+03  0.18807180323E+03  0.80419002446E+02 0.  1.
          1    1    1    2  501    0 -0.36512605358E+02  0.59734460957E+01  0.29633960871E+02  0.47402785205E+02  0.00000000000E+00 0. -1.
         -2    1    1    2    0  503 -0.42182224098E+02 -0.18991870201E+02 -0.13447555584E+02  0.48175387023E+02  0.00000000000E+00 0.  1.
<mgrwt>
<rscale>  2 0.98263087E+02</rscale>
<asrwt>0</asrwt>
<pdfrwt beam="1">  1       21 0.34613417E-01 0.98263087E+02</pdfrwt>
<pdfrwt beam="2">  1       21 0.90250407E-02 0.98263087E+02</pdfrwt>
<totfact> 0.78384707E+05</totfact>
</mgrwt>
</event>
<event>
 5    1  0.1854763E+000  0.7531718E+02  0.7546771E-02  0.1342892E+00
         21   -1    0    0  503  502  0.00000000000E+00  0.00000000000E+00  0.26885931031E+02  0.26885931031E+02  0.00000000000E+00 0. -1.
         21   -1    0    0  501  503 -0.00000000000E+00 -0.00000000000E+00 -0.27874263420E+03  0.27874263420E+03  0.00000000000E+00 0.  1.
         24    1    1    2    0    0 -0.16661648130E+02  0.80192055565E+01 -0.74897126024E+02  0.11143928220E+03  0.80419002446E+02 0.  0.
          1    1    1    2  501    0  0.41287204877E+02  0.24465909449E+01 -0.15225046070E+03  0.15776825371E+03  0.00000000000E+00 0. -1.
         -2    1    1    2    0  502 -0.24625556747E+02 -0.10465796501E+02 -0.24709116440E+02  0.36421029320E+02  0.00000000000E+00 0.  1.
<mgrwt>
<rscale>  2 0.75317184E+02</rscale>
<asrwt>0</asrwt>
<pdfrwt beam="1">  1       21 0.41362974E-02 0.75317184E+02</pdfrwt>
<pdfrwt beam="2">  1       21 0.42883479E-01 0.75317184E+02</pdfrwt>
<totfact> 0.18963894E+06</totfact>
</mgrwt>
</event>
<event>
 5    1  0.1854763E+000  0.6711806E+02  0.7546771E-02  0.1370177E+00
         21   -1    0    0  501  502  0.00000000000E+00  0.00000000000E+00  0.22460113090E+02  0.22460113090E+02  0.00000000000E+00 0.  1.
         21   -1    0    0  502  503 -0.00000000000E+00 -0.00000000000E+00 -0.20704057996E+03  0.20704057996E+03  0.00000000000E+00 0.  1.
         24    1    1    2    0    0 -0.21591604364E+02 -0.21492758522E+01 -0.95652815785E+02  0.12683648484E+03  0.80419002446E+02 0.  1.
          1    1    1    2  501    0  0.18279901873E+02  0.23253726611E+02 -0.45543022593E+02  0.54305225538E+02  0.00000000000E+00 0. -1.
         -2    1    1    2    0  503  0.33117024906E+01 -0.21104450759E+02 -0.43384628490E+02  0.48358982666E+02  0.00000000000E+00 0.  1.
<mgrwt>
<rscale>  2 0.67118055E+02</rscale>
<asrwt>0</asrwt>
<pdfrwt beam="1">  1       21 0.34554018E-02 0.67118055E+02</pdfrwt>
<pdfrwt beam="2">  1       21 0.31852399E-01 0.67118055E+02</pdfrwt>
<totfact> 0.45039760E+06</totfact>
</mgrwt>
</event>
<event>
 5    1  0.1854763E+000  0.1234908E+03  0.7546771E-02  0.1237447E+00
         21   -1    0    0  501  502  0.00000000000E+00  0.00000000000E+00  0.77853407711E+02  0.77853407711E+02  0.00000000000E+00 0. -1.
         21   -1    0    0  502  503 -0.00000000000E+00 -0.00000000000E+00 -0.39752627164E+03  0.39752627164E+03  0.00000000000E+00 0.  1.
         24    1    1    2    0    0 -0.59309552433E+02 -0.92369222518E+02 -0.60371599442E+02  0.14886786843E+03  0.80419002446E+02 0. -1.
          1    1    1    2  501    0  0.39846705312E+02  0.74481600816E+02 -0.21390238835E+02  0.87136737957E+02  0.00000000000E+00 0. -1.
         -2    1    1    2    0  503  0.19462847121E+02  0.17887621702E+02 -0.23791102565E+03  0.23937507296E+03  0.00000000000E+00 0.  1.
<mgrwt>
<rscale>  2 0.12349081E+03</rscale>
<asrwt>0</asrwt>
<pdfrwt beam="1">  1       21 0.11977447E-01 0.12349081E+03</pdfrwt>
<pdfrwt beam="2">  1       21 0.61157889E-01 0.12349081E+03</pdfrwt>
<totfact> 0.14981885E+05</totfact>
</mgrwt>
</event>
<event>
 5    1  0.1854763E+000  0.7524299E+02  0.7546771E-02  0.1343120E+00
         21   -1    0    0  503  502  0.00000000000E+00  0.00000000000E+00  0.73244717259E+01  0.73244717259E+01  0.00000000000E+00 0. -1.
         21   -1    0    0  501  503 -0.00000000000E+00 -0.00000000000E+00 -0.85204518907E+03  0.85204518907E+03  0.00000000000E+00 0.  1.
         24    1    1    2    0    0 -0.13560824872E+02 -0.42335653215E+02 -0.62369684038E+03  0.63042935224E+03  0.80419002446E+02 0.  1.
          1    1    1    2  501    0 -0.13067942597E+02  0.19744051425E+02 -0.11141450991E+03  0.11390255357E+03  0.00000000000E+00 0. -1.
         -2    1    1    2    0  502  0.26628767469E+02  0.22591601789E+02 -0.10960936705E+03  0.11503775499E+03  0.00000000000E+00 0.  1.
<mgrwt>
<rscale>  2 0.75242991E+02</rscale>
<asrwt>0</asrwt>
<pdfrwt beam="1">  1       21 0.11268423E-02 0.75242991E+02</pdfrwt>
<pdfrwt beam="2">  1       21 0.13108382E+00 0.75242991E+02</pdfrwt>
<totfact> 0.13191378E+06</totfact>
</mgrwt>
</event>
<event>
 5    1  0.1854763E+000  0.8786120E+02  0.7546771E-02  0.1308115E+00
         21   -1    0    0  501  502  0.00000000000E+00  0.00000000000E+00  0.21623393278E+03  0.21623393278E+03  0.00000000000E+00 0. -1.
         21   -1    0    0  502  503 -0.00000000000E+00 -0.00000000000E+00 -0.23443445240E+03  0.23443445240E+03  0.00000000000E+00 0.  1.
         24    1    1    2    0    0  0.26488663233E+02  0.29266581655E+02  0.48349892022E+02  0.10179936196E+03  0.80419002446E+02 0.  0.
          1    1    1    2  501    0 -0.40147743434E+02 -0.48238856554E+02  0.13346887918E+03  0.14748820391E+03  0.00000000000E+00 0. -1.
         -2    1    1    2    0  503  0.13659080201E+02  0.18972274899E+02 -0.20001929082E+03  0.20138081931E+03  0.00000000000E+00 0.  1.
<mgrwt>
<rscale>  2 0.87861196E+02</rscale>
<asrwt>0</asrwt>
<pdfrwt beam="1">  1       21 0.33266759E-01 0.87861196E+02</pdfrwt>
<pdfrwt beam="2">  1       21 0.36066839E-01 0.87861196E+02</pdfrwt>
<totfact> 0.67963320E+04</totfact>
</mgrwt>
</event>
<event>
 5    1  0.1854763E+000  0.1109766E+03  0.7546771E-02  0.1258772E+00
         21   -1    0    0  501  502  0.00000000000E+00  0.00000000000E+00  0.65557116625E+02  0.65557116625E+02  0.00000000000E+00 0. -1.
         21   -1    0    0  502  503 -0.00000000000E+00 -0.00000000000E+00 -0.33444646539E+03  0.33444646539E+03  0.00000000000E+00 0.  1.
         24    1    1    2    0    0  0.28859096590E+01  0.61390682618E+01 -0.30455821087E+02  0.86260011744E+02  0.80419002446E+02 0. -1.
          1    1    1    2  501    0 -0.46240924792E+02 -0.57661101509E+02 -0.87920783016E+01  0.74433368819E+02  0.00000000000E+00 0. -1.
         -2    1    1    2    0  503  0.43355015133E+02  0.51522033247E+02 -0.22964144937E+03  0.23931020145E+03  0.00000000000E+00 0.  1.
<mgrwt>
<rscale>  2 0.11097659E+03</rscale>
<asrwt>0</asrwt>
<pdfrwt beam="1">  1       21 0.10085710E-01 0.11097659E+03</pdfrwt>
<pdfrwt beam="2">  1       21 0.51453302E-01 0.11097659E+03</pdfrwt>
<totfact> 0.29200818E+05</totfact>
</mgrwt>
</event>
<event>
 5    1  0.1854763E+000  0.6611694E+02  0.7546771E-02  0.1373819E+00
         21   -1    0    0  501  502  0.00000000000E+00  0.00000000000E+00  0.20525836685E+02  0.20525836685E+02  0.00000000000E+00 0. -1.
         21   -1    0    0  502  503 -0.00000000000E+00 -0.00000000000E+00 -0.25715960204E+03  0.25715960204E+03  0.00000000000E+00 0.  1.
         24    1    1    2    0    0 -0.91285028072E+00 -0.68727642581E+00 -0.19575883282E+03  0.21163658055E+03  0.80419002446E+02 0.  1.
          1    1    1    2  501    0  0.26351551635E+02  0.90613291944E+00 -0.19030516196E+02  0.32517470644E+02  0.00000000000E+00 0. -1.
         -2    1    1    2    0  503 -0.25438701354E+02 -0.21885649364E+00 -0.21844416341E+02  0.33531387535E+02  0.00000000000E+00 0.  1.
<mgrwt>
<rscale>  2 0.66116944E+02</rscale>
<asrwt>0</asrwt>
<pdfrwt beam="1">  1       21 0.31578210E-02 0.66116944E+02</pdfrwt>
<pdfrwt beam="2">  1       21 0.39563016E-01 0.66116944E+02</pdfrwt>
<totfact> 0.34256149E+06</totfact>
</mgrwt>
</event>
<event>
 5    1  0.1854763E+000  0.8516213E+02  0.7546771E-02  0.1315009E+00
         21   -1    0    0  503  502  0.00000000000E+00  0.00000000000E+00  0.92826671057E+03  0.92826671057E+03  0.00000000000E+00 0.  1.
         21   -1    0    0  501  503 -0.00000000000E+00 -0.00000000000E+00 -0.18204262833E+02  0.18204262833E+02  0.00000000000E+00 0.  1.
         24    1    1    2    0    0 -0.13569564371E+02  0.26952246703E+00  0.25146903493E+03  0.26436357011E+03  0.80419002446E+02 0.  0.
          1    1    1    2  501    0  0.40430552613E+02 -0.28756533667E+02  0.44138043708E+02  0.66405833445E+02  0.00000000000E+00 0. -1.
         -2    1    1    2    0  502 -0.26860988242E+02  0.28487011200E+02  0.61445536910E+03  0.61570156985E+03  0.00000000000E+00 0.  1.
<mgrwt>
<rscale>  2 0.85162135E+02</rscale>
<asrwt>0</asrwt>
<pdfrwt beam="1">  1       21 0.14281023E+00 0.85162135E+02</pdfrwt>
<pdfrwt beam="2">  1       21 0.28006565E-02 0.85162135E+02</pdfrwt>
<totfact> 0.25085702E+05</totfact>
</mgrwt>
</event>
<event>
 5    1  0.1854763E+000  0.6322004E+02  0.7546771E-02  0.1384795E+00
         21   -1    0    0  501  502  0.00000000000E+00  0.00000000000E+00  0.10977325005E+02  0.10977325005E+02  0.00000000000E+00 0.  1.
         21   -1    0    0  502  503 -0.00000000000E+00 -0.00000000000E+00 -0.66525401218E+03  0.66525401218E+03  0.00000000000E+00 0. -1.
         24    1    1    2    0    0 -0.10000963402E+02 -0.53683428305E+01 -0.16955414369E+03  0.18800176055E+03  0.80419002446E+02 0.  0.
          1    1    1    2  501    0  0.18008069952E+02 -0.14937148702E+02 -0.92948489996E+02  0.95847956615E+02  0.00000000000E+00 0. -1.
         -2    1    1    2    0  503 -0.80071065496E+01  0.20305491533E+02 -0.39177405349E+03  0.39238162002E+03  0.00000000000E+00 0.  1.
<mgrwt>
<rscale>  2 0.63220036E+02</rscale>
<asrwt>0</asrwt>
<pdfrwt beam="1">  1       21 0.16888195E-02 0.63220036E+02</pdfrwt>
<pdfrwt beam="2">  1       21 0.10234676E+00 0.63220036E+02</pdfrwt>
<totfact> 0.12511454E+06</totfact>
</mgrwt>
</event>
<event>
 5    1  0.1854763E+000  0.7977655E+02  0.7546771E-02  0.1329687E+00
         21   -1    0    0  501  502  0.00000000000E+00  0.00000000000E+00  0.74910714318E+02  0.74910714318E+02  0.00000000000E+00 0.  1.
         21   -1    0    0  502  503 -0.00000000000E+00 -0.00000000000E+00 -0.15018556846E+03  0.15018556846E+03  0.00000000000E+00 0.  1.
         24    1    1    2    0    0 -0.38363811431E+02 -0.10542887850E+02  0.15284247538E+01  0.89735648147E+02  0.80419002446E+02 0.  1.
          1    1    1    2  501    0  0.76489511452E+00 -0.20840790147E+02  0.18713349365E+02  0.28019868717E+02  0.00000000000E+00 0. -1.
         -2    1    1    2    0  503  0.37598916317E+02  0.31383677998E+02 -0.95516628262E+02  0.10734076592E+03  0.00000000000E+00 0.  1.
<mgrwt>
<rscale>  2 0.79776549E+02</rscale>
<asrwt>0</asrwt>
<pdfrwt beam="1">  1       21 0.11524725E-01 0.79776549E+02</pdfrwt>
<pdfrwt beam="2">  1       21 0.23105472E-01 0.79776549E+02</pdfrwt>
<totfact> 0.10999709E+06</totfact>
</mgrwt>
</event>
<event>
 5    1  0.1854763E+000  0.7807629E+02  0.7546771E-02  0.1334601E+00
         21   -1    0    0  501  502  0.00000000000E+00  0.00000000000E+00  0.49155670160E+02  0.49155670160E+02  0.00000000000E+00 0. -1.
         21   -1    0    0  502  503 -0.00000000000E+00 -0.00000000000E+00 -0.38545344876E+03  0.38545344876E+03  0.00000000000E+00 0.  1.
         24    1    1    2    0    0  0.16528262959E+02  0.34471537162E+02 -0.31754264425E+02  0.94535811279E+02  0.80419002446E+02 0.  0.
          1    1    1    2  501    0 -0.32595955804E+02 -0.42364841691E+01  0.73733214656E+00  0.32878378786E+02  0.00000000000E+00 0. -1.
         -2    1    1    2    0  503  0.16067692845E+02 -0.30235052993E+02 -0.30528084632E+03  0.30719492885E+03  0.00000000000E+00 0.  1.
<mgrwt>
<rscale>  2 0.78076287E+02</rscale>
<asrwt>0</asrwt>
<pdfrwt beam="1">  1       21 0.75624107E-02 0.78076287E+02</pdfrwt>
<pdfrwt beam="2">  1       21 0.59300532E-01 0.78076287E+02</pdfrwt>
<totfact> 0.35876173E+05</totfact>
</mgrwt>
</event>
<event>
 5    1  0.1854763E+000  0.1032006E+03  0.7546771E-02  0.1273706E+00
         21   -1    0    0  501  502  0.00000000000E+00  0.00000000000E+00  0.13404098130E+03  0.13404098130E+03  0.00000000000E+00 0.  1.
         21   -1    0    0  502  503 -0.00000000000E+00 -0.00000000000E+00 -0.12331689749E+03  0.12331689749E+03  0.00000000000E+00 0. -1.
         24    1    1    2    0    0  0.13315327045E+02 -0.86261864980E+02 -0.69535055903E+02  0.13755270713E+03  0.80419002446E+02 0. -1.
          1    1    1    2  501    0 -0.50960744834E+01  0.59621735100E+02  0.63612316645E+02  0.87334117620E+02  0.00000000000E+00 0. -1.
         -2    1    1    2    0  503 -0.82192525615E+01  0.26640129880E+02  0.16646823063E+02  0.32471054045E+02  0.00000000000E+00 0.  1.
<mgrwt>
<rscale>  2 0.10320062E+03</rscale>
<asrwt>0</asrwt>
<pdfrwt beam="1">  1       21 0.20621689E-01 0.10320062E+03</pdfrwt>
<pdfrwt beam="2">  1       21 0.18971830E-01 0.10320062E+03</pdfrwt>
<totfact> 0.55941745E+05</totfact>
</mgrwt>
</event>
<event>
 5    1  0.1854763E+000  0.1057575E+03  0.7546771E-02  0.1268634E+00
         21   -1    0    0  503  502  0.00000000000E+00  0.00000000000E+00  0.19610045757E+02  0.19610045757E+02  0.00000000000E+00 0.  1.
         21   -1    0    0  501  503 -0.00000000000E+00 -0.00000000000E+00 -0.23811882677E+04  0.23811882677E+04  0.00000000000E+00 0. -1.
         24    1    1    2    0    0 -0.27448038578E+01  0.43898059099E+02 -0.11844286225E+04  0.11879700970E+04  0.80419002446E+02 0. -1.
          1    1    1    2  501    0 -0.53517557285E+02 -0.31974520904E+02 -0.11454760395E+04  0.11471712409E+04  0.00000000000E+00 0. -1.
         -2    1    1    2    0  502  0.56262361142E+02 -0.11923538195E+02 -0.31673559989E+02  0.65656975614E+02  0.00000000000E+00 0.  1.
<mgrwt>
<rscale>  2 0.10575751E+03</rscale>
<asrwt>0</asrwt>
<pdfrwt beam="1">  1       21 0.30169302E-02 0.10575751E+03</pdfrwt>
<pdfrwt beam="2">  1       21 0.36633665E+00 0.10575751E+03</pdfrwt>
<totfact> 0.10073341E+04</totfact>
</mgrwt>
</event>
<event>
 5    1  0.1854763E+000  0.7711155E+02  0.7546771E-02  0.1337454E+00
         21   -1    0    0  501  502  0.00000000000E+00  0.00000000000E+00  0.13990946784E+03  0.13990946784E+03  0.00000000000E+00 0. -1.
         21   -1    0    0  502  503 -0.00000000000E+00 -0.00000000000E+00 -0.42306069421E+03  0.42306069421E+03  0.00000000000E+00 0. -1.
         24    1    1    2    0    0 -0.24476381838E+02  0.95106243829E+01 -0.25473024056E+03  0.26841061204E+03  0.80419002446E+02 0. -1.
          1    1    1    2  501    0  0.10404140229E+02 -0.37166479207E+02  0.12872127402E+03  0.13438288468E+03  0.00000000000E+00 0. -1.
         -2    1    1    2    0  503  0.14072241609E+02  0.27655854824E+02 -0.15714225984E+03  0.16017666533E+03  0.00000000000E+00 0.  1.
<mgrwt>
<rscale>  2 0.77111554E+02</rscale>
<asrwt>0</asrwt>
<pdfrwt beam="1">  1       21 0.21524533E-01 0.77111554E+02</pdfrwt>
<pdfrwt beam="2">  1       21 0.65086261E-01 0.77111554E+02</pdfrwt>
<totfact> 0.46895556E+04</totfact>
</mgrwt>
</event>
<event>
 5    1  0.1854763E+000  0.8828749E+02  0.7546771E-02  0.1307053E+00
         21   -1    0    0  501  502  0.00000000000E+00  0.00000000000E+00  0.33162704685E+02  0.33162704685E+02  0.00000000000E+00 0. -1.
         21   -1    0    0  502  503 -0.00000000000E+00 -0.00000000000E+00 -0.37187855674E+03  0.37187855674E+03  0.00000000000E+00 0.  1.
         24    1    1    2    0    0 -0.23507525673E+02  0.31685365536E+02 -0.92118216016E+02  0.12848948529E+03  0.80419002446E+02 0.  1.
          1    1    1    2  501    0 -0.15609208759E+02  0.17959996544E+02 -0.19536799093E+01  0.23875211814E+02  0.00000000000E+00 0. -1.
         -2    1    1    2    0  503  0.39116734432E+02 -0.49645362081E+02 -0.24464395613E+03  0.25267656433E+03  0.00000000000E+00 0.  1.
<mgrwt>
<rscale>  2 0.88287495E+02</rscale>
<asrwt>0</asrwt>
<pdfrwt beam="1">  1       21 0.51019548E-02 0.88287495E+02</pdfrwt>
<pdfrwt beam="2">  1       21 0.57212083E-01 0.88287495E+02</pdfrwt>
<totfact> 0.74885434E+05</totfact>
</mgrwt>
</event>
<event>
 5    1  0.1854763E+000  0.7368105E+02  0.7546771E-02  0.1348005E+00
         21   -1    0    0  501  502  0.00000000000E+00  0.00000000000E+00  0.39766685735E+02  0.39766685735E+02  0.00000000000E+00 0. -1.
         21   -1    0    0  502  503 -0.00000000000E+00 -0.00000000000E+00 -0.19751414736E+03  0.19751414736E+03  0.00000000000E+00 0.  1.
         24    1    1    2    0    0 -0.19347230959E+02  0.41224033189E+02 -0.56552717837E+02  0.10834741394E+03  0.80419002446E+02 0. -1.
          1    1    1    2  501    0  0.21454498613E+02 -0.10036190044E+02 -0.70742867963E+00  0.23696435949E+02  0.00000000000E+00 0. -1.
         -2    1    1    2    0  503 -0.21072676537E+01 -0.31187843145E+02 -0.10048731511E+03  0.10523698321E+03  0.00000000000E+00 0.  1.
<mgrwt>
<rscale>  2 0.73681050E+02</rscale>
<asrwt>0</asrwt>
<pdfrwt beam="1">  1       21 0.61179517E-02 0.73681050E+02</pdfrwt>
<pdfrwt beam="2">  1       21 0.30386791E-01 0.73681050E+02</pdfrwt>
<totfact> 0.19340259E+06</totfact>
</mgrwt>
</event>
<event>
 5    1  0.1854763E+000  0.7410339E+02  0.7546771E-02  0.1346670E+00
         21   -1    0    0  501  502  0.00000000000E+00  0.00000000000E+00  0.19189042018E+02  0.19189042018E+02  0.00000000000E+00 0.  1.
         21   -1    0    0  502  503 -0.00000000000E+00 -0.00000000000E+00 -0.60531849311E+03  0.60531849311E+03  0.00000000000E+00 0.  1.
         24    1    1    2    0    0  0.11313397520E+02 -0.18045499373E+02 -0.95383538753E+02  0.12656566845E+03  0.80419002446E+02 0.  1.
          1    1    1    2  501    0 -0.29561069472E+00 -0.22753100233E+02 -0.47321636533E+02  0.52508363525E+02  0.00000000000E+00 0. -1.
         -2    1    1    2    0  503 -0.11017786826E+02  0.40798599606E+02 -0.44342427581E+03  0.44543350315E+03  0.00000000000E+00 0.  1.
<mgrwt>
<rscale>  2 0.74103388E+02</rscale>
<asrwt>0</asrwt>
<pdfrwt beam="1">  1       21 0.29521610E-02 0.74103388E+02</pdfrwt>
<pdfrwt beam="2">  1       21 0.93125899E-01 0.74103388E+02</pdfrwt>
<totfact> 0.63805753E+05</totfact>
</mgrwt>
</event>
<event>
 5    1  0.1854763E+000  0.6745802E+02  0.7546771E-02  0.1368957E+00
         21   -1    0    0  501  502  0.00000000000E+00  0.00000000000E+00  0.13229413945E+04  0.13229413945E+04  0.00000000000E+00 0. -1.
         21   -1    0    0  502  503 -0.00000000000E+00 -0.00000000000E+00 -0.74776102332E+02  0.74776102332E+02  0.00000000000E+00 0.  1.
         24    1    1    2    0    0 -0.15190282558E+01  0.13254119323E+01  0.58326331035E+03  0.58878465445E+03  0.80419002446E+02 0.  1.
          1    1    1    2  501    0  0.15250937030E+02  0.22376404310E+02  0.73405390023E+03  0.73455321318E+03  0.00000000000E+00 0. -1.
         -2    1    1    2    0  503 -0.13731908774E+02 -0.23701816242E+02 -0.69151918440E+02  0.74379629172E+02  0.00000000000E+00 0.  1.
<mgrwt>
<rscale>  2 0.67458020E+02</rscale>
<asrwt>0</asrwt>
<pdfrwt beam="1">  1       21 0.20352943E+00 0.67458020E+02</pdfrwt>
<pdfrwt beam="2">  1       21 0.11504017E-01 0.67458020E+02</pdfrwt>
<totfact> 0.94832453E+03</totfact>
</mgrwt>
</event>
<event>
 5    1  0.1854763E+000  0.8115425E+02  0.7546771E-02  0.1325807E+00
         21   -1    0    0  501  502  0.00000000000E+00  0.00000000000E+00  0.32991232342E+03  0.32991232342E+03  0.00000000000E+00 0. -1.
         21   -1    0    0  502  503 -0.00000000000E+00 -0.00000000000E+00 -0.10088477000E+03  0.10088477000E+03  0.00000000000E+00 0. -1.
         24    1    1    2    0    0  0.26042393913E+02  0.16461722372E+02 -0.60509179312E+02  0.10525099201E+03  0.80419002446E+02 0. -1.
          1    1    1    2  501    0  0.23286272090E+02 -0.13167614426E+02  0.27166119403E+03  0.27297516532E+03  0.00000000000E+00 0. -1.
         -2    1    1    2    0  503 -0.49328666003E+02 -0.32941079459E+01  0.17875538695E+02  0.52570936081E+02  0.00000000000E+00 0.  1.
<mgrwt>
<rscale>  2 0.81154250E+02</rscale>
<asrwt>0</asrwt>
<pdfrwt beam="1">  1       21 0.50755742E-01 0.81154250E+02</pdfrwt>
<pdfrwt beam="2">  1       21 0.15520734E-01 0.81154250E+02</pdfrwt>
<totfact> 0.14169848E+05</totfact>
</mgrwt>
</event>
<event>
 5    1  0.1854763E+000  0.8112052E+02  0.7546771E-02  0.1325901E+00
         21   -1    0    0  501  502  0.00000000000E+00  0.00000000000E+00  0.90319240620E+03  0.90319240620E+03  0.00000000000E+00 0. -1.
         21   -1    0    0  502  503 -0.00000000000E+00 -0.00000000000E+00 -0.28325987588E+02  0.28325987588E+02  0.00000000000E+00 0.  1.
         24    1    1    2    0    0 -0.22623606449E+02  0.21086308180E+02  0.31186656793E+03  0.32354973669E+03  0.80419002446E+02 0.  1.
          1    1    1    2  501    0 -0.19027121369E+01  0.24362121083E+02  0.55520175376E+03  0.55573925598E+03  0.00000000000E+00 0. -1.
         -2    1    1    2    0  503  0.24526318586E+02 -0.45448429263E+02  0.77980969155E+01  0.52229401120E+02  0.00000000000E+00 0.  1.
<mgrwt>
<rscale>  2 0.81120520E+02</rscale>
<asrwt>0</asrwt>
<pdfrwt beam="1">  1       21 0.13895266E+00 0.81120520E+02</pdfrwt>
<pdfrwt beam="2">  1       21 0.43578449E-02 0.81120520E+02</pdfrwt>
<totfact> 0.13079316E+05</totfact>
</mgrwt>
</event>
<event>
 5    1  0.1854763E+000  0.1923715E+03  0.7546771E-02  0.1156340E+00
         21   -1    0    0  503  502  0.00000000000E+00  0.00000000000E+00  0.45947838403E+03  0.45947838403E+03  0.00000000000E+00 0.  1.
         21   -1    0    0  501  503 -0.00000000000E+00 -0.00000000000E+00 -0.17069550463E+03  0.17069550463E+03  0.00000000000E+00 0. -1.
         24    1    1    2    0    0 -0.17424037377E+02 -0.13084336550E+03  0.12621394283E+03  0.19955139361E+03  0.80419002446E+02 0. -1.
          1    1    1    2  501    0 -0.24109817788E+02  0.17082966165E+03 -0.73564876209E+02  0.18755225306E+03  0.00000000000E+00 0. -1.
         -2    1    1    2    0  502  0.41533855165E+02 -0.39986296151E+02  0.23613381278E+03  0.24307024200E+03  0.00000000000E+00 0.  1.
<mgrwt>
<rscale>  2 0.19237148E+03</rscale>
<asrwt>0</asrwt>
<pdfrwt beam="1">  1       21 0.70688982E-01 0.19237148E+03</pdfrwt>
<pdfrwt beam="2">  1       21 0.26260847E-01 0.19237148E+03</pdfrwt>
<totfact> 0.25002380E+04</totfact>
</mgrwt>
</event>
<event>
 5    1  0.1854763E+000  0.9193465E+02  0.7546771E-02  0.1298233E+00
         21   -1    0    0  501  502  0.00000000000E+00  0.00000000000E+00  0.61509407584E+02  0.61509407584E+02  0.00000000000E+00 0.  1.
         21   -1    0    0  502  503 -0.00000000000E+00 -0.00000000000E+00 -0.15150602524E+03  0.15150602524E+03  0.00000000000E+00 0. -1.
         24    1    1    2    0    0  0.55377774138E+02 -0.38150435276E+02 -0.62173112886E+02  0.12188053782E+03  0.80419002446E+02 0.  1.
          1    1    1    2  501    0 -0.21896361500E+02  0.39898619516E+02  0.29746725549E+01  0.45609200421E+02  0.00000000000E+00 0. -1.
         -2    1    1    2    0  503 -0.33481412637E+02 -0.17481842397E+01 -0.30798177327E+02  0.45525694580E+02  0.00000000000E+00 0.  1.
<mgrwt>
<rscale>  2 0.91934653E+02</rscale>
<asrwt>0</asrwt>
<pdfrwt beam="1">  1       21 0.94629859E-02 0.91934653E+02</pdfrwt>
<pdfrwt beam="2">  1       21 0.23308619E-01 0.91934653E+02</pdfrwt>
<totfact> 0.15299320E+06</totfact>
</mgrwt>
</event>
<event>
 5    1  0.1854763E+000  0.7191900E+02  0.7546771E-02  0.1353686E+00
         21   -1    0    0  503  502  0.00000000000E+00  0.00000000000E+00  0.11278007882E+04  0.11278007882E+04  0.00000000000E+00 0. -1.
         21   -1    0    0  501  503 -0.00000000000E+00 -0.00000000000E+00 -0.18556087778E+02  0.18556087778E+02  0.00000000000E+00 0. -1.
         24    1    1    2    0    0 -0.84420350003E+01  0.13210492746E+02  0.60952944015E+03  0.61501149537E+03  0.80419002446E+02 0. -1.
          1    1    1    2  501    0 -0.90984929059E+01 -0.33715327089E+02  0.42878574630E+01  0.35183683371E+02  0.00000000000E+00 0. -1.
         -2    1    1    2    0  502  0.17540527906E+02  0.20504834344E+02  0.49542740279E+03  0.49616169721E+03  0.00000000000E+00 0.  1.
<mgrwt>
<rscale>  2 0.71918999E+02</rscale>
<asrwt>0</asrwt>
<pdfrwt beam="1">  1       21 0.17350776E+00 0.71918999E+02</pdfrwt>
<pdfrwt beam="2">  1       21 0.28547836E-02 0.71918999E+02</pdfrwt>
<totfact> 0.14856979E+05</totfact>
</mgrwt>
</event>
<event>
 5    1  0.1854763E+000  0.1025020E+03  0.7546771E-02  0.1275121E+00
         21   -1    0    0  503  502  0.00000000000E+00  0.00000000000E+00  0.50368702301E+02  0.50368702301E+02  0.00000000000E+00 0.  1.
         21   -1    0    0  501  503 -0.00000000000E+00 -0.00000000000E+00 -0.79458326774E+03  0.79458326774E+03  0.00000000000E+00 0. -1.
         24    1    1    2    0    0 -0.72699699563E+01  0.58705190801E+02 -0.25621048461E+03  0.27497305372E+03  0.80419002446E+02 0. -1.
          1    1    1    2  501    0  0.29927870520E+02 -0.72646029579E+02 -0.52139752104E+03  0.52728407713E+03  0.00000000000E+00 0. -1.
         -2    1    1    2    0  502 -0.22657900564E+02  0.13940838779E+02  0.33393440219E+02  0.42694839190E+02  0.00000000000E+00 0.  1.
<mgrwt>
<rscale>  2 0.10250203E+03</rscale>
<asrwt>0</asrwt>
<pdfrwt beam="1">  1       21 0.77490314E-02 0.10250203E+03</pdfrwt>
<pdfrwt beam="2">  1       21 0.12224358E+00 0.10250203E+03</pdfrwt>
<totfact> 0.67211707E+04</totfact>
</mgrwt>
</event>
<event>
 5    1  0.1854763E+000  0.1727775E+03  0.7546771E-02  0.1174982E+00
         21   -1    0    0  501  502  0.00000000000E+00  0.00000000000E+00  0.81103460914E+02  0.81103460914E+02  0.00000000000E+00 0. -1.
         21   -1    0    0  502  503 -0.00000000000E+00 -0.00000000000E+00 -0.11759977773E+04  0.11759977773E+04  0.00000000000E+00 0.  1.
         24    1    1    2    0    0 -0.96993338433E+02 -0.11933360355E+03 -0.78342009299E+02  0.19040195118E+03  0.80419002446E+02 0.  0.
          1    1    1    2  501    0 -0.13068196152E+02  0.19170908368E+02  0.12899955706E+02  0.26546380837E+02  0.00000000000E+00 0. -1.
         -2    1    1    2    0  503  0.11006153458E+03  0.10016269519E+03 -0.10294522628E+04  0.10401529062E+04  0.00000000000E+00 0.  1.
<mgrwt>
<rscale>  2 0.17277750E+03</rscale>
<asrwt>0</asrwt>
<pdfrwt beam="1">  1       21 0.12477455E-01 0.17277750E+03</pdfrwt>
<pdfrwt beam="2">  1       21 0.18092274E+00 0.17277750E+03</pdfrwt>
<totfact> 0.99784210E+03</totfact>
</mgrwt>
</event>
<event>
 5    1  0.1854763E+000  0.8821147E+02  0.7546771E-02  0.1307242E+00
         21   -1    0    0  501  502  0.00000000000E+00  0.00000000000E+00  0.71442559418E+02  0.71442559418E+02  0.00000000000E+00 0.  1.
         21   -1    0    0  502  503 -0.00000000000E+00 -0.00000000000E+00 -0.19617370960E+03  0.19617370960E+03  0.00000000000E+00 0. -1.
         24    1    1    2    0    0 -0.31218028621E+02  0.10601319407E+02  0.71234437362E+01  0.87206150524E+02  0.80419002446E+02 0.  1.
          1    1    1    2  501    0 -0.25244011274E+02 -0.20079764881E+02  0.44577658321E+01  0.32562689371E+02  0.00000000000E+00 0. -1.
         -2    1    1    2    0  503  0.56462039895E+02  0.94784454739E+01 -0.13631235975E+03  0.14784742913E+03  0.00000000000E+00 0.  1.
<mgrwt>
<rscale>  2 0.88211470E+02</rscale>
<asrwt>0</asrwt>
<pdfrwt beam="1">  1       21 0.10991163E-01 0.88211470E+02</pdfrwt>
<pdfrwt beam="2">  1       21 0.30180570E-01 0.88211470E+02</pdfrwt>
<totfact> 0.72466827E+05</totfact>
</mgrwt>
</event>
<event>
 5    1  0.3041595E+000  0.1203150E+03  0.7546771E-02  0.1242578E+00
         21   -1    0    0  503  502  0.00000000000E+00  0.00000000000E+00  0.15745345718E+03  0.15745345718E+03  0.00000000000E+00 0.  1.
         21   -1    0    0  501  503 -0.00000000000E+00 -0.00000000000E+00 -0.61332690825E+03  0.61332690825E+03  0.00000000000E+00 0. -1.
         24    1    1    2    0    0  0.35260598762E+01  0.30749457278E+02  0.19923163668E+02  0.88442696850E+02  0.80419002446E+02 0.  1.
          1    1    1    2  501    0  0.35145387218E+02  0.52206213181E+02 -0.55666017864E+03  0.56020642750E+03  0.00000000000E+00 0. -1.
         -2    1    1    2    0  502 -0.38671447094E+02 -0.82955670460E+02  0.80863563893E+02  0.12213124108E+03  0.00000000000E+00 0.  1.
<mgrwt>
<rscale>  2 0.12031505E+03</rscale>
<asrwt>0</asrwt>
<pdfrwt beam="1">  1       21 0.24223609E-01 0.12031505E+03</pdfrwt>
<pdfrwt beam="2">  1       21 0.94357986E-01 0.12031505E+03</pdfrwt>
<totfact> 0.15955812E+04</totfact>
</mgrwt>
</event>
<event>
 5    1  0.1854763E+000  0.1381220E+03  0.7546771E-02  0.1215878E+00
         21   -1    0    0  503  502  0.00000000000E+00  0.00000000000E+00  0.25125579879E+02  0.25125579879E+02  0.00000000000E+00 0. -1.
         21   -1    0    0  501  503 -0.00000000000E+00 -0.00000000000E+00 -0.10748069455E+04  0.10748069455E+04  0.00000000000E+00 0.  1.
         24    1    1    2    0    0  0.69080082014E+02 -0.18818048730E+02 -0.26224883384E+03  0.28349222828E+03  0.80419002446E+02 0. -1.
          1    1    1    2  501    0  0.31066698734E+02  0.54104968063E+02 -0.58062020742E+03  0.58396259521E+03  0.00000000000E+00 0. -1.
         -2    1    1    2    0  502 -0.10014678075E+03 -0.35286919333E+02 -0.20681232439E+03  0.23247770192E+03  0.00000000000E+00 0.  1.
<mgrwt>
<rscale>  2 0.13812204E+03</rscale>
<asrwt>0</asrwt>
<pdfrwt beam="1">  1       21 0.38654748E-02 0.13812204E+03</pdfrwt>
<pdfrwt beam="2">  1       21 0.16535487E+00 0.13812204E+03</pdfrwt>
<totfact> 0.98317732E+04</totfact>
</mgrwt>
</event>
<event>
 5    1  0.1854763E+000  0.8232776E+02  0.7546771E-02  0.1322572E+00
         21   -1    0    0  501  502  0.00000000000E+00  0.00000000000E+00  0.20948111547E+02  0.20948111547E+02  0.00000000000E+00 0. -1.
         21   -1    0    0  502  503 -0.00000000000E+00 -0.00000000000E+00 -0.69988985132E+03  0.69988985132E+03  0.00000000000E+00 0.  1.
         24    1    1    2    0    0  0.11203222713E+02 -0.42027816753E+01 -0.11587780301E+03  0.14155584325E+03  0.80419002446E+02 0. -1.
          1    1    1    2  501    0 -0.30490838489E+02  0.35370252461E+02 -0.65897831046E+02  0.80766763755E+02  0.00000000000E+00 0. -1.
         -2    1    1    2    0  503  0.19287615776E+02 -0.31167470786E+02 -0.49716610571E+03  0.49851535586E+03  0.00000000000E+00 0.  1.
<mgrwt>
<rscale>  2 0.82327756E+02</rscale>
<asrwt>0</asrwt>
<pdfrwt beam="1">  1       21 0.32227866E-02 0.82327756E+02</pdfrwt>
<pdfrwt beam="2">  1       21 0.10767536E+00 0.82327756E+02</pdfrwt>
<totfact> 0.39594876E+05</totfact>
</mgrwt>
</event>
<event>
 5    1  0.1854763E+000  0.9618679E+02  0.7546771E-02  0.1288525E+00
         21   -1    0    0  501  502  0.00000000000E+00  0.00000000000E+00  0.14106448653E+02  0.14106448653E+02  0.00000000000E+00 0. -1.
         21   -1    0    0  502  503 -0.00000000000E+00 -0.00000000000E+00 -0.14443025312E+04  0.14443025312E+04  0.00000000000E+00 0.  1.
         24    1    1    2    0    0  0.13986009861E+02 -0.48707294305E+02 -0.62660209435E+03  0.63377078632E+03  0.80419002446E+02 0. -1.
          1    1    1    2  501    0  0.15971974248E+02  0.62377755560E+02 -0.92066616997E+02  0.11234923371E+03  0.00000000000E+00 0. -1.
         -2    1    1    2    0  503 -0.29957984109E+02 -0.13670461255E+02 -0.71152737121E+03  0.71228895983E+03  0.00000000000E+00 0.  1.
<mgrwt>
<rscale>  2 0.96186792E+02</rscale>
<asrwt>0</asrwt>
<pdfrwt beam="1">  1       21 0.21702231E-02 0.96186792E+02</pdfrwt>
<pdfrwt beam="2">  1       21 0.22220036E+00 0.96186792E+02</pdfrwt>
<totfact> 0.11279848E+05</totfact>
</mgrwt>
</event>
<event>
 5    1  0.1854763E+000  0.9065577E+02  0.7546771E-02  0.1301271E+00
         21   -1    0    0  503  502  0.00000000000E+00  0.00000000000E+00  0.15200214707E+03  0.15200214707E+03  0.00000000000E+00 0.  1.
         21   -1    0    0  501  503 -0.00000000000E+00 -0.00000000000E+00 -0.16113736112E+03  0.16113736112E+03  0.00000000000E+00 0. -1.
         24    1    1    2    0    0 -0.42737521393E+02  0.36979198679E+02  0.13090882445E+02  0.99159185290E+02  0.80419002446E+02 0.  0.
          1    1    1    2  501    0  0.57010049765E+02 -0.19060207946E+02 -0.10886798060E+03  0.12436106506E+03  0.00000000000E+00 0. -1.
         -2    1    1    2    0  502 -0.14272528372E+02 -0.17918990732E+02  0.86641884104E+02  0.89619257841E+02  0.00000000000E+00 0.  1.
<mgrwt>
<rscale>  2 0.90655775E+02</rscale>
<asrwt>0</asrwt>
<pdfrwt beam="1">  1       21 0.23384946E-01 0.90655775E+02</pdfrwt>
<pdfrwt beam="2">  1       21 0.24790363E-01 0.90655775E+02</pdfrwt>
<totfact> 0.27067859E+05</totfact>
</mgrwt>
</event>
<event>
 5    1  0.1854763E+000  0.8673959E+02  0.7546771E-02  0.1310945E+00
         21   -1    0    0  501  502  0.00000000000E+00  0.00000000000E+00  0.25731707709E+03  0.25731707709E+03  0.00000000000E+00 0.  1.
         21   -1    0    0  502  503 -0.00000000000E+00 -0.00000000000E+00 -0.36422337613E+02  0.36422337613E+02  0.00000000000E+00 0. -1.
         24    1    1    2    0    0  0.18209974378E+02  0.51364167137E+02  0.18493717282E+03  0.20889914954E+03  0.80419002446E+02 0.  1.
          1    1    1    2  501    0 -0.36355070143E+02 -0.24220224400E+02  0.25367399437E+02  0.50515496130E+02  0.00000000000E+00 0. -1.
         -2    1    1    2    0  503  0.18145095764E+02 -0.27143942737E+02  0.10590167220E+02  0.34324769036E+02  0.00000000000E+00 0.  1.
<mgrwt>
<rscale>  2 0.86739586E+02</rscale>
<asrwt>0</asrwt>
<pdfrwt beam="1">  1       21 0.39587241E-01 0.86739586E+02</pdfrwt>
<pdfrwt beam="2">  1       21 0.56034367E-02 0.86739586E+02</pdfrwt>
<totfact> 0.13502115E+06</totfact>
</mgrwt>
</event>
<event>
 5    1  0.1854763E+000  0.1062617E+03  0.7546771E-02  0.1267654E+00
         21   -1    0    0  503  502  0.00000000000E+00  0.00000000000E+00  0.42609674436E+02  0.42609674436E+02  0.00000000000E+00 0. -1.
         21   -1    0    0  501  503 -0.00000000000E+00 -0.00000000000E+00 -0.18015855614E+04  0.18015855614E+04  0.00000000000E+00 0. -1.
         24    1    1    2    0    0  0.61830671613E+02 -0.66077990937E+02 -0.53600481348E+02  0.13239924620E+03  0.80419002446E+02 0. -1.
          1    1    1    2  501    0 -0.26352784425E+02  0.37855337029E+02 -0.15287417046E+04  0.15294373786E+04  0.00000000000E+00 0. -1.
         -2    1    1    2    0  502 -0.35477887187E+02  0.28222653908E+02 -0.17663370108E+03  0.18235861107E+03  0.00000000000E+00 0.  1.
<mgrwt>
<rscale>  2 0.10626166E+03</rscale>
<asrwt>0</asrwt>
<pdfrwt beam="1">  1       21 0.65553342E-02 0.10626166E+03</pdfrwt>
<pdfrwt beam="2">  1       21 0.27716702E+00 0.10626166E+03</pdfrwt>
<totfact> 0.87720501E+03</totfact>
</mgrwt>
</event>
<event>
 5    1  0.1854763E+000  0.9547088E+02  0.7546771E-02  0.1290119E+00
         21   -1    0    0  501  502  0.00000000000E+00  0.00000000000E+00  0.23704496675E+03  0.23704496675E+03  0.00000000000E+00 0.  1.
         21   -1    0    0  502  503 -0.00000000000E+00 -0.00000000000E+00 -0.48473172963E+02  0.48473172963E+02  0.00000000000E+00 0. -1.
         24    1    1    2    0    0 -0.81307073553E+01  0.49308600815E+02  0.88825122372E+02  0.12982513176E+03  0.80419002446E+02 0.  1.
          1    1    1    2  501    0 -0.26210026134E+02  0.97319820387E+01  0.79773805650E+02  0.84531278308E+02  0.00000000000E+00 0. -1.
         -2    1    1    2    0  503  0.34340733490E+02 -0.59040582853E+02  0.19972865767E+02  0.71161729653E+02  0.00000000000E+00 0.  1.
<mgrwt>
<rscale>  2 0.95470876E+02</rscale>
<asrwt>0</asrwt>
<pdfrwt beam="1">  1       21 0.36468456E-01 0.95470876E+02</pdfrwt>
<pdfrwt beam="2">  1       21 0.74574114E-02 0.95470876E+02</pdfrwt>
<totfact> 0.98139870E+05</totfact>
</mgrwt>
</event>
<event>
 5    1  0.1854763E+000  0.1057678E+03  0.7546771E-02  0.1268614E+00
         21   -1    0    0  501  502  0.00000000000E+00  0.00000000000E+00  0.16459130178E+03  0.16459130178E+03  0.00000000000E+00 0. -1.
         21   -1    0    0  502  503 -0.00000000000E+00 -0.00000000000E+00 -0.85186259647E+02  0.85186259647E+02  0.00000000000E+00 0.  1.
         24    1    1    2    0    0  0.17064242614E+02 -0.59269668212E+02  0.89128185859E+02  0.13496344474E+03  0.80419002446E+02 0.  0.
          1    1    1    2  501    0 -0.45042166435E+02  0.43969730066E+00  0.11157418306E+02  0.46405582360E+02  0.00000000000E+00 0. -1.
         -2    1    1    2    0  503  0.27977923822E+02  0.58829970912E+02 -0.20880562031E+02  0.68408534333E+02  0.00000000000E+00 0.  1.
<mgrwt>
<rscale>  2 0.10576782E+03</rscale>
<asrwt>0</asrwt>
<pdfrwt beam="1">  1       21 0.25321739E-01 0.10576782E+03</pdfrwt>
<pdfrwt beam="2">  1       21 0.13105578E-01 0.10576782E+03</pdfrwt>
<totfact> 0.74294706E+05</totfact>
</mgrwt>
</event>
<event>
 5    1  0.1854763E+000  0.7944477E+02  0.7546771E-02  0.1330635E+00
         21   -1    0    0  503  502  0.00000000000E+00  0.00000000000E+00  0.74452736901E+02  0.74452736901E+02  0.00000000000E+00 0. -1.
         21   -1    0    0  501  503 -0.00000000000E+00 -0.00000000000E+00 -0.11673042703E+03  0.11673042703E+03  0.00000000000E+00 0.  1.
         24    1    1    2    0    0  0.27098076125E+02  0.15428882630E+02 -0.72334434801E+02  0.11256927894E+03  0.80419002446E+02 0.  1.
          1    1    1    2  501    0  0.21725620543E+02 -0.84751904053E+01  0.92398622849E+01  0.25083988826E+02  0.00000000000E+00 0. -1.
         -2    1    1    2    0  502 -0.48823696667E+02 -0.69536922243E+01  0.20816882382E+02  0.53529896170E+02  0.00000000000E+00 0.  1.
<mgrwt>
<rscale>  2 0.79444773E+02</rscale>
<asrwt>0</asrwt>
<pdfrwt beam="1">  1       21 0.11454267E-01 0.79444773E+02</pdfrwt>
<pdfrwt beam="2">  1       21 0.17958527E-01 0.79444773E+02</pdfrwt>
<totfact> 0.17617787E+06</totfact>
</mgrwt>
</event>
<event>
 5    1  0.1854763E+000  0.7654876E+02  0.7546771E-02  0.1339141E+00
         21   -1    0    0  501  502  0.00000000000E+00  0.00000000000E+00  0.25608532407E+02  0.25608532407E+02  0.00000000000E+00 0. -1.
         21   -1    0    0  502  503 -0.00000000000E+00 -0.00000000000E+00 -0.17409584041E+04  0.17409584041E+04  0.00000000000E+00 0.  1.
         24    1    1    2    0    0  0.14315112430E+02 -0.31855554524E+00 -0.60054071494E+03  0.60607044985E+03  0.80419002446E+02 0.  0.
          1    1    1    2  501    0  0.26594115191E+02  0.11545155341E+02  0.13082694662E+02  0.31807145020E+02  0.00000000000E+00 0. -1.
         -2    1    1    2    0  503 -0.40909227622E+02 -0.11226599796E+02 -0.11278918514E+04  0.11286893417E+04  0.00000000000E+00 0.  1.
<mgrwt>
<rscale>  2 0.76548758E+02</rscale>
<asrwt>0</asrwt>
<pdfrwt beam="1">  1       21 0.39397729E-02 0.76548758E+02</pdfrwt>
<pdfrwt beam="2">  1       21 0.26783984E+00 0.76548758E+02</pdfrwt>
<totfact> 0.24420656E+04</totfact>
</mgrwt>
</event>
<event>
 5    1  0.1854763E+000  0.8224383E+02  0.7546771E-02  0.1322802E+00
         21   -1    0    0  501  502  0.00000000000E+00  0.00000000000E+00  0.25374489640E+02  0.25374489640E+02  0.00000000000E+00 0. -1.
         21   -1    0    0  502  503 -0.00000000000E+00 -0.00000000000E+00 -0.26667861285E+03  0.26667861285E+03  0.00000000000E+00 0.  1.
         24    1    1    2    0    0  0.21849689687E+01  0.20595745565E+02 -0.12382766057E+03  0.14909548720E+03  0.80419002446E+02 0.  1.
          1    1    1    2  501    0  0.38145438372E+02 -0.13686600756E+02 -0.56945787003E+02  0.69894350031E+02  0.00000000000E+00 0. -1.
         -2    1    1    2    0  503 -0.40330407341E+02 -0.69091448083E+01 -0.60530675637E+02  0.73063265266E+02  0.00000000000E+00 0.  1.
<mgrwt>
<rscale>  2 0.82243828E+02</rscale>
<asrwt>0</asrwt>
<pdfrwt beam="1">  1       21 0.39037677E-02 0.82243828E+02</pdfrwt>
<pdfrwt beam="2">  1       21 0.41027478E-01 0.82243828E+02</pdfrwt>
<totfact> 0.22846759E+06</totfact>
</mgrwt>
</event>
<event>
 5    1  0.1854763E+000  0.9283489E+02  0.7546771E-02  0.1296128E+00
         21   -1    0    0  501  502  0.00000000000E+00  0.00000000000E+00  0.29141265306E+04  0.29141265306E+04  0.00000000000E+00 0. -1.
         21   -1    0    0  502  503 -0.00000000000E+00 -0.00000000000E+00 -0.70721336300E+01  0.70721336300E+01  0.00000000000E+00 0.  1.
         24    1    1    2    0    0  0.65479145885E+00  0.37176615633E+02  0.13277236073E+04  0.13306764155E+04  0.80419002446E+02 0.  0.
          1    1    1    2  501    0  0.39198601020E+02 -0.41377577298E+02  0.15049837312E+04  0.15060626366E+04  0.00000000000E+00 0. -1.
         -2    1    1    2    0  503 -0.39853392478E+02  0.42009616649E+01  0.74347058448E+02  0.84459612069E+02  0.00000000000E+00 0.  1.
<mgrwt>
<rscale>  2 0.92834887E+02</rscale>
<asrwt>0</asrwt>
<pdfrwt beam="1">  1       21 0.44832620E+00 0.92834887E+02</pdfrwt>
<pdfrwt beam="2">  1       21 0.10880229E-02 0.92834887E+02</pdfrwt>
<totfact> 0.16778908E+04</totfact>
</mgrwt>
</event>
<event>
 5    1  0.1854763E+000  0.6810174E+02  0.7546771E-02  0.1366670E+00
         21   -1    0    0  503  502  0.00000000000E+00  0.00000000000E+00  0.36603096526E+02  0.36603096526E+02  0.00000000000E+00 0. -1.
         21   -1    0    0  501  503 -0.00000000000E+00 -0.00000000000E+00 -0.13633829873E+03  0.13633829873E+03  0.00000000000E+00 0.  1.
         24    1    1    2    0    0 -0.23055332414E+02  0.23635404805E+02 -0.44656262794E+02  0.97732177271E+02  0.80419002446E+02 0.  0.
          1    1    1    2  501    0  0.25005218875E+02  0.54514153134E+00 -0.38186035363E+02  0.45647907368E+02  0.00000000000E+00 0. -1.
         -2    1    1    2    0  502 -0.19498864606E+01 -0.24180546337E+02 -0.16892904048E+02  0.29561310619E+02  0.00000000000E+00 0.  1.
<mgrwt>
<rscale>  2 0.68101743E+02</rscale>
<asrwt>0</asrwt>
<pdfrwt beam="1">  1       21 0.56312456E-02 0.68101743E+02</pdfrwt>
<pdfrwt beam="2">  1       21 0.20975123E-01 0.68101743E+02</pdfrwt>
<totfact> 0.44044416E+06</totfact>
</mgrwt>
</event>
<event>
 5    1  0.1854763E+000  0.6998197E+02  0.7546771E-02  0.1360154E+00
         21   -1    0    0  501  502  0.00000000000E+00  0.00000000000E+00  0.13530019094E+03  0.13530019094E+03  0.00000000000E+00 0. -1.
         21   -1    0    0  502  503 -0.00000000000E+00 -0.00000000000E+00 -0.90215074789E+02  0.90215074789E+02  0.00000000000E+00 0. -1.
         24    1    1    2    0    0 -0.73129710636E+01  0.18239771930E+02 -0.51597277878E+02  0.97548264283E+02  0.80419002446E+02 0. -1.
          1    1    1    2  501    0  0.70147758794E+00 -0.37144577047E+02  0.10088073977E+03  0.10750411774E+03  0.00000000000E+00 0. -1.
         -2    1    1    2    0  503  0.66114934757E+01  0.18904805117E+02 -0.41983457430E+01  0.20462883703E+02  0.00000000000E+00 0.  1.
<mgrwt>
<rscale>  2 0.69981971E+02</rscale>
<asrwt>0</asrwt>
<pdfrwt beam="1">  1       21 0.20815414E-01 0.69981971E+02</pdfrwt>
<pdfrwt beam="2">  1       21 0.13879242E-01 0.69981971E+02</pdfrwt>
<totfact> 0.95859094E+05</totfact>
</mgrwt>
</event>
<event>
 5    1  0.1854763E+000  0.7197581E+02  0.7546771E-02  0.1353500E+00
         21   -1    0    0  501  502  0.00000000000E+00  0.00000000000E+00  0.97267187986E+03  0.97267187986E+03  0.00000000000E+00 0. -1.
         21   -1    0    0  502  503 -0.00000000000E+00 -0.00000000000E+00 -0.30511825844E+02  0.30511825844E+02  0.00000000000E+00 0.  1.
         24    1    1    2    0    0  0.63948269990E+00  0.12312213649E+02  0.14526369178E+03  0.16649551239E+03  0.80419002446E+02 0. -1.
          1    1    1    2  501    0  0.26379060511E+02  0.93246839719E+01  0.80130576331E+03  0.80179407012E+03  0.00000000000E+00 0. -1.
         -2    1    1    2    0  503 -0.27018543211E+02 -0.21636897620E+02 -0.44094010686E+01  0.34894123197E+02  0.00000000000E+00 0.  1.
<mgrwt>
<rscale>  2 0.71975805E+02</rscale>
<asrwt>0</asrwt>
<pdfrwt beam="1">  1       21 0.14964180E+00 0.71975805E+02</pdfrwt>
<pdfrwt beam="2">  1       21 0.46941278E-02 0.71975805E+02</pdfrwt>
<totfact> 0.96762916E+04</totfact>
</mgrwt>
</event>
<event>
 5    1  0.1854763E+000  0.8777249E+02  0.7546771E-02  0.1308337E+00
         21   -1    0    0  501  502  0.00000000000E+00  0.00000000000E+00  0.44995744408E+03  0.44995744408E+03  0.00000000000E+00 0. -1.
         21   -1    0    0  502  503 -0.00000000000E+00 -0.00000000000E+00 -0.50062368424E+02  0.50062368424E+02  0.00000000000E+00 0.  1.
         24    1    1    2    0    0  0.42616073837E+02  0.12556259582E+02  0.14360462918E+03  0.17047960253E+03  0.80419002446E+02 0. -1.
          1    1    1    2  501    0 -0.55304439140E+02 -0.29359442773E+02  0.28619626796E+03  0.29296563222E+03  0.00000000000E+00 0. -1.
         -2    1    1    2    0  503  0.12688365303E+02  0.16803183192E+02 -0.29905821480E+02  0.36574577753E+02  0.00000000000E+00 0.  1.
<mgrwt>
<rscale>  2 0.87772490E+02</rscale>
<asrwt>0</asrwt>
<pdfrwt beam="1">  1       21 0.69224220E-01 0.87772490E+02</pdfrwt>
<pdfrwt beam="2">  1       21 0.77019031E-02 0.87772490E+02</pdfrwt>
<totfact> 0.25009851E+05</totfact>
</mgrwt>
</event>
<event>
 5    1  0.1854763E+000  0.8747969E+02  0.7546771E-02  0.1309072E+00
         21   -1    0    0  501  502  0.00000000000E+00  0.00000000000E+00  0.46422788414E+02  0.46422788414E+02  0.00000000000E+00 0.  1.
         21   -1    0    0  502  503 -0.00000000000E+00 -0.00000000000E+00 -0.31390137070E+03  0.31390137070E+03  0.00000000000E+00 0.  1.
         24    1    1    2    0    0 -0.13778884963E+02  0.10668079977E+02 -0.36783860931E+02  0.90132868481E+02  0.80419002446E+02 0.  1.
          1    1    1    2  501    0 -0.32867925921E+02  0.18442957409E+02 -0.51477180315E+01  0.38038693895E+02  0.00000000000E+00 0. -1.
         -2    1    1    2    0  503  0.46646810884E+02 -0.29111037387E+02 -0.22554700332E+03  0.23215259673E+03  0.00000000000E+00 0.  1.
<mgrwt>
<rscale>  2 0.87479691E+02</rscale>
<asrwt>0</asrwt>
<pdfrwt beam="1">  1       21 0.71419677E-02 0.87479691E+02</pdfrwt>
<pdfrwt beam="2">  1       21 0.48292517E-01 0.87479691E+02</pdfrwt>
<totfact> 0.60299491E+05</totfact>
</mgrwt>
</event>
<event>
 5    1  0.1854763E+000  0.1083714E+03  0.7546771E-02  0.1263616E+00
         21   -1    0    0  503  502  0.00000000000E+00  0.00000000000E+00  0.10522250302E+03  0.10522250302E+03  0.00000000000E+00 0.  1.
         21   -1    0    0  501  503 -0.00000000000E+00 -0.00000000000E+00 -0.12463924643E+03  0.12463924643E+03  0.00000000000E+00 0.  1.
         24    1    1    2    0    0 -0.78840104093E+01  0.90665581661E+02  0.24497968144E+02  0.12389419565E+03  0.80419002446E+02 0.  1.
          1    1    1    2  501    0  0.15186751363E+02 -0.25194962206E+02 -0.21291216473E+02  0.36314452170E+02  0.00000000000E+00 0. -1.
         -2    1    1    2    0  502 -0.73027409532E+01 -0.65470619456E+02 -0.22623495075E+02  0.69653101631E+02  0.00000000000E+00 0.  1.
<mgrwt>
<rscale>  2 0.10837137E+03</rscale>
<asrwt>0</asrwt>
<pdfrwt beam="1">  1       21 0.16188077E-01 0.10837137E+03</pdfrwt>
<pdfrwt beam="2">  1       21 0.19175269E-01 0.10837137E+03</pdfrwt>
<totfact> 0.85329803E+05</totfact>
</mgrwt>
</event>
<event>
 5    1  0.1854763E+000  0.7557961E+02  0.7546771E-02  0.1342086E+00
         21   -1    0    0  503  502  0.00000000000E+00  0.00000000000E+00  0.39725022330E+02  0.39725022330E+02  0.00000000000E+00 0. -1.
         21   -1    0    0  501  503 -0.00000000000E+00 -0.00000000000E+00 -0.24068367443E+03  0.24068367443E+03  0.00000000000E+00 0. -1.
         24    1    1    2    0    0  0.29703776836E+02  0.12716353551E+02 -0.21935391798E+02  0.89400209025E+02  0.80419002446E+02 0. -1.
          1    1    1    2  501    0 -0.37394176191E+02  0.11468812507E+02 -0.13069093855E+03  0.13641839866E+03  0.00000000000E+00 0. -1.
         -2    1    1    2    0  502  0.76903993552E+01 -0.24185166058E+02 -0.48332321752E+02  0.54590089077E+02  0.00000000000E+00 0.  1.
<mgrwt>
<rscale>  2 0.75579606E+02</rscale>
<asrwt>0</asrwt>
<pdfrwt beam="1">  1       21 0.61115418E-02 0.75579606E+02</pdfrwt>
<pdfrwt beam="2">  1       21 0.37028258E-01 0.75579606E+02</pdfrwt>
<totfact> 0.13259088E+06</totfact>
</mgrwt>
</event>
<event>
 5    1  0.1854763E+000  0.1595704E+03  0.7546771E-02  0.1189183E+00
         21   -1    0    0  503  502  0.00000000000E+00  0.00000000000E+00  0.16598475157E+03  0.16598475157E+03  0.00000000000E+00 0.  1.
         21   -1    0    0  501  503 -0.00000000000E+00 -0.00000000000E+00 -0.45766440074E+03  0.45766440074E+03  0.00000000000E+00 0. -1.
         24    1    1    2    0    0 -0.14093928903E+03  0.18394555958E+02 -0.18526089442E+03  0.24696367716E+03  0.80419002446E+02 0. -1.
          1    1    1    2  501    0  0.13309801884E+03  0.29114694944E+01 -0.22202034321E+03  0.25887563052E+03  0.00000000000E+00 0. -1.
         -2    1    1    2    0  502  0.78412701915E+01 -0.21306025452E+02  0.11560158846E+03  0.11780984463E+03  0.00000000000E+00 0.  1.
<mgrwt>
<rscale>  2 0.15957043E+03</rscale>
<asrwt>0</asrwt>
<pdfrwt beam="1">  1       21 0.25536116E-01 0.15957043E+03</pdfrwt>
<pdfrwt beam="2">  1       21 0.70409908E-01 0.15957043E+03</pdfrwt>
<totfact> 0.27128978E+04</totfact>
</mgrwt>
</event>
<event>
 5    1  0.1854763E+000  0.1660344E+03  0.7546771E-02  0.1182048E+00
         21   -1    0    0  501  502  0.00000000000E+00  0.00000000000E+00  0.17092688279E+04  0.17092688279E+04  0.00000000000E+00 0. -1.
         21   -1    0    0  502  503 -0.00000000000E+00 -0.00000000000E+00 -0.28073625341E+02  0.28073625341E+02  0.00000000000E+00 0. -1.
         24    1    1    2    0    0 -0.38850125261E+02 -0.11100657099E+03  0.29500991074E+03  0.32761235390E+03  0.80419002446E+02 0. -1.
          1    1    1    2  501    0 -0.54295369773E+02  0.67951415465E+02  0.11359080129E+04  0.11392332490E+04  0.00000000000E+00 0. -1.
         -2    1    1    2    0  503  0.93145495034E+02  0.43055155524E+02  0.25027727897E+03  0.27049685032E+03  0.00000000000E+00 0.  1.
<mgrwt>
<rscale>  2 0.16603437E+03</rscale>
<asrwt>0</asrwt>
<pdfrwt beam="1">  1       21 0.26296435E+00 0.16603437E+03</pdfrwt>
<pdfrwt beam="2">  1       21 0.43190206E-02 0.16603437E+03</pdfrwt>
<totfact> 0.19734435E+04</totfact>
</mgrwt>
</event>
<event>
 5    1  0.1854763E+000  0.7813132E+02  0.7546771E-02  0.1334440E+00
         21   -1    0    0  501  502  0.00000000000E+00  0.00000000000E+00  0.43052989414E+02  0.43052989414E+02  0.00000000000E+00 0.  1.
         21   -1    0    0  502  503 -0.00000000000E+00 -0.00000000000E+00 -0.46182310507E+03  0.46182310507E+03  0.00000000000E+00 0.  1.
         24    1    1    2    0    0 -0.14048013440E+01  0.48409818815E+01 -0.24607546630E+02  0.84250554170E+02  0.80419002446E+02 0.  1.
          1    1    1    2  501    0 -0.35747512512E+02 -0.12276424262E+02 -0.16794270982E+02  0.41359917568E+02  0.00000000000E+00 0. -1.
         -2    1    1    2    0  503  0.37152313856E+02  0.74354423806E+01 -0.37736829805E+03  0.37926562275E+03  0.00000000000E+00 0.  1.
<mgrwt>
<rscale>  2 0.78131319E+02</rscale>
<asrwt>0</asrwt>
<pdfrwt beam="1">  1       21 0.66235371E-02 0.78131319E+02</pdfrwt>
<pdfrwt beam="2">  1       21 0.71049705E-01 0.78131319E+02</pdfrwt>
<totfact> 0.30593302E+05</totfact>
</mgrwt>
</event>
<event>
 5    1  0.1854763E+000  0.8831225E+02  0.7546771E-02  0.1306991E+00
         21   -1    0    0  503  502  0.00000000000E+00  0.00000000000E+00  0.67288741974E+03  0.67288741974E+03  0.00000000000E+00 0. -1.
         21   -1    0    0  501  503 -0.00000000000E+00 -0.00000000000E+00 -0.23460110217E+02  0.23460110217E+02  0.00000000000E+00 0. -1.
         24    1    1    2    0    0  0.16452563034E+02 -0.67845640165E+02  0.19203966619E+03  0.21959090843E+03  0.80419002446E+02 0. -1.
          1    1    1    2  501    0 -0.23914656598E+01  0.23204608218E+02  0.75910452931E+01  0.24531549466E+02  0.00000000000E+00 0. -1.
         -2    1    1    2    0  502 -0.14061097374E+02  0.44641031947E+02  0.44979659804E+03  0.45222507206E+03  0.00000000000E+00 0.  1.
<mgrwt>
<rscale>  2 0.88312250E+02</rscale>
<asrwt>0</asrwt>
<pdfrwt beam="1">  1       21 0.10352113E+00 0.88312250E+02</pdfrwt>
<pdfrwt beam="2">  1       21 0.36092482E-02 0.88312250E+02</pdfrwt>
<totfact> 0.36040947E+05</totfact>
</mgrwt>
</event>
<event>
 5    1  0.1854763E+000  0.9210619E+02  0.7546771E-02  0.1297830E+00
         21   -1    0    0  501  502  0.00000000000E+00  0.00000000000E+00  0.15005694248E+03  0.15005694248E+03  0.00000000000E+00 0. -1.
         21   -1    0    0  502  503 -0.00000000000E+00 -0.00000000000E+00 -0.31115700676E+03  0.31115700676E+03  0.00000000000E+00 0.  1.
         24    1    1    2    0    0 -0.72487635399E+02  0.50239424091E+01 -0.14606647255E+03  0.18188547947E+03  0.80419002446E+02 0. -1.
          1    1    1    2  501    0  0.50511084703E+02  0.66458773645E+01  0.12610806212E+03  0.13601022276E+03  0.00000000000E+00 0. -1.
         -2    1    1    2    0  503  0.21976550696E+02 -0.11669819774E+02 -0.14114165385E+03  0.14331824700E+03  0.00000000000E+00 0.  1.
<mgrwt>
<rscale>  2 0.92106195E+02</rscale>
<asrwt>0</asrwt>
<pdfrwt beam="1">  1       21 0.23085684E-01 0.92106195E+02</pdfrwt>
<pdfrwt beam="2">  1       21 0.47870308E-01 0.92106195E+02</pdfrwt>
<totfact> 0.77064118E+04</totfact>
</mgrwt>
</event>
<event>
 5    1  0.1854763E+000  0.9332854E+02  0.7546771E-02  0.1294986E+00
         21   -1    0    0  503  502  0.00000000000E+00  0.00000000000E+00  0.83042245538E+02  0.83042245538E+02  0.00000000000E+00 0.  1.
         21   -1    0    0  501  503 -0.00000000000E+00 -0.00000000000E+00 -0.13387780554E+03  0.13387780554E+03  0.00000000000E+00 0. -1.
         24    1    1    2    0    0 -0.34303447848E+02 -0.29338128005E+02 -0.31309393377E+02  0.97390689273E+02  0.80419002446E+02 0. -1.
          1    1    1    2  501    0 -0.26572555717E+02  0.19053541988E+02 -0.42528167652E+02  0.53644973888E+02  0.00000000000E+00 0. -1.
         -2    1    1    2    0  502  0.60876003564E+02  0.10284586017E+02  0.23002001029E+02  0.65884387914E+02  0.00000000000E+00 0.  1.
<mgrwt>
<rscale>  2 0.93328542E+02</rscale>
<asrwt>0</asrwt>
<pdfrwt beam="1">  1       21 0.12775730E-01 0.93328542E+02</pdfrwt>
<pdfrwt beam="2">  1       21 0.20596585E-01 0.93328542E+02</pdfrwt>
<totfact> 0.11391692E+06</totfact>
</mgrwt>
</event>
<event>
 5    1  0.1854763E+000  0.7747033E+02  0.7546771E-02  0.1336387E+00
         21   -1    0    0  501  502  0.00000000000E+00  0.00000000000E+00  0.69406446148E+02  0.69406446148E+02  0.00000000000E+00 0. -1.
         21   -1    0    0  502  503 -0.00000000000E+00 -0.00000000000E+00 -0.28259423949E+03  0.28259423949E+03  0.00000000000E+00 0.  1.
         24    1    1    2    0    0 -0.69999280580E+01  0.30850947712E+02 -0.71859567905E+02  0.11239125153E+03  0.80419002446E+02 0. -1.
          1    1    1    2  501    0  0.24176901199E+02 -0.41703610536E+02  0.36599926944E+02  0.60524939782E+02  0.00000000000E+00 0. -1.
         -2    1    1    2    0  503 -0.17176973141E+02  0.10852662824E+02 -0.17792815238E+03  0.17908449432E+03  0.00000000000E+00 0.  1.
<mgrwt>
<rscale>  2 0.77470334E+02</rscale>
<asrwt>0</asrwt>
<pdfrwt beam="1">  1       21 0.10677915E-01 0.77470334E+02</pdfrwt>
<pdfrwt beam="2">  1       21 0.43476036E-01 0.77470334E+02</pdfrwt>
<totfact> 0.37398468E+05</totfact>
</mgrwt>
</event>
<event>
 5    1  0.1854763E+000  0.1654855E+03  0.7546771E-02  0.1182639E+00
         21   -1    0    0  501  502  0.00000000000E+00  0.00000000000E+00  0.10278739131E+03  0.10278739131E+03  0.00000000000E+00 0.  1.
         21   -1    0    0  502  503 -0.00000000000E+00 -0.00000000000E+00 -0.52104406856E+03  0.52104406856E+03  0.00000000000E+00 0. -1.
         24    1    1    2    0    0 -0.13384074065E+03 -0.11647212634E+02 -0.90856171010E+02  0.18102779120E+03  0.80419002446E+02 0.  1.
          1    1    1    2  501    0  0.14514642097E+03 -0.14538162144E+02 -0.36316184743E+02  0.15032533703E+03  0.00000000000E+00 0. -1.
         -2    1    1    2    0  503 -0.11305680322E+02  0.26185374778E+02 -0.29108432149E+03  0.29247833164E+03  0.00000000000E+00 0.  1.
<mgrwt>
<rscale>  2 0.16548552E+03</rscale>
<asrwt>0</asrwt>
<pdfrwt beam="1">  1       21 0.15813445E-01 0.16548552E+03</pdfrwt>
<pdfrwt beam="2">  1       21 0.80160626E-01 0.16548552E+03</pdfrwt>
<totfact> 0.49445080E+04</totfact>
</mgrwt>
</event>
<event>
 5    1  0.1854763E+000  0.1022758E+03  0.7546771E-02  0.1275582E+00
         21   -1    0    0  501  502  0.00000000000E+00  0.00000000000E+00  0.83515381350E+03  0.83515381350E+03  0.00000000000E+00 0.  1.
         21   -1    0    0  502  503 -0.00000000000E+00 -0.00000000000E+00 -0.25048401338E+02  0.25048401338E+02  0.00000000000E+00 0.  1.
         24    1    1    2    0    0  0.74474063373E+02  0.21987708375E+01  0.21676160754E+03  0.24290745392E+03  0.80419002446E+02 0.  1.
          1    1    1    2  501    0 -0.12972419107E+02 -0.25936133078E+02  0.51095739999E+03  0.51177967062E+03  0.00000000000E+00 0. -1.
         -2    1    1    2    0  503 -0.61501644266E+02  0.23737362240E+02  0.82386404627E+02  0.10551509030E+03  0.00000000000E+00 0.  1.
<mgrwt>
<rscale>  2 0.10227580E+03</rscale>
<asrwt>0</asrwt>
<pdfrwt beam="1">  1       21 0.12848518E+00 0.10227580E+03</pdfrwt>
<pdfrwt beam="2">  1       21 0.38536009E-02 0.10227580E+03</pdfrwt>
<totfact> 0.19218604E+05</totfact>
</mgrwt>
</event>
<event>
 5    1  0.1854763E+000  0.9291732E+02  0.7546771E-02  0.1295937E+00
         21   -1    0    0  503  502  0.00000000000E+00  0.00000000000E+00  0.31452736835E+02  0.31452736835E+02  0.00000000000E+00 0.  1.
         21   -1    0    0  501  503 -0.00000000000E+00 -0.00000000000E+00 -0.12463270201E+04  0.12463270201E+04  0.00000000000E+00 0.  1.
         24    1    1    2    0    0 -0.57164866139E+02 -0.14558556933E+01 -0.10348245790E+04  0.10395186707E+04  0.80419002446E+02 0.  1.
          1    1    1    2  501    0  0.10495550068E+02 -0.29395302018E+02 -0.17962293764E+03  0.18231467324E+03  0.00000000000E+00 0. -1.
         -2    1    1    2    0  502  0.46669316071E+02  0.30851157711E+02 -0.42676658142E+00  0.55946412972E+02  0.00000000000E+00 0.  1.
<mgrwt>
<rscale>  2 0.92917322E+02</rscale>
<asrwt>0</asrwt>
<pdfrwt beam="1">  1       21 0.48388828E-02 0.92917322E+02</pdfrwt>
<pdfrwt beam="2">  1       21 0.19174261E+00 0.92917322E+02</pdfrwt>
<totfact> 0.46765231E+04</totfact>
</mgrwt>
</event>
<event>
 5    1  0.1854763E+000  0.8504338E+02  0.7546771E-02  0.1315319E+00
         21   -1    0    0  503  502  0.00000000000E+00  0.00000000000E+00  0.24207795142E+03  0.24207795142E+03  0.00000000000E+00 0.  1.
         21   -1    0    0  501  503 -0.00000000000E+00 -0.00000000000E+00 -0.34156839956E+03  0.34156839956E+03  0.00000000000E+00 0.  1.
         24    1    1    2    0    0 -0.60810678330E+02 -0.95520682285E+01 -0.94038705135E+02  0.13820157244E+03  0.80419002446E+02 0.  1.
          1    1    1    2  501    0  0.18987494871E+02 -0.11283437424E+02 -0.22241401542E+03  0.22350802039E+03  0.00000000000E+00 0. -1.
         -2    1    1    2    0  502  0.41823183459E+02  0.20835505652E+02  0.21696227242E+03  0.22193675816E+03  0.00000000000E+00 0.  1.
<mgrwt>
<rscale>  2 0.85043377E+02</rscale>
<asrwt>0</asrwt>
<pdfrwt beam="1">  1       21 0.37242762E-01 0.85043377E+02</pdfrwt>
<pdfrwt beam="2">  1       21 0.52548984E-01 0.85043377E+02</pdfrwt>
<totfact> 0.25767021E+04</totfact>
</mgrwt>
</event>
<event>
 5    1  0.1854763E+000  0.8750158E+02  0.7546771E-02  0.1309017E+00
         21   -1    0    0  503  502  0.00000000000E+00  0.00000000000E+00  0.96115568183E+02  0.96115568183E+02  0.00000000000E+00 0. -1.
         21   -1    0    0  501  503 -0.00000000000E+00 -0.00000000000E+00 -0.98021213532E+02  0.98021213532E+02  0.00000000000E+00 0.  1.
         24    1    1    2    0    0  0.40901005087E+02 -0.75088189637E+01  0.40642280929E+02  0.99238528470E+02  0.80419002446E+02 0. -1.
          1    1    1    2  501    0 -0.58781906098E+02  0.20622530633E+02 -0.27463615944E+02  0.68079743352E+02  0.00000000000E+00 0. -1.
         -2    1    1    2    0  502  0.17880901011E+02 -0.13113711669E+02 -0.15084310334E+02  0.26818509894E+02  0.00000000000E+00 0.  1.
<mgrwt>
<rscale>  2 0.87501582E+02</rscale>
<asrwt>0</asrwt>
<pdfrwt beam="1">  1       21 0.14787011E-01 0.87501582E+02</pdfrwt>
<pdfrwt beam="2">  1       21 0.15080187E-01 0.87501582E+02</pdfrwt>
<totfact> 0.15426619E+06</totfact>
</mgrwt>
</event>
<event>
 5    1  0.1854763E+000  0.8995728E+02  0.7546771E-02  0.1302955E+00
         21   -1    0    0  503  502  0.00000000000E+00  0.00000000000E+00  0.12151628262E+04  0.12151628262E+04  0.00000000000E+00 0. -1.
         21   -1    0    0  501  503 -0.00000000000E+00 -0.00000000000E+00 -0.12171601821E+02  0.12171601821E+02  0.00000000000E+00 0. -1.
         24    1    1    2    0    0  0.26462237088E+02 -0.48884933570E+02  0.97324807737E+03  0.97814570632E+03  0.80419002446E+02 0. -1.
          1    1    1    2  501    0 -0.46196606062E+02  0.32202376568E+02  0.83720197284E+02  0.10089693207E+03  0.00000000000E+00 0. -1.
         -2    1    1    2    0  502  0.19734368974E+02  0.16682557002E+02  0.14602294977E+03  0.14829178968E+03  0.00000000000E+00 0.  1.
<mgrwt>
<rscale>  2 0.89957279E+02</rscale>
<asrwt>0</asrwt>
<pdfrwt beam="1">  1       21 0.18694803E+00 0.89957279E+02</pdfrwt>
<pdfrwt beam="2">  1       21 0.18725551E-02 0.89957279E+02</pdfrwt>
<totfact> 0.23574946E+05</totfact>
</mgrwt>
</event>
<event>
 5    1  0.1854763E+000  0.7980056E+02  0.7546771E-02  0.1329618E+00
         21   -1    0    0  501  502  0.00000000000E+00  0.00000000000E+00  0.30925726202E+02  0.30925726202E+02  0.00000000000E+00 0.  1.
         21   -1    0    0  502  503 -0.00000000000E+00 -0.00000000000E+00 -0.32469203793E+03  0.32469203793E+03  0.00000000000E+00 0. -1.
         24    1    1    2    0    0 -0.32223503581E+02 -0.12866276529E+02 -0.63932451641E+02  0.10843647717E+03  0.80419002446E+02 0.  1.
          1    1    1    2  501    0  0.36578655421E+02  0.34299918772E+02 -0.71425774943E+02  0.87270406132E+02  0.00000000000E+00 0. -1.
         -2    1    1    2    0  503 -0.43551518399E+01 -0.21433642244E+02 -0.15840808515E+03  0.15991088083E+03  0.00000000000E+00 0.  1.
<mgrwt>
<rscale>  2 0.79800565E+02</rscale>
<asrwt>0</asrwt>
<pdfrwt beam="1">  1       21 0.47578043E-02 0.79800565E+02</pdfrwt>
<pdfrwt beam="2">  1       21 0.49952618E-01 0.79800565E+02</pdfrwt>
<totfact> 0.11099714E+06</totfact>
</mgrwt>
</event>
<event>
 5    1  0.1854763E+000  0.7320048E+02  0.7546771E-02  0.1349536E+00
         21   -1    0    0  501  502  0.00000000000E+00  0.00000000000E+00  0.11263213024E+02  0.11263213024E+02  0.00000000000E+00 0.  1.
         21   -1    0    0  502  503 -0.00000000000E+00 -0.00000000000E+00 -0.82666315343E+03  0.82666315343E+03  0.00000000000E+00 0. -1.
         24    1    1    2    0    0  0.25145508752E+02 -0.37113814948E+02 -0.20211845905E+03  0.22210092146E+03  0.80419002446E+02 0.  1.
          1    1    1    2  501    0 -0.28354035514E+02  0.15177021757E+02 -0.28820025597E+03  0.28998910473E+03  0.00000000000E+00 0. -1.
         -2    1    1    2    0  503  0.32085267622E+01  0.21936793191E+02 -0.32508122538E+03  0.32583634026E+03  0.00000000000E+00 0.  1.
<mgrwt>
<rscale>  2 0.73200484E+02</rscale>
<asrwt>0</asrwt>
<pdfrwt beam="1">  1       21 0.17328024E-02 0.73200484E+02</pdfrwt>
<pdfrwt beam="2">  1       21 0.12717892E+00 0.73200484E+02</pdfrwt>
<totfact> 0.72165158E+05</totfact>
</mgrwt>
</event>
<event>
 5    1  0.1854763E+000  0.6760793E+02  0.7546771E-02  0.1368422E+00
         21   -1    0    0  501  502  0.00000000000E+00  0.00000000000E+00  0.13654198268E+03  0.13654198268E+03  0.00000000000E+00 0.  1.
         21   -1    0    0  502  503 -0.00000000000E+00 -0.00000000000E+00 -0.36728965976E+02  0.36728965976E+02  0.00000000000E+00 0. -1.
         24    1    1    2    0    0 -0.13070605451E+02 -0.23110800748E+02  0.86194032371E+02  0.12083698527E+03  0.80419002446E+02 0.  0.
          1    1    1    2  501    0 -0.15409146463E+02  0.13450151619E+02  0.71924787314E+01  0.21681331222E+02  0.00000000000E+00 0. -1.
         -2    1    1    2    0  503  0.28479751914E+02  0.96606491288E+01  0.64265055980E+01  0.30752632162E+02  0.00000000000E+00 0.  1.
<mgrwt>
<rscale>  2 0.67607928E+02</rscale>
<asrwt>0</asrwt>
<pdfrwt beam="1">  1       21 0.21006459E-01 0.67607928E+02</pdfrwt>
<pdfrwt beam="2">  1       21 0.56506102E-02 0.67607928E+02</pdfrwt>
<totfact> 0.43651602E+06</totfact>
</mgrwt>
</event>
<event>
 5    1  0.1854763E+000  0.9535738E+02  0.7546771E-02  0.1290373E+00
         21   -1    0    0  503  502  0.00000000000E+00  0.00000000000E+00  0.70603437611E+02  0.70603437611E+02  0.00000000000E+00 0. -1.
         21   -1    0    0  501  503 -0.00000000000E+00 -0.00000000000E+00 -0.13072934633E+03  0.13072934633E+03  0.00000000000E+00 0.  1.
         24    1    1    2    0    0  0.50796045035E+02  0.14814095399E+02 -0.18156733552E+02  0.97962128097E+02  0.80419002446E+02 0.  0.
          1    1    1    2  501    0  0.18406108767E+02  0.99831319640E+01 -0.10132600456E+02  0.23261929321E+02  0.00000000000E+00 0. -1.
         -2    1    1    2    0  502 -0.69202153802E+02 -0.24797227363E+02 -0.31836574713E+02  0.80108726523E+02  0.00000000000E+00 0.  1.
<mgrwt>
<rscale>  2 0.95357381E+02</rscale>
<asrwt>0</asrwt>
<pdfrwt beam="1">  1       21 0.10862067E-01 0.95357381E+02</pdfrwt>
<pdfrwt beam="2">  1       21 0.20112207E-01 0.95357381E+02</pdfrwt>
<totfact> 0.15828416E+06</totfact>
</mgrwt>
</event>
<event>
 5    1  0.1854763E+000  0.9058628E+02  0.7546771E-02  0.1301438E+00
         21   -1    0    0  501  502  0.00000000000E+00  0.00000000000E+00  0.27826156750E+03  0.27826156750E+03  0.00000000000E+00 0.  1.
         21   -1    0    0  502  503 -0.00000000000E+00 -0.00000000000E+00 -0.47374156232E+02  0.47374156232E+02  0.00000000000E+00 0. -1.
         24    1    1    2    0    0  0.71583159122E+02 -0.89269786301E+01  0.33487264504E+02  0.11310372432E+03  0.80419002446E+02 0.  0.
          1    1    1    2  501    0 -0.39992881878E+02  0.11010865531E+02  0.14924292929E+03  0.15490036057E+03  0.00000000000E+00 0. -1.
         -2    1    1    2    0  503 -0.31590277244E+02 -0.20838869005E+01  0.48157217478E+02  0.57631638847E+02  0.00000000000E+00 0.  1.
<mgrwt>
<rscale>  2 0.90586276E+02</rscale>
<asrwt>0</asrwt>
<pdfrwt beam="1">  1       21 0.42809471E-01 0.90586276E+02</pdfrwt>
<pdfrwt beam="2">  1       21 0.72883319E-02 0.90586276E+02</pdfrwt>
<totfact> 0.74280089E+05</totfact>
</mgrwt>
</event>
<event>
 5    1  0.1854763E+000  0.9180326E+02  0.7546771E-02  0.1298543E+00
         21   -1    0    0  501  502  0.00000000000E+00  0.00000000000E+00  0.57927873966E+02  0.57927873966E+02  0.00000000000E+00 0. -1.
         21   -1    0    0  502  503 -0.00000000000E+00 -0.00000000000E+00 -0.27163202810E+03  0.27163202810E+03  0.00000000000E+00 0. -1.
         24    1    1    2    0    0  0.47540696195E+02  0.54045528726E+02 -0.15024109660E+03  0.18498821593E+03  0.80419002446E+02 0. -1.
          1    1    1    2  501    0 -0.29855121525E+02 -0.16344412132E+02  0.28000814158E+02  0.44073956967E+02  0.00000000000E+00 0. -1.
         -2    1    1    2    0  503 -0.17685574670E+02 -0.37701116594E+02 -0.91463871690E+02  0.10049772917E+03  0.00000000000E+00 0.  1.
<mgrwt>
<rscale>  2 0.91803260E+02</rscale>
<asrwt>0</asrwt>
<pdfrwt beam="1">  1       21 0.89119807E-02 0.91803260E+02</pdfrwt>
<pdfrwt beam="2">  1       21 0.41789542E-01 0.91803260E+02</pdfrwt>
<totfact> 0.55269661E+05</totfact>
</mgrwt>
</event>
<event>
 5    1  0.1854763E+000  0.8494713E+02  0.7546771E-02  0.1315571E+00
         21   -1    0    0  503  502  0.00000000000E+00  0.00000000000E+00  0.22118392805E+03  0.22118392805E+03  0.00000000000E+00 0. -1.
         21   -1    0    0  501  503 -0.00000000000E+00 -0.00000000000E+00 -0.50281405767E+02  0.50281405767E+02  0.00000000000E+00 0. -1.
         24    1    1    2    0    0  0.48182811879E+02 -0.33949221502E+02  0.34410916805E+02  0.10547729685E+03  0.80419002446E+02 0. -1.
          1    1    1    2  501    0 -0.44900200868E+02  0.99812595092E+01  0.25911438419E+02  0.52792577322E+02  0.00000000000E+00 0. -1.
         -2    1    1    2    0  502 -0.32826110116E+01  0.23967961993E+02  0.11058016706E+03  0.11319545964E+03  0.00000000000E+00 0.  1.
<mgrwt>
<rscale>  2 0.84947128E+02</rscale>
<asrwt>0</asrwt>
<pdfrwt beam="1">  1       21 0.34028296E-01 0.84947128E+02</pdfrwt>
<pdfrwt beam="2">  1       21 0.77356010E-02 0.84947128E+02</pdfrwt>
<totfact> 0.10527810E+06</totfact>
</mgrwt>
</event>
<event>
 5    1  0.1854763E+000  0.9360922E+02  0.7546771E-02  0.1294340E+00
         21   -1    0    0  501  502  0.00000000000E+00  0.00000000000E+00  0.17820461541E+03  0.17820461541E+03  0.00000000000E+00 0. -1.
         21   -1    0    0  502  503 -0.00000000000E+00 -0.00000000000E+00 -0.17882197467E+03  0.17882197467E+03  0.00000000000E+00 0.  1.
         24    1    1    2    0    0 -0.33900664256E+02  0.35806499874E+02 -0.88914980620E+01  0.94750383442E+02  0.80419002446E+02 0.  0.
          1    1    1    2  501    0  0.49137362260E+02 -0.51383187168E+02  0.12485397974E+03  0.14367751582E+03  0.00000000000E+00 0. -1.
         -2    1    1    2    0  503 -0.15236698004E+02  0.15576687294E+02 -0.11657984094E+03  0.11859869083E+03  0.00000000000E+00 0.  1.
<mgrwt>
<rscale>  2 0.93609223E+02</rscale>
<asrwt>0</asrwt>
<pdfrwt beam="1">  1       21 0.27416095E-01 0.93609223E+02</pdfrwt>
<pdfrwt beam="2">  1       21 0.27511073E-01 0.93609223E+02</pdfrwt>
<totfact> 0.16501429E+05</totfact>
</mgrwt>
</event>
<event>
 5    1  0.1854763E+000  0.1190555E+03  0.7546771E-02  0.1244663E+00
         21   -1    0    0  503  502  0.00000000000E+00  0.00000000000E+00  0.12586751221E+03  0.12586751221E+03  0.00000000000E+00 0. -1.
         21   -1    0    0  501  503 -0.00000000000E+00 -0.00000000000E+00 -0.31088524469E+03  0.31088524469E+03  0.00000000000E+00 0.  1.
         24    1    1    2    0    0 -0.35192490196E+02  0.80580985603E+02  0.46282320630E+02  0.12783221724E+03  0.80419002446E+02 0. -1.
          1    1    1    2  501    0  0.60599528607E+02 -0.46203441012E+02 -0.25066436642E+03  0.26199176594E+03  0.00000000000E+00 0. -1.
         -2    1    1    2    0  502 -0.25407038410E+02 -0.34377544591E+02  0.19364313311E+02  0.46928773720E+02  0.00000000000E+00 0.  1.
<mgrwt>
<rscale>  2 0.11905552E+03</rscale>
<asrwt>0</asrwt>
<pdfrwt beam="1">  1       21 0.19364233E-01 0.11905552E+03</pdfrwt>
<pdfrwt beam="2">  1       21 0.47828499E-01 0.11905552E+03</pdfrwt>
<totfact> 0.10539076E+05</totfact>
</mgrwt>
</event>
<event>
 5    1  0.1854763E+000  0.1055678E+03  0.7546771E-02  0.1269005E+00
         21   -1    0    0  503  502  0.00000000000E+00  0.00000000000E+00  0.98993487026E+03  0.98993487026E+03  0.00000000000E+00 0.  1.
         21   -1    0    0  501  503 -0.00000000000E+00 -0.00000000000E+00 -0.25312111760E+02  0.25312111760E+02  0.00000000000E+00 0. -1.
         24    1    1    2    0    0 -0.28991306027E+02  0.40239917551E+02  0.15365039655E+03  0.18037573868E+03  0.80419002446E+02 0. -1.
          1    1    1    2  501    0  0.48657118070E+02 -0.67395445342E+02  0.13826226693E+03  0.16132611583E+03  0.00000000000E+00 0. -1.
         -2    1    1    2    0  502 -0.19665812043E+02  0.27155527792E+02  0.67271009502E+03  0.67354512751E+03  0.00000000000E+00 0.  1.
<mgrwt>
<rscale>  2 0.10556779E+03</rscale>
<asrwt>0</asrwt>
<pdfrwt beam="1">  1       21 0.15229764E+00 0.10556779E+03</pdfrwt>
<pdfrwt beam="2">  1       21 0.38941718E-02 0.10556779E+03</pdfrwt>
<totfact> 0.12292434E+05</totfact>
</mgrwt>
</event>
<event>
 5    1  0.1854763E+000  0.7055283E+02  0.7546771E-02  0.1358223E+00
         21   -1    0    0  503  502  0.00000000000E+00  0.00000000000E+00  0.29372398304E+03  0.29372398304E+03  0.00000000000E+00 0. -1.
         21   -1    0    0  501  503 -0.00000000000E+00 -0.00000000000E+00 -0.18433288656E+02  0.18433288656E+02  0.00000000000E+00 0. -1.
         24    1    1    2    0    0 -0.31197882024E+02  0.35337898137E+02  0.18095271345E+03  0.20355140714E+03  0.80419002446E+02 0. -1.
          1    1    1    2  501    0  0.20785431715E+02 -0.17217492043E+02  0.27315915610E+02  0.38400982402E+02  0.00000000000E+00 0. -1.
         -2    1    1    2    0  502  0.10412450309E+02 -0.18120406094E+02  0.67022065323E+02  0.70204882157E+02  0.00000000000E+00 0.  1.
<mgrwt>
<rscale>  2 0.70552832E+02</rscale>
<asrwt>0</asrwt>
<pdfrwt beam="1">  1       21 0.45188302E-01 0.70552832E+02</pdfrwt>
<pdfrwt beam="2">  1       21 0.28358908E-02 0.70552832E+02</pdfrwt>
<totfact> 0.31452177E+06</totfact>
</mgrwt>
</event>
<event>
 5    1  0.1854763E+000  0.1146389E+03  0.7546771E-02  0.1252213E+00
         21   -1    0    0  503  502  0.00000000000E+00  0.00000000000E+00  0.12292579653E+04  0.12292579653E+04  0.00000000000E+00 0.  1.
         21   -1    0    0  501  503 -0.00000000000E+00 -0.00000000000E+00 -0.15574729447E+02  0.15574729447E+02  0.00000000000E+00 0. -1.
         24    1    1    2    0    0  0.38323559577E+02 -0.39413583455E+02  0.22301163245E+03  0.24335885014E+03  0.80419002446E+02 0.  1.
          1    1    1    2  501    0  0.12483060850E+02 -0.37590930527E+02  0.13075734337E+03  0.13662498934E+03  0.00000000000E+00 0. -1.
         -2    1    1    2    0  502 -0.50806620427E+02  0.77004513981E+02  0.85991425999E+03  0.86484885523E+03  0.00000000000E+00 0.  1.
<mgrwt>
<rscale>  2 0.11463889E+03</rscale>
<asrwt>0</asrwt>
<pdfrwt beam="1">  1       21 0.18911653E+00 0.11463889E+03</pdfrwt>
<pdfrwt beam="2">  1       21 0.23961132E-02 0.11463889E+03</pdfrwt>
<totfact> 0.15115553E+05</totfact>
</mgrwt>
</event>
<event>
 5    1  0.1854763E+000  0.8263607E+02  0.7546771E-02  0.1321733E+00
         21   -1    0    0  503  502  0.00000000000E+00  0.00000000000E+00  0.84880497166E+02  0.84880497166E+02  0.00000000000E+00 0.  1.
         21   -1    0    0  501  503 -0.00000000000E+00 -0.00000000000E+00 -0.14683572914E+03  0.14683572914E+03  0.00000000000E+00 0. -1.
         24    1    1    2    0    0  0.62309496728E+01 -0.35307650238E+02 -0.41398642667E+02  0.97296035213E+02  0.80419002446E+02 0.  1.
          1    1    1    2  501    0  0.28724590332E+02  0.17677082111E+01 -0.63478077302E+02  0.69697153313E+02  0.00000000000E+00 0. -1.
         -2    1    1    2    0  502 -0.34955540004E+02  0.33539942027E+02  0.42921487993E+02  0.64723037781E+02  0.00000000000E+00 0.  1.
<mgrwt>
<rscale>  2 0.82636073E+02</rscale>
<asrwt>0</asrwt>
<pdfrwt beam="1">  1       21 0.13058538E-01 0.82636073E+02</pdfrwt>
<pdfrwt beam="2">  1       21 0.22590112E-01 0.82636073E+02</pdfrwt>
<totfact> 0.92204719E+05</totfact>
</mgrwt>
</event>
<event>
 5    1  0.1854763E+000  0.8284608E+02  0.7546771E-02  0.1321163E+00
         21   -1    0    0  501  502  0.00000000000E+00  0.00000000000E+00  0.76998306506E+02  0.76998306506E+02  0.00000000000E+00 0.  1.
         21   -1    0    0  502  503 -0.00000000000E+00 -0.00000000000E+00 -0.13686938787E+03  0.13686938787E+03  0.00000000000E+00 0. -1.
         24    1    1    2    0    0 -0.16141047459E+02  0.17621369627E+02  0.21279379905E+02  0.86550991006E+02  0.80419002446E+02 0.  1.
          1    1    1    2  501    0  0.47238584341E+02 -0.18386887040E+02 -0.12892361883E+02  0.52304631348E+02  0.00000000000E+00 0. -1.
         -2    1    1    2    0  503 -0.31097536882E+02  0.76551741275E+00 -0.68258099385E+02  0.75012072019E+02  0.00000000000E+00 0.  1.
<mgrwt>
<rscale>  2 0.82846075E+02</rscale>
<asrwt>0</asrwt>
<pdfrwt beam="1">  1       21 0.11845893E-01 0.82846075E+02</pdfrwt>
<pdfrwt beam="2">  1       21 0.21056829E-01 0.82846075E+02</pdfrwt>
<totfact> 0.12452593E+06</totfact>
</mgrwt>
</event>
<event>
 5    1  0.1854763E+000  0.1162412E+03  0.7546771E-02  0.1249430E+00
         21   -1    0    0  503  502  0.00000000000E+00  0.00000000000E+00  0.21210315694E+03  0.21210315694E+03  0.00000000000E+00 0.  1.
         21   -1    0    0  501  503 -0.00000000000E+00 -0.00000000000E+00 -0.71532340404E+02  0.71532340404E+02  0.00000000000E+00 0.  1.
         24    1    1    2    0    0 -0.86082556040E+02  0.53291737199E+02  0.79878389084E+02  0.15198022472E+03  0.80419002446E+02 0.  1.
          1    1    1    2  501    0  0.42503482842E+02 -0.37966592177E+02  0.20832929795E+01  0.57029363357E+02  0.00000000000E+00 0. -1.
         -2    1    1    2    0  502  0.43579073198E+02 -0.15325145022E+02  0.58609134470E+02  0.74625909268E+02  0.00000000000E+00 0.  1.
<mgrwt>
<rscale>  2 0.11624120E+03</rscale>
<asrwt>0</asrwt>
<pdfrwt beam="1">  1       21 0.32631255E-01 0.11624120E+03</pdfrwt>
<pdfrwt beam="2">  1       21 0.11004976E-01 0.11624120E+03</pdfrwt>
<totfact> 0.62282822E+05</totfact>
</mgrwt>
</event>
<event>
 5    1  0.1854763E+000  0.8618701E+02  0.7546771E-02  0.1312357E+00
         21   -1    0    0  501  502  0.00000000000E+00  0.00000000000E+00  0.14969235418E+02  0.14969235418E+02  0.00000000000E+00 0.  1.
         21   -1    0    0  502  503 -0.00000000000E+00 -0.00000000000E+00 -0.65487121028E+03  0.65487121028E+03  0.00000000000E+00 0.  1.
         24    1    1    2    0    0 -0.46657138397E+01  0.59639525415E+02 -0.42233673203E+03  0.43406701447E+03  0.80419002446E+02 0.  1.
          1    1    1    2  501    0  0.20452706401E+02 -0.16730327371E+02 -0.20416242437E+02  0.33392214786E+02  0.00000000000E+00 0. -1.
         -2    1    1    2    0  503 -0.15786992561E+02 -0.42909198044E+02 -0.19714900039E+03  0.20238121644E+03  0.00000000000E+00 0.  1.
<mgrwt>
<rscale>  2 0.86187014E+02</rscale>
<asrwt>0</asrwt>
<pdfrwt beam="1">  1       21 0.23029590E-02 0.86187014E+02</pdfrwt>
<pdfrwt beam="2">  1       21 0.10074943E+00 0.86187014E+02</pdfrwt>
<totfact> 0.79564750E+05</totfact>
</mgrwt>
</event>
<event>
 5    1  0.1854763E+000  0.1693737E+03  0.7546771E-02  0.1178503E+00
         21   -1    0    0  501  502  0.00000000000E+00  0.00000000000E+00  0.28148381436E+02  0.28148381436E+02  0.00000000000E+00 0. -1.
         21   -1    0    0  502  503 -0.00000000000E+00 -0.00000000000E+00 -0.26108132031E+04  0.26108132031E+04  0.00000000000E+00 0.  1.
         24    1    1    2    0    0 -0.95775196079E+02  0.11898564554E+03 -0.21297155717E+04  0.21366998162E+04  0.80419002446E+02 0.  1.
          1    1    1    2  501    0  0.97940019247E+02 -0.78321087045E+02 -0.14531938699E+03  0.19194833753E+03  0.00000000000E+00 0. -1.
         -2    1    1    2    0  503 -0.21648231679E+01 -0.40664558493E+02 -0.30762986295E+03  0.31031343083E+03  0.00000000000E+00 0.  1.
<mgrwt>
<rscale>  2 0.16937366E+03</rscale>
<asrwt>0</asrwt>
<pdfrwt beam="1">  1       21 0.43305189E-02 0.16937366E+03</pdfrwt>
<pdfrwt beam="2">  1       21 0.40166369E+00 0.16937366E+03</pdfrwt>
<totfact> 0.30223036E+03</totfact>
</mgrwt>
</event>
<event>
 5    1  0.1854763E+000  0.8356277E+02  0.7546771E-02  0.1319234E+00
         21   -1    0    0  503  502  0.00000000000E+00  0.00000000000E+00  0.20296333768E+03  0.20296333768E+03  0.00000000000E+00 0.  1.
         21   -1    0    0  501  503 -0.00000000000E+00 -0.00000000000E+00 -0.19939745470E+03  0.19939745470E+03  0.00000000000E+00 0.  1.
         24    1    1    2    0    0 -0.21284274245E+02  0.23060982691E+02 -0.13415368112E+03  0.15952822749E+03  0.80419002446E+02 0.  1.
          1    1    1    2  501    0 -0.26051130895E+02  0.38747438548E+01 -0.45015393018E+02  0.52154200880E+02  0.00000000000E+00 0. -1.
         -2    1    1    2    0  502  0.47335405141E+02 -0.26935726546E+02  0.18273495713E+03  0.19067836401E+03  0.00000000000E+00 0.  1.
<mgrwt>
<rscale>  2 0.83562767E+02</rscale>
<asrwt>0</asrwt>
<pdfrwt beam="1">  1       21 0.31225129E-01 0.83562767E+02</pdfrwt>
<pdfrwt beam="2">  1       21 0.30676531E-01 0.83562767E+02</pdfrwt>
<totfact> 0.10518150E+05</totfact>
</mgrwt>
</event>
<event>
 5    1  0.1854763E+000  0.8283849E+02  0.7546771E-02  0.1321184E+00
         21   -1    0    0  501  502  0.00000000000E+00  0.00000000000E+00  0.14550753548E+04  0.14550753548E+04  0.00000000000E+00 0. -1.
         21   -1    0    0  502  503 -0.00000000000E+00 -0.00000000000E+00 -0.21376779150E+02  0.21376779150E+02  0.00000000000E+00 0.  1.
         24    1    1    2    0    0 -0.22422620702E+02  0.98915305498E+01  0.60198147525E+03  0.60782360006E+03  0.80419002446E+02 0.  1.
          1    1    1    2  501    0 -0.28982148879E+02  0.12466934829E+01  0.81190533322E+03  0.81242340520E+03  0.00000000000E+00 0. -1.
         -2    1    1    2    0  503  0.51404769581E+02 -0.11138224033E+02  0.19811767150E+02  0.56205128662E+02  0.00000000000E+00 0.  1.
<mgrwt>
<rscale>  2 0.82838489E+02</rscale>
<asrwt>0</asrwt>
<pdfrwt beam="1">  1       21 0.22385767E+00 0.82838489E+02</pdfrwt>
<pdfrwt beam="2">  1       21 0.32887364E-02 0.82838489E+02</pdfrwt>
<totfact> 0.57193014E+04</totfact>
</mgrwt>
</event>
<event>
 5    1  0.1854763E+000  0.9796295E+02  0.7546771E-02  0.1284639E+00
         21   -1    0    0  501  502  0.00000000000E+00  0.00000000000E+00  0.60595004691E+03  0.60595004691E+03  0.00000000000E+00 0. -1.
         21   -1    0    0  502  503 -0.00000000000E+00 -0.00000000000E+00 -0.18436940980E+02  0.18436940980E+02  0.00000000000E+00 0.  1.
         24    1    1    2    0    0 -0.42532337435E+02  0.92424654087E+01  0.31560178993E+03  0.32858199686E+03  0.80419002446E+02 0. -1.
          1    1    1    2  501    0  0.65671166304E+02 -0.31091726355E+02  0.23991675900E+03  0.25067797825E+03  0.00000000000E+00 0. -1.
         -2    1    1    2    0  503 -0.23138828868E+02  0.21849260946E+02  0.31994557002E+02  0.45127012786E+02  0.00000000000E+00 0.  1.
<mgrwt>
<rscale>  2 0.97962955E+02</rscale>
<asrwt>0</asrwt>
<pdfrwt beam="1">  1       21 0.93223069E-01 0.97962955E+02</pdfrwt>
<pdfrwt beam="2">  1       21 0.28364529E-02 0.97962955E+02</pdfrwt>
<totfact> 0.67914826E+05</totfact>
</mgrwt>
</event>
<event>
 5    1  0.1854763E+000  0.2801460E+03  0.7546771E-02  0.1095609E+00
         21   -1    0    0  503  502  0.00000000000E+00  0.00000000000E+00  0.10976114586E+03  0.10976114586E+03  0.00000000000E+00 0.  1.
         21   -1    0    0  501  503 -0.00000000000E+00 -0.00000000000E+00 -0.13838964036E+04  0.13838964036E+04  0.00000000000E+00 0. -1.
         24    1    1    2    0    0  0.91183811028E+02 -0.25403900600E+03 -0.68446027868E+03  0.74013741495E+03  0.80419002446E+02 0. -1.
          1    1    1    2  501    0 -0.17022970307E+02  0.14961006999E+03 -0.60597642673E+03  0.62440402330E+03  0.00000000000E+00 0. -1.
         -2    1    1    2    0  502 -0.74160840721E+02  0.10442893601E+03  0.16301447698E+02  0.12911611119E+03  0.00000000000E+00 0.  1.
<mgrwt>
<rscale>  2 0.28014599E+03</rscale>
<asrwt>0</asrwt>
<pdfrwt beam="1">  1       21 0.16886330E-01 0.28014599E+03</pdfrwt>
<pdfrwt beam="2">  1       21 0.21290714E+00 0.28014599E+03</pdfrwt>
<totfact> 0.32654832E+03</totfact>
</mgrwt>
</event>
<event>
 5    1  0.1854763E+000  0.6480978E+02  0.7546771E-02  0.1378688E+00
         21   -1    0    0  501  502  0.00000000000E+00  0.00000000000E+00  0.67842997078E+03  0.67842997078E+03  0.00000000000E+00 0.  1.
         21   -1    0    0  502  503 -0.00000000000E+00 -0.00000000000E+00 -0.78704200972E+01  0.78704200972E+01  0.00000000000E+00 0. -1.
         24    1    1    2    0    0  0.14779968935E+02 -0.18332955178E+00  0.51074566400E+03  0.51724929226E+03  0.80419002446E+02 0.  1.
          1    1    1    2  501    0 -0.16617377745E+02 -0.20893886521E+02  0.12860562008E+03  0.13134723923E+03  0.00000000000E+00 0. -1.
         -2    1    1    2    0  503  0.18374088102E+01  0.21077216073E+02  0.31208266599E+02  0.37703859386E+02  0.00000000000E+00 0.  1.
<mgrwt>
<rscale>  2 0.64809776E+02</rscale>
<asrwt>0</asrwt>
<pdfrwt beam="1">  1       21 0.10437380E+00 0.64809776E+02</pdfrwt>
<pdfrwt beam="2">  1       21 0.12108344E-02 0.64809776E+02</pdfrwt>
<totfact> 0.20158036E+06</totfact>
</mgrwt>
</event>
<event>
 5    1  0.1854763E+000  0.9764741E+02  0.7546771E-02  0.1285322E+00
         21   -1    0    0  501  502  0.00000000000E+00  0.00000000000E+00  0.51915291701E+02  0.51915291701E+02  0.00000000000E+00 0. -1.
         21   -1    0    0  502  503 -0.00000000000E+00 -0.00000000000E+00 -0.21466244927E+03  0.21466244927E+03  0.00000000000E+00 0.  1.
         24    1    1    2    0    0 -0.40481505313E+02  0.29310260544E+02 -0.87862066875E+02  0.12916966515E+03  0.80419002446E+02 0. -1.
          1    1    1    2  501    0 -0.62685141025E+01 -0.49350154642E+02 -0.36539042321E+01  0.49880688130E+02  0.00000000000E+00 0. -1.
         -2    1    1    2    0  503  0.46750019416E+02  0.20039894098E+02 -0.71231186463E+02  0.87527387689E+02  0.00000000000E+00 0.  1.
<mgrwt>
<rscale>  2 0.97647413E+02</rscale>
<asrwt>0</asrwt>
<pdfrwt beam="1">  1       21 0.79869681E-02 0.97647413E+02</pdfrwt>
<pdfrwt beam="2">  1       21 0.33024992E-01 0.97647413E+02</pdfrwt>
<totfact> 0.10591826E+06</totfact>
</mgrwt>
</event>
<event>
 5    1  0.1854763E+000  0.6852590E+02  0.7546771E-02  0.1365179E+00
         21   -1    0    0  503  502  0.00000000000E+00  0.00000000000E+00  0.36221060861E+03  0.36221060861E+03  0.00000000000E+00 0. -1.
         21   -1    0    0  501  503 -0.00000000000E+00 -0.00000000000E+00 -0.20688893912E+02  0.20688893912E+02  0.00000000000E+00 0.  1.
         24    1    1    2    0    0  0.33412181709E+02  0.25443053440E+01  0.85754634118E+02  0.12224532958E+03  0.80419002446E+02 0.  1.
          1    1    1    2  501    0 -0.19895900762E+02 -0.19761374108E+02  0.12918378007E+03  0.13219231373E+03  0.00000000000E+00 0. -1.
         -2    1    1    2    0  502 -0.13516280948E+02  0.17217068764E+02  0.12658330050E+03  0.12846185922E+03  0.00000000000E+00 0.  1.
<mgrwt>
<rscale>  2 0.68525904E+02</rscale>
<asrwt>0</asrwt>
<pdfrwt beam="1">  1       21 0.55724704E-01 0.68525904E+02</pdfrwt>
<pdfrwt beam="2">  1       21 0.31829070E-02 0.68525904E+02</pdfrwt>
<totfact> 0.17045086E+06</totfact>
</mgrwt>
</event>
<event>
 5    1  0.1854763E+000  0.7742705E+02  0.7546771E-02  0.1336516E+00
         21   -1    0    0  503  502  0.00000000000E+00  0.00000000000E+00  0.45531434260E+03  0.45531434260E+03  0.00000000000E+00 0.  1.
         21   -1    0    0  501  503 -0.00000000000E+00 -0.00000000000E+00 -0.16002762507E+02  0.16002762507E+02  0.00000000000E+00 0. -1.
         24    1    1    2    0    0 -0.21317346596E+02 -0.33548321638E+01  0.19651235686E+03  0.21342447498E+03  0.80419002446E+02 0.  1.
          1    1    1    2  501    0 -0.15786120949E+02 -0.21688945967E+02  0.29193887814E+02  0.39647132020E+02  0.00000000000E+00 0. -1.
         -2    1    1    2    0  502  0.37103467544E+02  0.25043778131E+02  0.21360533541E+03  0.21824549811E+03  0.00000000000E+00 0.  1.
<mgrwt>
<rscale>  2 0.77427049E+02</rscale>
<asrwt>0</asrwt>
<pdfrwt beam="1">  1       21 0.70048351E-01 0.77427049E+02</pdfrwt>
<pdfrwt beam="2">  1       21 0.24619638E-02 0.77427049E+02</pdfrwt>
<totfact> 0.16013932E+06</totfact>
</mgrwt>
</event>
<event>
 5    1  0.1854763E+000  0.9845937E+02  0.7546771E-02  0.1283569E+00
         21   -1    0    0  501  502  0.00000000000E+00  0.00000000000E+00  0.86155192260E+03  0.86155192260E+03  0.00000000000E+00 0. -1.
         21   -1    0    0  502  503 -0.00000000000E+00 -0.00000000000E+00 -0.46001365999E+02  0.46001365999E+02  0.00000000000E+00 0. -1.
         24    1    1    2    0    0 -0.29131664637E+02  0.47782472757E+02  0.50259075616E+02  0.11011361961E+03  0.80419002446E+02 0. -1.
          1    1    1    2  501    0 -0.24990299908E+02  0.24409914473E+01  0.69513780679E+03  0.69559114713E+03  0.00000000000E+00 0. -1.
         -2    1    1    2    0  503  0.54121964545E+02 -0.50223464205E+02  0.70153674193E+02  0.10184852186E+03  0.00000000000E+00 0.  1.
<mgrwt>
<rscale>  2 0.98459367E+02</rscale>
<asrwt>0</asrwt>
<pdfrwt beam="1">  1       21 0.13254644E+00 0.98459367E+02</pdfrwt>
<pdfrwt beam="2">  1       21 0.70771339E-02 0.98459367E+02</pdfrwt>
<totfact> 0.64519439E+04</totfact>
</mgrwt>
</event>
<event>
 5    1  0.1854763E+000  0.7343040E+02  0.7546771E-02  0.1348802E+00
         21   -1    0    0  503  502  0.00000000000E+00  0.00000000000E+00  0.49847076829E+02  0.49847076829E+02  0.00000000000E+00 0. -1.
         21   -1    0    0  501  503 -0.00000000000E+00 -0.00000000000E+00 -0.14635450735E+03  0.14635450735E+03  0.00000000000E+00 0. -1.
         24    1    1    2    0    0 -0.16258856732E+02  0.37064591311E+02 -0.17634211733E+02  0.91740480319E+02  0.80419002446E+02 0. -1.
          1    1    1    2  501    0  0.27843729085E+02 -0.14329744734E+02 -0.71253972984E+02  0.77831507113E+02  0.00000000000E+00 0. -1.
         -2    1    1    2    0  502 -0.11584872353E+02 -0.22734846577E+02 -0.76192458049E+01  0.26629596748E+02  0.00000000000E+00 0.  1.
<mgrwt>
<rscale>  2 0.73430404E+02</rscale>
<asrwt>0</asrwt>
<pdfrwt beam="1">  1       21 0.76687810E-02 0.73430404E+02</pdfrwt>
<pdfrwt beam="2">  1       21 0.22516078E-01 0.73430404E+02</pdfrwt>
<totfact> 0.23153502E+06</totfact>
</mgrwt>
</event>
<event>
 5    1  0.1854763E+000  0.1194096E+03  0.7546771E-02  0.1244074E+00
         21   -1    0    0  501  502  0.00000000000E+00  0.00000000000E+00  0.40999316750E+02  0.40999316750E+02  0.00000000000E+00 0. -1.
         21   -1    0    0  502  503 -0.00000000000E+00 -0.00000000000E+00 -0.59838197251E+03  0.59838197251E+03  0.00000000000E+00 0. -1.
         24    1    1    2    0    0  0.66481807833E+02 -0.16559954690E+02 -0.42286307853E+03  0.43586059928E+03  0.80419002446E+02 0. -1.
          1    1    1    2  501    0 -0.25789956243E+02 -0.49367458810E+02 -0.95886657263E+01  0.56517345503E+02  0.00000000000E+00 0. -1.
         -2    1    1    2    0  503 -0.40691851590E+02  0.65927413499E+02 -0.12493091151E+03  0.14700334447E+03  0.00000000000E+00 0.  1.
<mgrwt>
<rscale>  2 0.11940958E+03</rscale>
<asrwt>0</asrwt>
<pdfrwt beam="1">  1       21 0.63075871E-02 0.11940958E+03</pdfrwt>
<pdfrwt beam="2">  1       21 0.92058766E-01 0.11940958E+03</pdfrwt>
<totfact> 0.18476731E+05</totfact>
</mgrwt>
</event>
<event>
 5    1  0.1854763E+000  0.7716046E+02  0.7546771E-02  0.1337308E+00
         21   -1    0    0  501  502  0.00000000000E+00  0.00000000000E+00  0.60474178501E+03  0.60474178501E+03  0.00000000000E+00 0.  1.
         21   -1    0    0  502  503 -0.00000000000E+00 -0.00000000000E+00 -0.20846477093E+02  0.20846477093E+02  0.00000000000E+00 0.  1.
         24    1    1    2    0    0 -0.15568492431E+01  0.19916214894E+02  0.31175677273E+03  0.32258112266E+03  0.80419002446E+02 0.  1.
          1    1    1    2  501    0 -0.98554505981E+01  0.24073019365E+02  0.25193289083E+03  0.25327222834E+03  0.00000000000E+00 0. -1.
         -2    1    1    2    0  503  0.11412299841E+02 -0.43989234259E+02  0.20205644349E+02  0.49734911098E+02  0.00000000000E+00 0.  1.
<mgrwt>
<rscale>  2 0.77160459E+02</rscale>
<asrwt>0</asrwt>
<pdfrwt beam="1">  1       21 0.93037184E-01 0.77160459E+02</pdfrwt>
<pdfrwt beam="2">  1       21 0.32071508E-02 0.77160459E+02</pdfrwt>
<totfact> 0.55916061E+05</totfact>
</mgrwt>
</event>
<event>
 5    1  0.1854763E+000  0.1092244E+03  0.7546771E-02  0.1262013E+00
         21   -1    0    0  501  502  0.00000000000E+00  0.00000000000E+00  0.65497812007E+02  0.65497812007E+02  0.00000000000E+00 0.  1.
         21   -1    0    0  502  503 -0.00000000000E+00 -0.00000000000E+00 -0.18996797073E+03  0.18996797073E+03  0.00000000000E+00 0. -1.
         24    1    1    2    0    0  0.52944355657E+02 -0.26808275169E+01 -0.79115369825E+02  0.12464649746E+03  0.80419002446E+02 0. -1.
          1    1    1    2  501    0  0.29311584961E+02 -0.21546964271E+02 -0.77979415959E+01  0.37205491199E+02  0.00000000000E+00 0. -1.
         -2    1    1    2    0  503 -0.82255940619E+02  0.24227791788E+02 -0.37556847298E+02  0.93613794074E+02  0.00000000000E+00 0.  1.
<mgrwt>
<rscale>  2 0.10922436E+03</rscale>
<asrwt>0</asrwt>
<pdfrwt beam="1">  1       21 0.10076587E-01 0.10922436E+03</pdfrwt>
<pdfrwt beam="2">  1       21 0.29225841E-01 0.10922436E+03</pdfrwt>
<totfact> 0.89856549E+05</totfact>
</mgrwt>
</event>
<event>
 5    1  0.1854763E+000  0.1321305E+03  0.7546771E-02  0.1224328E+00
         21   -1    0    0  501  502  0.00000000000E+00  0.00000000000E+00  0.18970934688E+03  0.18970934688E+03  0.00000000000E+00 0. -1.
         21   -1    0    0  502  503 -0.00000000000E+00 -0.00000000000E+00 -0.20548162465E+03  0.20548162465E+03  0.00000000000E+00 0.  1.
         24    1    1    2    0    0 -0.34487536514E+02 -0.74230367360E+02  0.34370446004E+02  0.11978347601E+03  0.80419002446E+02 0. -1.
          1    1    1    2  501    0 -0.16329976085E+02  0.93687065044E+02  0.86359099255E+02  0.12845944224E+03  0.00000000000E+00 0. -1.
         -2    1    1    2    0  503  0.50817512599E+02 -0.19456697684E+02 -0.13650182303E+03  0.14694805328E+03  0.00000000000E+00 0.  1.
<mgrwt>
<rscale>  2 0.13213049E+03</rscale>
<asrwt>0</asrwt>
<pdfrwt beam="1">  1       21 0.29186053E-01 0.13213049E+03</pdfrwt>
<pdfrwt beam="2">  1       21 0.31612558E-01 0.13213049E+03</pdfrwt>
<totfact> 0.11058169E+05</totfact>
</mgrwt>
</event>
<event>
 5    1  0.1854763E+000  0.8835712E+02  0.7546771E-02  0.1306880E+00
         21   -1    0    0  501  502  0.00000000000E+00  0.00000000000E+00  0.99643335581E+03  0.99643335581E+03  0.00000000000E+00 0.  1.
         21   -1    0    0  502  503 -0.00000000000E+00 -0.00000000000E+00 -0.93570592749E+01  0.93570592749E+01  0.00000000000E+00 0.  1.
         24    1    1    2    0    0  0.59369051915E+01 -0.61992884505E+02  0.48542438996E+03  0.49596614692E+03  0.80419002446E+02 0.  1.
          1    1    1    2  501    0  0.17051510016E+02  0.15099931423E+02  0.32012600612E+03  0.32093522978E+03  0.00000000000E+00 0. -1.
         -2    1    1    2    0  503 -0.22988415207E+02  0.46892953082E+02  0.18152590046E+03  0.18888903838E+03  0.00000000000E+00 0.  1.
<mgrwt>
<rscale>  2 0.88357122E+02</rscale>
<asrwt>0</asrwt>
<pdfrwt beam="1">  1       21 0.15329736E+00 0.88357122E+02</pdfrwt>
<pdfrwt beam="2">  1       21 0.14395484E-02 0.88357122E+02</pdfrwt>
<totfact> 0.60675310E+05</totfact>
</mgrwt>
</event>
<event>
 5    1  0.1854763E+000  0.7571008E+02  0.7546771E-02  0.1341686E+00
         21   -1    0    0  503  502  0.00000000000E+00  0.00000000000E+00  0.62512650511E+02  0.62512650511E+02  0.00000000000E+00 0.  1.
         21   -1    0    0  501  503 -0.00000000000E+00 -0.00000000000E+00 -0.36968196360E+03  0.36968196360E+03  0.00000000000E+00 0. -1.
         24    1    1    2    0    0 -0.33890754338E+02 -0.39716032086E+02  0.16667236191E+02  0.97318853009E+02  0.80419002446E+02 0.  1.
          1    1    1    2  501    0  0.22725964975E+02  0.12088670115E+02 -0.28381221064E+03  0.28497715055E+03  0.00000000000E+00 0. -1.
         -2    1    1    2    0  502  0.11164789363E+02  0.27627361972E+02 -0.40024338638E+02  0.49898610546E+02  0.00000000000E+00 0.  1.
<mgrwt>
<rscale>  2 0.75710076E+02</rscale>
<asrwt>0</asrwt>
<pdfrwt beam="1">  1       21 0.96173305E-02 0.75710076E+02</pdfrwt>
<pdfrwt beam="2">  1       21 0.56874150E-01 0.75710076E+02</pdfrwt>
<totfact> 0.25972467E+05</totfact>
</mgrwt>
</event>
<event>
 5    1  0.1854763E+000  0.1015603E+03  0.7546771E-02  0.1277049E+00
         21   -1    0    0  503  502  0.00000000000E+00  0.00000000000E+00  0.82482548301E+01  0.82482548301E+01  0.00000000000E+00 0.  1.
         21   -1    0    0  501  503 -0.00000000000E+00 -0.00000000000E+00 -0.32844481959E+04  0.32844481959E+04  0.00000000000E+00 0. -1.
         24    1    1    2    0    0  0.59528206407E+02  0.52719171914E+02 -0.55574746349E+03  0.56713788233E+03  0.80419002446E+02 0.  1.
          1    1    1    2  501    0 -0.32202740287E+02 -0.53776470010E+02 -0.26369000437E+04  0.26376449279E+04  0.00000000000E+00 0. -1.
         -2    1    1    2    0  502 -0.27325466119E+02  0.10572980957E+01 -0.83552433800E+02  0.87913640420E+02  0.00000000000E+00 0.  1.
<mgrwt>
<rscale>  2 0.10156026E+03</rscale>
<asrwt>0</asrwt>
<pdfrwt beam="1">  1       21 0.12689618E-02 0.10156026E+03</pdfrwt>
<pdfrwt beam="2">  1       21 0.50529993E+00 0.10156026E+03</pdfrwt>
<totfact> 0.53200420E+03</totfact>
</mgrwt>
</event>
<event>
 5    1  0.1854763E+000  0.1746204E+03  0.7546771E-02  0.1173113E+00
         21   -1    0    0  501  502  0.00000000000E+00  0.00000000000E+00  0.13434495762E+04  0.13434495762E+04  0.00000000000E+00 0. -1.
         21   -1    0    0  502  503 -0.00000000000E+00 -0.00000000000E+00 -0.44168067174E+02  0.44168067174E+02  0.00000000000E+00 0.  1.
         24    1    1    2    0    0 -0.16141208013E+03  0.20312508632E+02  0.24574806348E+03  0.30549269103E+03  0.80419002446E+02 0.  1.
          1    1    1    2  501    0  0.23635142126E+02  0.11617417089E+02  0.71173412151E+03  0.71222120443E+03  0.00000000000E+00 0. -1.
         -2    1    1    2    0  503  0.13777693800E+03 -0.31929925721E+02  0.34179932405E+03  0.36990374792E+03  0.00000000000E+00 0.  1.
<mgrwt>
<rscale>  2 0.17462040E+03</rscale>
<asrwt>0</asrwt>
<pdfrwt beam="1">  1       21 0.20668452E+00 0.17462040E+03</pdfrwt>
<pdfrwt beam="2">  1       21 0.67950883E-02 0.17462040E+03</pdfrwt>
<totfact> 0.19665489E+04</totfact>
</mgrwt>
</event>
<event>
 5    1  0.1854763E+000  0.6809407E+02  0.7546771E-02  0.1366697E+00
         21   -1    0    0  501  502  0.00000000000E+00  0.00000000000E+00  0.23392756222E+03  0.23392756222E+03  0.00000000000E+00 0. -1.
         21   -1    0    0  502  503 -0.00000000000E+00 -0.00000000000E+00 -0.39301595708E+02  0.39301595708E+02  0.00000000000E+00 0.  1.
         24    1    1    2    0    0 -0.36602595954E+02  0.16075546252E+02  0.10325860967E+03  0.13684929537E+03  0.80419002446E+02 0. -1.
          1    1    1    2  501    0  0.22355205799E+02  0.30172343210E+01  0.10603222365E+03  0.10840521843E+03  0.00000000000E+00 0. -1.
         -2    1    1    2    0  503  0.14247390155E+02 -0.19092780573E+02 -0.14664866804E+02  0.27974644137E+02  0.00000000000E+00 0.  1.
<mgrwt>
<rscale>  2 0.68094071E+02</rscale>
<asrwt>0</asrwt>
<pdfrwt beam="1">  1       21 0.35988855E-01 0.68094071E+02</pdfrwt>
<pdfrwt beam="2">  1       21 0.60463995E-02 0.68094071E+02</pdfrwt>
<totfact> 0.14210969E+06</totfact>
</mgrwt>
</event>
<event>
 5    1  0.1854763E+000  0.6451752E+02  0.7546771E-02  0.1379796E+00
         21   -1    0    0  503  502  0.00000000000E+00  0.00000000000E+00  0.14139273592E+04  0.14139273592E+04  0.00000000000E+00 0.  1.
         21   -1    0    0  501  503 -0.00000000000E+00 -0.00000000000E+00 -0.37330963178E+01  0.37330963178E+01  0.00000000000E+00 0. -1.
         24    1    1    2    0    0 -0.21080679968E+02  0.20096249885E+02  0.11913041042E+04  0.11943705200E+04  0.80419002446E+02 0.  0.
          1    1    1    2  501    0  0.22881748651E+02  0.44341060001E+00  0.96617688445E+02  0.99291232014E+02  0.00000000000E+00 0. -1.
         -2    1    1    2    0  502 -0.18010686835E+01 -0.20539660485E+02  0.12227247028E+03  0.12399870358E+03  0.00000000000E+00 0.  1.
<mgrwt>
<rscale>  2 0.64517521E+02</rscale>
<asrwt>0</asrwt>
<pdfrwt beam="1">  1       21 0.21752686E+00 0.64517521E+02</pdfrwt>
<pdfrwt beam="2">  1       21 0.57432363E-03 0.64517521E+02</pdfrwt>
<totfact> 0.98466626E+05</totfact>
</mgrwt>
</event>
<event>
 5    1  0.1854763E+000  0.8471165E+02  0.7546771E-02  0.1316188E+00
         21   -1    0    0  503  502  0.00000000000E+00  0.00000000000E+00  0.90291094740E+02  0.90291094740E+02  0.00000000000E+00 0.  1.
         21   -1    0    0  501  503 -0.00000000000E+00 -0.00000000000E+00 -0.35566353544E+03  0.35566353544E+03  0.00000000000E+00 0. -1.
         24    1    1    2    0    0  0.38076176922E+02  0.51827419229E+02 -0.80877551996E+02  0.13093613330E+03  0.80419002446E+02 0.  1.
          1    1    1    2  501    0 -0.50025167288E+01 -0.19765100113E+02 -0.24114431766E+03  0.24200468238E+03  0.00000000000E+00 0. -1.
         -2    1    1    2    0  502 -0.33073660193E+02 -0.32062319116E+02  0.56649428956E+02  0.73013814492E+02  0.00000000000E+00 0.  1.
<mgrwt>
<rscale>  2 0.84711651E+02</rscale>
<asrwt>0</asrwt>
<pdfrwt beam="1">  1       21 0.13890937E-01 0.84711651E+02</pdfrwt>
<pdfrwt beam="2">  1       21 0.54717468E-01 0.84711651E+02</pdfrwt>
<totfact> 0.14769464E+05</totfact>
</mgrwt>
</event>
<event>
 5    1  0.1854763E+000  0.7877303E+02  0.7546771E-02  0.1332570E+00
         21   -1    0    0  503  502  0.00000000000E+00  0.00000000000E+00  0.21148601255E+03  0.21148601255E+03  0.00000000000E+00 0. -1.
         21   -1    0    0  501  503 -0.00000000000E+00 -0.00000000000E+00 -0.73716646040E+02  0.73716646040E+02  0.00000000000E+00 0. -1.
         24    1    1    2    0    0 -0.46772480277E+02 -0.22288872172E+02  0.53984203392E+02  0.10984520428E+03  0.80419002446E+02 0. -1.
          1    1    1    2  501    0  0.28272392485E+02  0.30546506662E+02 -0.35291160843E+02  0.54569985155E+02  0.00000000000E+00 0. -1.
         -2    1    1    2    0  502  0.18500087792E+02 -0.82576344903E+01  0.11907632396E+03  0.12078746915E+03  0.00000000000E+00 0.  1.
<mgrwt>
<rscale>  2 0.78773033E+02</rscale>
<asrwt>0</asrwt>
<pdfrwt beam="1">  1       21 0.32536309E-01 0.78773033E+02</pdfrwt>
<pdfrwt beam="2">  1       21 0.11341023E-01 0.78773033E+02</pdfrwt>
<totfact> 0.59357108E+05</totfact>
</mgrwt>
</event>
<event>
 5    1  0.1854763E+000  0.7620546E+02  0.7546771E-02  0.1340178E+00
         21   -1    0    0  501  502  0.00000000000E+00  0.00000000000E+00  0.10319789677E+03  0.10319789677E+03  0.00000000000E+00 0.  1.
         21   -1    0    0  502  503 -0.00000000000E+00 -0.00000000000E+00 -0.82606027875E+02  0.82606027875E+02  0.00000000000E+00 0.  1.
         24    1    1    2    0    0 -0.38600953563E+02  0.37771873582E+02 -0.37734496245E+02  0.10396083980E+03  0.80419002446E+02 0.  1.
          1    1    1    2  501    0  0.20511867951E+02 -0.28774002472E+02  0.46601288330E+02  0.58483844086E+02  0.00000000000E+00 0. -1.
         -2    1    1    2    0  503  0.18089085613E+02 -0.89978711106E+01  0.11725076810E+02  0.23359240763E+02  0.00000000000E+00 0.  1.
<mgrwt>
<rscale>  2 0.76205456E+02</rscale>
<asrwt>0</asrwt>
<pdfrwt beam="1">  1       21 0.15876599E-01 0.76205456E+02</pdfrwt>
<pdfrwt beam="2">  1       21 0.12708620E-01 0.76205456E+02</pdfrwt>
<totfact> 0.18298170E+06</totfact>
</mgrwt>
</event>
<event>
 5    1  0.1854763E+000  0.7298792E+02  0.7546771E-02  0.1350217E+00
         21   -1    0    0  503  502  0.00000000000E+00  0.00000000000E+00  0.98703235326E+03  0.98703235326E+03  0.00000000000E+00 0.  1.
         21   -1    0    0  501  503 -0.00000000000E+00 -0.00000000000E+00 -0.67236837036E+01  0.67236837036E+01  0.00000000000E+00 0. -1.
         24    1    1    2    0    0 -0.20419871210E+02  0.19859041020E+02  0.47770525636E+03  0.48526372269E+03  0.80419002446E+02 0. -1.
          1    1    1    2  501    0  0.23988163909E+02  0.13220388142E+02  0.79563844208E+02  0.84146396094E+02  0.00000000000E+00 0. -1.
         -2    1    1    2    0  502 -0.35682926988E+01 -0.33079429162E+02  0.42303956900E+03  0.42434591819E+03  0.00000000000E+00 0.  1.
<mgrwt>
<rscale>  2 0.72987915E+02</rscale>
<asrwt>0</asrwt>
<pdfrwt beam="1">  1       21 0.15185102E+00 0.72987915E+02</pdfrwt>
<pdfrwt beam="2">  1       21 0.10344137E-02 0.72987915E+02</pdfrwt>
<totfact> 0.10456870E+06</totfact>
</mgrwt>
</event>
<event>
 5    1  0.1854763E+000  0.8809632E+02  0.7546771E-02  0.1307528E+00
         21   -1    0    0  501  502  0.00000000000E+00  0.00000000000E+00  0.14359117433E+02  0.14359117433E+02  0.00000000000E+00 0.  1.
         21   -1    0    0  502  503 -0.00000000000E+00 -0.00000000000E+00 -0.56562301106E+03  0.56562301106E+03  0.00000000000E+00 0. -1.
         24    1    1    2    0    0 -0.27022400119E+01  0.20527915503E+02 -0.19955660095E+03  0.21614520663E+03  0.80419002446E+02 0.  1.
          1    1    1    2  501    0  0.35449322618E+02  0.20270629735E+02 -0.15704650666E+03  0.16226878368E+03  0.00000000000E+00 0. -1.
         -2    1    1    2    0  503 -0.32747082606E+02 -0.40798545238E+02 -0.19466078602E+03  0.20156813818E+03  0.00000000000E+00 0.  1.
<mgrwt>
<rscale>  2 0.88096319E+02</rscale>
<asrwt>0</asrwt>
<pdfrwt beam="1">  1       21 0.22090947E-02 0.88096319E+02</pdfrwt>
<pdfrwt beam="2">  1       21 0.87018934E-01 0.88096319E+02</pdfrwt>
<totfact> 0.11876132E+06</totfact>
</mgrwt>
</event>
<event>
 5    1  0.1854763E+000  0.9044870E+02  0.7546771E-02  0.1301769E+00
         21   -1    0    0  503  502  0.00000000000E+00  0.00000000000E+00  0.95393189370E+03  0.95393189370E+03  0.00000000000E+00 0. -1.
         21   -1    0    0  501  503 -0.00000000000E+00 -0.00000000000E+00 -0.12533649644E+02  0.12533649644E+02  0.00000000000E+00 0.  1.
         24    1    1    2    0    0  0.33870390544E+02  0.90610661907E+01  0.69748071299E+03  0.70297643433E+03  0.80419002446E+02 0. -1.
          1    1    1    2  501    0  0.27443693696E+02  0.96036670897E+01  0.38123522932E+02  0.47945695802E+02  0.00000000000E+00 0. -1.
         -2    1    1    2    0  502 -0.61314084240E+02 -0.18664733280E+02  0.20579400813E+03  0.21554341321E+03  0.00000000000E+00 0.  1.
<mgrwt>
<rscale>  2 0.90448699E+02</rscale>
<asrwt>0</asrwt>
<pdfrwt beam="1">  1       21 0.14675870E+00 0.90448699E+02</pdfrwt>
<pdfrwt beam="2">  1       21 0.19282545E-02 0.90448699E+02</pdfrwt>
<totfact> 0.42589613E+05</totfact>
</mgrwt>
</event>
<event>
 5    1  0.1854763E+000  0.6693831E+02  0.7546771E-02  0.1370825E+00
         21   -1    0    0  503  502  0.00000000000E+00  0.00000000000E+00  0.97864432176E+02  0.97864432176E+02  0.00000000000E+00 0.  1.
         21   -1    0    0  501  503 -0.00000000000E+00 -0.00000000000E+00 -0.47793312586E+02  0.47793312586E+02  0.00000000000E+00 0.  1.
         24    1    1    2    0    0 -0.48652479496E+01  0.26569992218E+02  0.25925431278E+02  0.88707266136E+02  0.80419002446E+02 0.  0.
          1    1    1    2  501    0  0.21431041775E+02 -0.52895252011E+01  0.22042107240E+01  0.22183939536E+02  0.00000000000E+00 0. -1.
         -2    1    1    2    0  502 -0.16565793826E+02 -0.21280467017E+02  0.21941477588E+02  0.34766539090E+02  0.00000000000E+00 0.  1.
<mgrwt>
<rscale>  2 0.66938309E+02</rscale>
<asrwt>0</asrwt>
<pdfrwt beam="1">  1       21 0.15056066E-01 0.66938309E+02</pdfrwt>
<pdfrwt beam="2">  1       21 0.73528173E-02 0.66938309E+02</pdfrwt>
<totfact> 0.51059363E+06</totfact>
</mgrwt>
</event>
<event>
 5    1  0.1854763E+000  0.8113856E+02  0.7546771E-02  0.1325851E+00
         21   -1    0    0  501  502  0.00000000000E+00  0.00000000000E+00  0.41745472780E+03  0.41745472780E+03  0.00000000000E+00 0. -1.
         21   -1    0    0  502  503 -0.00000000000E+00 -0.00000000000E+00 -0.34590171892E+02  0.34590171892E+02  0.00000000000E+00 0.  1.
         24    1    1    2    0    0 -0.16408664344E+02  0.11483567190E+02  0.29493883200E+03  0.30636130166E+03  0.80419002446E+02 0.  0.
          1    1    1    2  501    0  0.99544191237E+01  0.32991611940E+02  0.94201164079E+02  0.10030651142E+03  0.00000000000E+00 0. -1.
         -2    1    1    2    0  503  0.64542452203E+01 -0.44475179130E+02 -0.62754401726E+01  0.45377086612E+02  0.00000000000E+00 0.  1.
<mgrwt>
<rscale>  2 0.81138560E+02</rscale>
<asrwt>0</asrwt>
<pdfrwt beam="1">  1       21 0.64223801E-01 0.81138560E+02</pdfrwt>
<pdfrwt beam="2">  1       21 0.53215652E-02 0.81138560E+02</pdfrwt>
<totfact> 0.54731692E+05</totfact>
</mgrwt>
</event>
<event>
 5    1  0.1854763E+000  0.7340921E+02  0.7546771E-02  0.1348869E+00
         21   -1    0    0  503  502  0.00000000000E+00  0.00000000000E+00  0.46894788469E+02  0.46894788469E+02  0.00000000000E+00 0. -1.
         21   -1    0    0  501  503 -0.00000000000E+00 -0.00000000000E+00 -0.40272217310E+03  0.40272217310E+03  0.00000000000E+00 0. -1.
         24    1    1    2    0    0 -0.14861172544E+02 -0.46497160247E+02 -0.41386518949E+02  0.10277597125E+03  0.80419002446E+02 0. -1.
          1    1    1    2  501    0 -0.14073059419E+01  0.28298809813E+02 -0.32045172791E+03  0.32170190093E+03  0.00000000000E+00 0. -1.
         -2    1    1    2    0  502  0.16268478485E+02  0.18198350433E+02  0.60108622225E+01  0.25139089391E+02  0.00000000000E+00 0.  1.
<mgrwt>
<rscale>  2 0.73409211E+02</rscale>
<asrwt>0</asrwt>
<pdfrwt beam="1">  1       21 0.72145828E-02 0.73409211E+02</pdfrwt>
<pdfrwt beam="2">  1       21 0.61957258E-01 0.73409211E+02</pdfrwt>
<totfact> 0.35462305E+05</totfact>
</mgrwt>
</event>
<event>
 5    1  0.1854763E+000  0.6808467E+02  0.7546771E-02  0.1366730E+00
         21   -1    0    0  501  502  0.00000000000E+00  0.00000000000E+00  0.23109523755E+03  0.23109523755E+03  0.00000000000E+00 0. -1.
         21   -1    0    0  502  503 -0.00000000000E+00 -0.00000000000E+00 -0.31084986379E+02  0.31084986379E+02  0.00000000000E+00 0. -1.
         24    1    1    2    0    0 -0.44205977734E+02 -0.33900133015E+01  0.11840117307E+03  0.14983896155E+03  0.80419002446E+02 0. -1.
          1    1    1    2  501    0  0.21591267428E+02  0.19091515766E+01  0.86484710102E+02  0.89159591578E+02  0.00000000000E+00 0. -1.
         -2    1    1    2    0  503  0.22614710306E+02  0.14808617250E+01 -0.48756320088E+01  0.23181670801E+02  0.00000000000E+00 0.  1.
<mgrwt>
<rscale>  2 0.68084674E+02</rscale>
<asrwt>0</asrwt>
<pdfrwt beam="1">  1       21 0.35553112E-01 0.68084674E+02</pdfrwt>
<pdfrwt beam="2">  1       21 0.47823057E-02 0.68084674E+02</pdfrwt>
<totfact> 0.21461998E+06</totfact>
</mgrwt>
</event>
<event>
 5    1  0.1854763E+000  0.7886590E+02  0.7546771E-02  0.1332301E+00
         21   -1    0    0  501  502  0.00000000000E+00  0.00000000000E+00  0.39148367646E+03  0.39148367646E+03  0.00000000000E+00 0. -1.
         21   -1    0    0  502  503 -0.00000000000E+00 -0.00000000000E+00 -0.46524361914E+02  0.46524361914E+02  0.00000000000E+00 0.  1.
         24    1    1    2    0    0  0.37143459162E+01 -0.38404354630E+02  0.96653754014E+02  0.13152130983E+03  0.80419002446E+02 0.  0.
          1    1    1    2  501    0  0.19804447333E+02  0.40338364126E+02  0.27043054295E+03  0.27413879389E+03  0.00000000000E+00 0. -1.
         -2    1    1    2    0  503 -0.23518793249E+02 -0.19340094954E+01 -0.22124982426E+02  0.32347934647E+02  0.00000000000E+00 0.  1.
<mgrwt>
<rscale>  2 0.78865900E+02</rscale>
<asrwt>0</asrwt>
<pdfrwt beam="1">  1       21 0.60228256E-01 0.78865900E+02</pdfrwt>
<pdfrwt beam="2">  1       21 0.71575944E-02 0.78865900E+02</pdfrwt>
<totfact> 0.38117038E+05</totfact>
</mgrwt>
</event>
<event>
 5    1  0.1854763E+000  0.1203550E+03  0.7546771E-02  0.1242513E+00
         21   -1    0    0  501  502  0.00000000000E+00  0.00000000000E+00  0.17965599764E+03  0.17965599764E+03  0.00000000000E+00 0. -1.
         21   -1    0    0  502  503 -0.00000000000E+00 -0.00000000000E+00 -0.11524399543E+03  0.11524399543E+03  0.00000000000E+00 0.  1.
         24    1    1    2    0    0  0.44292889296E+02  0.91581670096E+02 -0.46331363757E+02  0.13770574992E+03  0.80419002446E+02 0.  1.
          1    1    1    2  501    0 -0.53240593299E+02 -0.72418800753E+02  0.95346503707E+02  0.13103434377E+03  0.00000000000E+00 0. -1.
         -2    1    1    2    0  503  0.89477040029E+01 -0.19162869344E+02  0.15396862258E+02  0.26159899384E+02  0.00000000000E+00 0.  1.
<mgrwt>
<rscale>  2 0.12035501E+03</rscale>
<asrwt>0</asrwt>
<pdfrwt beam="1">  1       21 0.27639384E-01 0.12035501E+03</pdfrwt>
<pdfrwt beam="2">  1       21 0.17729846E-01 0.12035501E+03</pdfrwt>
<totfact> 0.36516059E+05</totfact>
</mgrwt>
</event>
<event>
 5    1  0.1854763E+000  0.9464595E+02  0.7546771E-02  0.1291975E+00
         21   -1    0    0  503  502  0.00000000000E+00  0.00000000000E+00  0.96550899949E+01  0.96550899949E+01  0.00000000000E+00 0.  1.
         21   -1    0    0  501  503 -0.00000000000E+00 -0.00000000000E+00 -0.18831392502E+04  0.18831392502E+04  0.00000000000E+00 0. -1.
         24    1    1    2    0    0  0.20831476937E+02  0.70666485523E+02 -0.98037544396E+03  0.98642330147E+03  0.80419002446E+02 0. -1.
          1    1    1    2  501    0  0.76546024786E+01 -0.27218847086E+02 -0.79371249438E+03  0.79421595446E+03  0.00000000000E+00 0. -1.
         -2    1    1    2    0  502 -0.28486079416E+02 -0.43447638438E+02 -0.99396221851E+02  0.11215508426E+03  0.00000000000E+00 0.  1.
<mgrwt>
<rscale>  2 0.94645955E+02</rscale>
<asrwt>0</asrwt>
<pdfrwt beam="1">  1       21 0.14853980E-02 0.94645955E+02</pdfrwt>
<pdfrwt beam="2">  1       21 0.28971382E+00 0.94645955E+02</pdfrwt>
<totfact> 0.86355958E+04</totfact>
</mgrwt>
</event>
<event>
 5    1  0.1854763E+000  0.7323070E+02  0.7546771E-02  0.1349439E+00
         21   -1    0    0  503  502  0.00000000000E+00  0.00000000000E+00  0.93847208510E+02  0.93847208510E+02  0.00000000000E+00 0. -1.
         21   -1    0    0  501  503 -0.00000000000E+00 -0.00000000000E+00 -0.70323460209E+02  0.70323460209E+02  0.00000000000E+00 0.  1.
         24    1    1    2    0    0 -0.74507649850E+01  0.48089881939E+01  0.25980871809E+02  0.84975654870E+02  0.80419002446E+02 0. -1.
          1    1    1    2  501    0  0.19031154513E+02 -0.31306636471E+02 -0.23415798877E+02  0.43480914965E+02  0.00000000000E+00 0. -1.
         -2    1    1    2    0  502 -0.11580389528E+02  0.26497648277E+02  0.20958675369E+02  0.35714098883E+02  0.00000000000E+00 0.  1.
<mgrwt>
<rscale>  2 0.73230701E+02</rscale>
<asrwt>0</asrwt>
<pdfrwt beam="1">  1       21 0.14438032E-01 0.73230701E+02</pdfrwt>
<pdfrwt beam="2">  1       21 0.10818994E-01 0.73230701E+02</pdfrwt>
<totfact> 0.28615256E+06</totfact>
</mgrwt>
</event>
<event>
 5    1  0.1854763E+000  0.6477345E+02  0.7546771E-02  0.1378826E+00
         21   -1    0    0  501  502  0.00000000000E+00  0.00000000000E+00  0.85827490452E+01  0.85827490452E+01  0.00000000000E+00 0. -1.
         21   -1    0    0  502  503 -0.00000000000E+00 -0.00000000000E+00 -0.54121244872E+03  0.54121244872E+03  0.00000000000E+00 0. -1.
         24    1    1    2    0    0 -0.17484974406E+01  0.32098690687E+01 -0.35981099388E+03  0.36870656052E+03  0.80419002446E+02 0. -1.
          1    1    1    2  501    0  0.12801764211E+02  0.19765410638E+02 -0.45399008427E+02  0.51143196916E+02  0.00000000000E+00 0. -1.
         -2    1    1    2    0  503 -0.11053266770E+02 -0.22975279706E+02 -0.12741969737E+03  0.12994544033E+03  0.00000000000E+00 0.  1.
<mgrwt>
<rscale>  2 0.64773450E+02</rscale>
<asrwt>0</asrwt>
<pdfrwt beam="1">  1       21 0.13204230E-02 0.64773450E+02</pdfrwt>
<pdfrwt beam="2">  1       21 0.83263447E-01 0.64773450E+02</pdfrwt>
<totfact> 0.29289468E+06</totfact>
</mgrwt>
</event>
<event>
 5    1  0.1854763E+000  0.1314914E+03  0.7546771E-02  0.1225259E+00
         21   -1    0    0  501  502  0.00000000000E+00  0.00000000000E+00  0.17215236636E+04  0.17215236636E+04  0.00000000000E+00 0. -1.
         21   -1    0    0  502  503 -0.00000000000E+00 -0.00000000000E+00 -0.14457012248E+03  0.14457012248E+03  0.00000000000E+00 0.  1.
         24    1    1    2    0    0 -0.29437847626E+02 -0.22473350630E+02  0.12411230681E+03  0.15245562967E+03  0.80419002446E+02 0.  1.
          1    1    1    2  501    0 -0.30231304538E+02  0.83675762149E+02  0.15678343904E+04  0.15703567240E+04  0.00000000000E+00 0. -1.
         -2    1    1    2    0  503  0.59669152165E+02 -0.61202411519E+02 -0.11499315614E+03  0.14328143234E+03  0.00000000000E+00 0.  1.
<mgrwt>
<rscale>  2 0.13149137E+03</rscale>
<asrwt>0</asrwt>
<pdfrwt beam="1">  1       21 0.26484978E+00 0.13149137E+03</pdfrwt>
<pdfrwt beam="2">  1       21 0.22241559E-01 0.13149137E+03</pdfrwt>
<totfact> 0.11270231E+03</totfact>
</mgrwt>
</event>
<event>
 5    1  0.1854763E+000  0.6693967E+02  0.7546771E-02  0.1370820E+00
         21   -1    0    0  501  502  0.00000000000E+00  0.00000000000E+00  0.76063073764E+03  0.76063073764E+03  0.00000000000E+00 0. -1.
         21   -1    0    0  502  503 -0.00000000000E+00 -0.00000000000E+00 -0.13023354185E+02  0.13023354185E+02  0.00000000000E+00 0.  1.
         24    1    1    2    0    0 -0.70947836113E+01  0.20825250641E+01  0.30911475721E+03  0.31948994029E+03  0.80419002446E+02 0.  1.
          1    1    1    2  501    0  0.47467948309E+01  0.25247789202E+02  0.42066553798E+03  0.42144925882E+03  0.00000000000E+00 0. -1.
         -2    1    1    2    0  503  0.23479887804E+01 -0.27330314266E+02  0.17827088263E+02  0.32714892712E+02  0.00000000000E+00 0.  1.
<mgrwt>
<rscale>  2 0.66939667E+02</rscale>
<asrwt>0</asrwt>
<pdfrwt beam="1">  1       21 0.11702008E+00 0.66939667E+02</pdfrwt>
<pdfrwt beam="2">  1       21 0.20035935E-02 0.66939667E+02</pdfrwt>
<totfact> 0.69962909E+05</totfact>
</mgrwt>
</event>
<event>
 5    1  0.1854763E+000  0.9484343E+02  0.7546771E-02  0.1291529E+00
         21   -1    0    0  501  502  0.00000000000E+00  0.00000000000E+00  0.22219287634E+03  0.22219287634E+03  0.00000000000E+00 0. -1.
         21   -1    0    0  502  503 -0.00000000000E+00 -0.00000000000E+00 -0.98456740880E+02  0.98456740880E+02  0.00000000000E+00 0.  1.
         24    1    1    2    0    0  0.34549312758E+02 -0.44311256194E+02  0.29582564815E+02  0.10246700217E+03  0.80419002446E+02 0.  1.
          1    1    1    2  501    0 -0.47135014104E+02  0.17148094015E+01  0.14393528882E+03  0.15146622559E+03  0.00000000000E+00 0. -1.
         -2    1    1    2    0  503  0.12585701346E+02  0.42596446793E+02 -0.49781718181E+02  0.66716389461E+02  0.00000000000E+00 0.  1.
<mgrwt>
<rscale>  2 0.94843434E+02</rscale>
<asrwt>0</asrwt>
<pdfrwt beam="1">  1       21 0.34183519E-01 0.94843434E+02</pdfrwt>
<pdfrwt beam="2">  1       21 0.15147191E-01 0.94843434E+02</pdfrwt>
<totfact> 0.32361638E+05</totfact>
</mgrwt>
</event>
<event>
 5    1  0.1854763E+000  0.1137402E+03  0.7546771E-02  0.1253796E+00
         21   -1    0    0  503  502  0.00000000000E+00  0.00000000000E+00  0.65370883076E+02  0.65370883076E+02  0.00000000000E+00 0.  1.
         21   -1    0    0  501  503 -0.00000000000E+00 -0.00000000000E+00 -0.20351615568E+04  0.20351615568E+04  0.00000000000E+00 0.  1.
         24    1    1    2    0    0 -0.22496698548E+02  0.82352833145E+02 -0.11494784797E+04  0.11554462696E+04  0.80419002446E+02 0.  1.
          1    1    1    2  501    0  0.47352677151E+02 -0.62345845979E+02 -0.87675782153E+03  0.88024630540E+03  0.00000000000E+00 0. -1.
         -2    1    1    2    0  502 -0.24855978604E+02 -0.20006987167E+02  0.56445627555E+02  0.64839864882E+02  0.00000000000E+00 0.  1.
<mgrwt>
<rscale>  2 0.11374020E+03</rscale>
<asrwt>0</asrwt>
<pdfrwt beam="1">  1       21 0.10057060E-01 0.11374020E+03</pdfrwt>
<pdfrwt beam="2">  1       21 0.31310175E+00 0.11374020E+03</pdfrwt>
<totfact> 0.26143430E+03</totfact>
</mgrwt>
</event>
<event>
 5    1  0.1854763E+000  0.1075991E+03  0.7546771E-02  0.1265082E+00
         21   -1    0    0  503  502  0.00000000000E+00  0.00000000000E+00  0.10568621894E+03  0.10568621894E+03  0.00000000000E+00 0. -1.
         21   -1    0    0  501  503 -0.00000000000E+00 -0.00000000000E+00 -0.11882417937E+03  0.11882417937E+03  0.00000000000E+00 0. -1.
         24    1    1    2    0    0  0.63891700449E+02  0.32294951420E+02 -0.37932119472E+02  0.11415417170E+03  0.80419002446E+02 0. -1.
          1    1    1    2  501    0 -0.74828364903E+02 -0.14915862924E+01  0.17713748496E+02  0.76910895909E+02  0.00000000000E+00 0. -1.
         -2    1    1    2    0  502  0.10936664454E+02 -0.30803365127E+02  0.70804105529E+01  0.33445330708E+02  0.00000000000E+00 0.  1.
<mgrwt>
<rscale>  2 0.10759909E+03</rscale>
<asrwt>0</asrwt>
<pdfrwt beam="1">  1       21 0.16259418E-01 0.10759909E+03</pdfrwt>
<pdfrwt beam="2">  1       21 0.18280643E-01 0.10759909E+03</pdfrwt>
<totfact> 0.92375140E+05</totfact>
</mgrwt>
</event>
<event>
 5    1  0.1854763E+000  0.8169839E+02  0.7546771E-02  0.1324300E+00
         21   -1    0    0  501  502  0.00000000000E+00  0.00000000000E+00  0.19564141816E+02  0.19564141816E+02  0.00000000000E+00 0. -1.
         21   -1    0    0  502  503 -0.00000000000E+00 -0.00000000000E+00 -0.49213611861E+03  0.49213611861E+03  0.00000000000E+00 0.  1.
         24    1    1    2    0    0  0.59290003102E+02  0.16553409269E+02 -0.36056507938E+03  0.37451797320E+03  0.80419002446E+02 0.  1.
          1    1    1    2  501    0 -0.20584301851E+02 -0.16640421467E+01 -0.34031441289E+01  0.20929976324E+02  0.00000000000E+00 0. -1.
         -2    1    1    2    0  503 -0.38705701251E+02 -0.14889367122E+02 -0.10860375328E+03  0.11625231090E+03  0.00000000000E+00 0.  1.
<mgrwt>
<rscale>  2 0.81698389E+02</rscale>
<asrwt>0</asrwt>
<pdfrwt beam="1">  1       21 0.30098680E-02 0.81698389E+02</pdfrwt>
<pdfrwt beam="2">  1       21 0.75713248E-01 0.81698389E+02</pdfrwt>
<totfact> 0.97980669E+05</totfact>
</mgrwt>
</event>
<event>
 5    1  0.1854763E+000  0.9719905E+02  0.7546771E-02  0.1286299E+00
         21   -1    0    0  501  502  0.00000000000E+00  0.00000000000E+00  0.56833555609E+02  0.56833555609E+02  0.00000000000E+00 0. -1.
         21   -1    0    0  502  503 -0.00000000000E+00 -0.00000000000E+00 -0.18760239782E+03  0.18760239782E+03  0.00000000000E+00 0.  1.
         24    1    1    2    0    0 -0.49074520739E+01  0.77721731314E+02 -0.55287992465E+02  0.12485483038E+03  0.80419002446E+02 0. -1.
          1    1    1    2  501    0  0.15767102420E+02 -0.35283539222E+02 -0.85359453339E+01  0.39577670744E+02  0.00000000000E+00 0. -1.
         -2    1    1    2    0  503 -0.10859650346E+02 -0.42438192092E+02 -0.66944904410E+02  0.80003452302E+02  0.00000000000E+00 0.  1.
<mgrwt>
<rscale>  2 0.97199048E+02</rscale>
<asrwt>0</asrwt>
<pdfrwt beam="1">  1       21 0.87436237E-02 0.97199048E+02</pdfrwt>
<pdfrwt beam="2">  1       21 0.28861908E-01 0.97199048E+02</pdfrwt>
<totfact> 0.11744880E+06</totfact>
</mgrwt>
</event>
<event>
 5    1  0.1854763E+000  0.1222904E+03  0.7546771E-02  0.1239366E+00
         21   -1    0    0  501  502  0.00000000000E+00  0.00000000000E+00  0.20799468068E+04  0.20799468068E+04  0.00000000000E+00 0. -1.
         21   -1    0    0  502  503 -0.00000000000E+00 -0.00000000000E+00 -0.14985663264E+02  0.14985663264E+02  0.00000000000E+00 0.  1.
         24    1    1    2    0    0  0.53205719437E+02  0.28033622793E+02  0.68340211938E+03  0.69074047609E+03  0.80419002446E+02 0.  1.
          1    1    1    2  501    0  0.14849263388E+02 -0.65027992258E+02  0.12481115962E+04  0.12498926742E+04  0.00000000000E+00 0. -1.
         -2    1    1    2    0  503 -0.68054982824E+02  0.36994369465E+02  0.13344742796E+03  0.15429931979E+03  0.00000000000E+00 0.  1.
<mgrwt>
<rscale>  2 0.12229041E+03</rscale>
<asrwt>0</asrwt>
<pdfrwt beam="1">  1       21 0.31999159E+00 0.12229041E+03</pdfrwt>
<pdfrwt beam="2">  1       21 0.23054883E-02 0.12229041E+03</pdfrwt>
<totfact> 0.27809422E+04</totfact>
</mgrwt>
</event>
<event>
 5    1  0.1854763E+000  0.1247464E+03  0.7546771E-02  0.1235466E+00
         21   -1    0    0  503  502  0.00000000000E+00  0.00000000000E+00  0.60437778136E+03  0.60437778136E+03  0.00000000000E+00 0.  1.
         21   -1    0    0  501  503 -0.00000000000E+00 -0.00000000000E+00 -0.28770045070E+02  0.28770045070E+02  0.00000000000E+00 0. -1.
         24    1    1    2    0    0  0.51327020111E+02 -0.10395513178E+02  0.14556271202E+03  0.17435093568E+03  0.80419002446E+02 0. -1.
          1    1    1    2  501    0  0.37659409711E+02 -0.36923108921E+02  0.91971831260E+02  0.10602058695E+03  0.00000000000E+00 0. -1.
         -2    1    1    2    0  502 -0.88986429822E+02  0.47318622099E+02  0.33807319301E+03  0.35277630380E+03  0.00000000000E+00 0.  1.
<mgrwt>
<rscale>  2 0.12474645E+03</rscale>
<asrwt>0</asrwt>
<pdfrwt beam="1">  1       21 0.92981187E-01 0.12474645E+03</pdfrwt>
<pdfrwt beam="2">  1       21 0.44261613E-02 0.12474645E+03</pdfrwt>
<totfact> 0.32720260E+05</totfact>
</mgrwt>
</event>
<event>
 5    1  0.1854763E+000  0.7927154E+02  0.7546771E-02  0.1331132E+00
         21   -1    0    0  503  502  0.00000000000E+00  0.00000000000E+00  0.89509844668E+02  0.89509844668E+02  0.00000000000E+00 0. -1.
         21   -1    0    0  501  503 -0.00000000000E+00 -0.00000000000E+00 -0.12616542339E+03  0.12616542339E+03  0.00000000000E+00 0.  1.
         24    1    1    2    0    0  0.86310298639E+01 -0.44338921359E+01  0.46411137142E-01  0.81002297402E+02  0.80419002446E+02 0.  0.
          1    1    1    2  501    0 -0.25142577404E+02 -0.30125879398E+02 -0.72377750953E+02  0.82330168474E+02  0.00000000000E+00 0. -1.
         -2    1    1    2    0  502  0.16511547541E+02  0.34559771534E+02  0.35675761094E+02  0.52342802182E+02  0.00000000000E+00 0.  1.
<mgrwt>
<rscale>  2 0.79271538E+02</rscale>
<asrwt>0</asrwt>
<pdfrwt beam="1">  1       21 0.13770745E-01 0.79271538E+02</pdfrwt>
<pdfrwt beam="2">  1       21 0.19410065E-01 0.79271538E+02</pdfrwt>
<totfact> 0.11077148E+06</totfact>
</mgrwt>
</event>
<event>
 5    1  0.2292775E+000  0.9293467E+02  0.7546771E-02  0.1295897E+00
         21   -1    0    0  501  502  0.00000000000E+00  0.00000000000E+00  0.25498925999E+03  0.25498925999E+03  0.00000000000E+00 0. -1.
         21   -1    0    0  502  503 -0.00000000000E+00 -0.00000000000E+00 -0.35746275147E+03  0.35746275147E+03  0.00000000000E+00 0.  1.
         24    1    1    2    0    0 -0.19201347014E+02  0.37688595491E+02  0.40896786217E+02  0.99643790747E+02  0.80419002446E+02 0.  1.
          1    1    1    2  501    0 -0.20302354412E+02  0.17725593819E+02  0.18017688459E+03  0.18218148098E+03  0.00000000000E+00 0. -1.
         -2    1    1    2    0  503  0.39503701427E+02 -0.55414189310E+02 -0.32354716228E+03  0.33062673973E+03  0.00000000000E+00 0.  1.
<mgrwt>
<rscale>  2 0.92934672E+02</rscale>
<asrwt>0</asrwt>
<pdfrwt beam="1">  1       21 0.39229117E-01 0.92934672E+02</pdfrwt>
<pdfrwt beam="2">  1       21 0.54994269E-01 0.92934672E+02</pdfrwt>
<totfact> 0.21012776E+04</totfact>
</mgrwt>
</event>
<event>
 5    1  0.2231180E+000  0.6702187E+02  0.7546771E-02  0.1370523E+00
         21   -1    0    0  501  502  0.00000000000E+00  0.00000000000E+00  0.98924026350E+02  0.98924026350E+02  0.00000000000E+00 0. -1.
         21   -1    0    0  502  503 -0.00000000000E+00 -0.00000000000E+00 -0.45688663043E+03  0.45688663043E+03  0.00000000000E+00 0.  1.
         24    1    1    2    0    0 -0.20212120149E+02  0.52102290007E+00  0.17483354520E+02  0.84744822293E+02  0.80419002446E+02 0.  1.
          1    1    1    2  501    0  0.88522835870E+00  0.21673734220E+02  0.44808108496E+02  0.49782536811E+02  0.00000000000E+00 0. -1.
         -2    1    1    2    0  503  0.19326891791E+02 -0.22194757120E+02 -0.42025406710E+03  0.42128329768E+03  0.00000000000E+00 0.  1.
<mgrwt>
<rscale>  2 0.67021873E+02</rscale>
<asrwt>0</asrwt>
<pdfrwt beam="1">  1       21 0.15219081E-01 0.67021873E+02</pdfrwt>
<pdfrwt beam="2">  1       21 0.70290250E-01 0.67021873E+02</pdfrwt>
<totfact> 0.74988939E+04</totfact>
</mgrwt>
</event>
<event>
 5    1  0.1854763E+000  0.1030639E+03  0.7546771E-02  0.1273982E+00
         21   -1    0    0  501  502  0.00000000000E+00  0.00000000000E+00  0.81730466652E+02  0.81730466652E+02  0.00000000000E+00 0. -1.
         21   -1    0    0  502  503 -0.00000000000E+00 -0.00000000000E+00 -0.14126680293E+03  0.14126680293E+03  0.00000000000E+00 0.  1.
         24    1    1    2    0    0  0.43979795220E+02 -0.51442396191E+02 -0.46481384246E+01  0.10521104343E+03  0.80419002446E+02 0. -1.
          1    1    1    2  501    0  0.17391345202E+02  0.32381761724E+02 -0.64625006515E+01  0.37320253147E+02  0.00000000000E+00 0. -1.
         -2    1    1    2    0  503 -0.61371140422E+02  0.19060634468E+02 -0.48425697202E+02  0.80465973011E+02  0.00000000000E+00 0.  1.
<mgrwt>
<rscale>  2 0.10306386E+03</rscale>
<asrwt>0</asrwt>
<pdfrwt beam="1">  1       21 0.12573918E-01 0.10306386E+03</pdfrwt>
<pdfrwt beam="2">  1       21 0.21733354E-01 0.10306386E+03</pdfrwt>
<totfact> 0.10630630E+06</totfact>
</mgrwt>
</event>
<event>
 5    1  0.1854763E+000  0.1007200E+03  0.7546771E-02  0.1278789E+00
         21   -1    0    0  503  502  0.00000000000E+00  0.00000000000E+00  0.30692578544E+03  0.30692578544E+03  0.00000000000E+00 0.  1.
         21   -1    0    0  501  503 -0.00000000000E+00 -0.00000000000E+00 -0.90837336574E+02  0.90837336574E+02  0.00000000000E+00 0. -1.
         24    1    1    2    0    0 -0.44343821760E+02 -0.51293727222E+02 -0.29006521397E+02  0.10911468837E+03  0.80419002446E+02 0. -1.
          1    1    1    2  501    0  0.58466789690E+02  0.19787327659E+02  0.26212749083E+02  0.67059764741E+02  0.00000000000E+00 0. -1.
         -2    1    1    2    0  502 -0.14122967930E+02  0.31506399563E+02  0.21888222118E+03  0.22158866890E+03  0.00000000000E+00 0.  1.
<mgrwt>
<rscale>  2 0.10071998E+03</rscale>
<asrwt>0</asrwt>
<pdfrwt beam="1">  1       21 0.47219351E-01 0.10071998E+03</pdfrwt>
<pdfrwt beam="2">  1       21 0.13974975E-01 0.10071998E+03</pdfrwt>
<totfact> 0.19648684E+05</totfact>
</mgrwt>
</event>
<event>
 5    1  0.1854763E+000  0.7049076E+02  0.7546771E-02  0.1358432E+00
         21   -1    0    0  503  502  0.00000000000E+00  0.00000000000E+00  0.17369878852E+03  0.17369878852E+03  0.00000000000E+00 0. -1.
         21   -1    0    0  501  503 -0.00000000000E+00 -0.00000000000E+00 -0.76323156446E+02  0.76323156446E+02  0.00000000000E+00 0.  1.
         24    1    1    2    0    0  0.10331638124E+02  0.24926848808E+02 -0.19180664685E+02  0.86966685518E+02  0.80419002446E+02 0.  1.
          1    1    1    2  501    0  0.19994465879E+02 -0.98106379361E+01 -0.15230897172E+02  0.26981614317E+02  0.00000000000E+00 0. -1.
         -2    1    1    2    0  502 -0.30326104003E+02 -0.15116210872E+02  0.13178719393E+03  0.13607364513E+03  0.00000000000E+00 0.  1.
<mgrwt>
<rscale>  2 0.70490758E+02</rscale>
<asrwt>0</asrwt>
<pdfrwt beam="1">  1       21 0.26722890E-01 0.70490758E+02</pdfrwt>
<pdfrwt beam="2">  1       21 0.11742024E-01 0.70490758E+02</pdfrwt>
<totfact> 0.80998730E+05</totfact>
</mgrwt>
</event>
<event>
 5    1  0.1854763E+000  0.6866039E+02  0.7546771E-02  0.1364709E+00
         21   -1    0    0  503  502  0.00000000000E+00  0.00000000000E+00  0.69375148167E+03  0.69375148167E+03  0.00000000000E+00 0. -1.
         21   -1    0    0  501  503 -0.00000000000E+00 -0.00000000000E+00 -0.94380896129E+01  0.94380896129E+01  0.00000000000E+00 0.  1.
         24    1    1    2    0    0 -0.16500826409E+02 -0.86435241351E+01  0.23259707079E+03  0.24681086094E+03  0.80419002446E+02 0.  1.
          1    1    1    2  501    0  0.28836141147E+02 -0.11587790895E+02  0.12503787504E+03  0.12884203557E+03  0.00000000000E+00 0. -1.
         -2    1    1    2    0  502 -0.12335314738E+02  0.20231315030E+02  0.32667844623E+03  0.32753667478E+03  0.00000000000E+00 0.  1.
<mgrwt>
<rscale>  2 0.68660394E+02</rscale>
<asrwt>0</asrwt>
<pdfrwt beam="1">  1       21 0.10673096E+00 0.68660394E+02</pdfrwt>
<pdfrwt beam="2">  1       21 0.14520143E-02 0.68660394E+02</pdfrwt>
<totfact> 0.14431568E+06</totfact>
</mgrwt>
</event>
<event>
 5    1  0.1854763E+000  0.2274351E+03  0.7546771E-02  0.1128458E+00
         21   -1    0    0  501  502  0.00000000000E+00  0.00000000000E+00  0.50520402550E+03  0.50520402550E+03  0.00000000000E+00 0. -1.
         21   -1    0    0  502  503 -0.00000000000E+00 -0.00000000000E+00 -0.12313584217E+03  0.12313584217E+03  0.00000000000E+00 0. -1.
         24    1    1    2    0    0 -0.94813367548E+02  0.16030847289E+03  0.29995664224E+03  0.36211819110E+03  0.80419002446E+02 0. -1.
          1    1    1    2  501    0  0.67808410393E+02  0.19199367812E+02  0.34966059775E+02  0.78671605937E+02  0.00000000000E+00 0. -1.
         -2    1    1    2    0  503  0.27004957155E+02 -0.17950784070E+03  0.47145481310E+02  0.18755007063E+03  0.00000000000E+00 0.  1.
<mgrwt>
<rscale>  2 0.22743514E+03</rscale>
<asrwt>0</asrwt>
<pdfrwt beam="1">  1       21 0.77723695E-01 0.22743514E+03</pdfrwt>
<pdfrwt beam="2">  1       21 0.18943976E-01 0.22743514E+03</pdfrwt>
<totfact> 0.36824714E+04</totfact>
</mgrwt>
</event>
<event>
 5    1  0.1854763E+000  0.1785817E+03  0.7546771E-02  0.1169183E+00
         21   -1    0    0  503  502  0.00000000000E+00  0.00000000000E+00  0.37993177263E+03  0.37993177263E+03  0.00000000000E+00 0.  1.
         21   -1    0    0  501  503 -0.00000000000E+00 -0.00000000000E+00 -0.31265866010E+03  0.31265866010E+03  0.00000000000E+00 0. -1.
         24    1    1    2    0    0 -0.85536938875E+02  0.72063314694E+00 -0.88915114672E+02  0.14727593420E+03  0.80419002446E+02 0. -1.
          1    1    1    2  501    0  0.11091547995E+01 -0.10532550763E+03 -0.16577929835E+03  0.19641147762E+03  0.00000000000E+00 0. -1.
         -2    1    1    2    0  502  0.84427784076E+02  0.10460487448E+03  0.32196752555E+03  0.34890302091E+03  0.00000000000E+00 0.  1.
<mgrwt>
<rscale>  2 0.17858174E+03</rscale>
<asrwt>0</asrwt>
<pdfrwt beam="1">  1       21 0.58451042E-01 0.17858174E+03</pdfrwt>
<pdfrwt beam="2">  1       21 0.48101333E-01 0.17858174E+03</pdfrwt>
<totfact> 0.11426308E+04</totfact>
</mgrwt>
</event>
<event>
 5    1  0.1854763E+000  0.8343793E+02  0.7546771E-02  0.1319569E+00
         21   -1    0    0  503  502  0.00000000000E+00  0.00000000000E+00  0.14327774110E+03  0.14327774110E+03  0.00000000000E+00 0. -1.
         21   -1    0    0  501  503 -0.00000000000E+00 -0.00000000000E+00 -0.66390404680E+02  0.66390404680E+02  0.00000000000E+00 0. -1.
         24    1    1    2    0    0 -0.30156458418E+02  0.30796313543E+02  0.55434206717E+02  0.10676137944E+03  0.80419002446E+02 0. -1.
          1    1    1    2  501    0  0.23604789756E+02 -0.50028000224E+02 -0.18297608018E+02  0.58264820990E+02  0.00000000000E+00 0. -1.
         -2    1    1    2    0  502  0.65516686623E+01  0.19231686681E+02  0.39750737722E+02  0.44641945346E+02  0.00000000000E+00 0.  1.
<mgrwt>
<rscale>  2 0.83437925E+02</rscale>
<asrwt>0</asrwt>
<pdfrwt beam="1">  1       21 0.22042729E-01 0.83437925E+02</pdfrwt>
<pdfrwt beam="2">  1       21 0.10213908E-01 0.83437925E+02</pdfrwt>
<totfact> 0.14818845E+06</totfact>
</mgrwt>
</event>
<event>
 5    1  0.1854763E+000  0.8865022E+02  0.7546771E-02  0.1306154E+00
         21   -1    0    0  503  502  0.00000000000E+00  0.00000000000E+00  0.12486053674E+03  0.12486053674E+03  0.00000000000E+00 0.  1.
         21   -1    0    0  501  503 -0.00000000000E+00 -0.00000000000E+00 -0.13322661401E+03  0.13322661401E+03  0.00000000000E+00 0.  1.
         24    1    1    2    0    0 -0.33748452919E+02  0.49621060274E+02 -0.58073324149E+01  0.10050944613E+03  0.80419002446E+02 0.  1.
          1    1    1    2  501    0  0.91900330428E+01 -0.51514305091E+02 -0.69069114698E+02  0.86652887669E+02  0.00000000000E+00 0. -1.
         -2    1    1    2    0  502  0.24558419877E+02  0.18932448167E+01  0.66510369844E+02  0.70924816951E+02  0.00000000000E+00 0.  1.
<mgrwt>
<rscale>  2 0.88650224E+02</rscale>
<asrwt>0</asrwt>
<pdfrwt beam="1">  1       21 0.19209313E-01 0.88650224E+02</pdfrwt>
<pdfrwt beam="2">  1       21 0.20496402E-01 0.88650224E+02</pdfrwt>
<totfact> 0.55295488E+05</totfact>
</mgrwt>
</event>
<event>
 5    1  0.1854763E+000  0.7219175E+02  0.7546771E-02  0.1352795E+00
         21   -1    0    0  501  502  0.00000000000E+00  0.00000000000E+00  0.68260826817E+02  0.68260826817E+02  0.00000000000E+00 0.  1.
         21   -1    0    0  502  503 -0.00000000000E+00 -0.00000000000E+00 -0.91928545904E+02  0.91928545904E+02  0.00000000000E+00 0. -1.
         24    1    1    2    0    0  0.17965831219E+02  0.22322572772E+02  0.16129051547E+02  0.86881704661E+02  0.80419002446E+02 0.  1.
          1    1    1    2  501    0 -0.35482751642E+02 -0.79717649760E+01 -0.13967011663E+02  0.38957054762E+02  0.00000000000E+00 0. -1.
         -2    1    1    2    0  503  0.17516920423E+02 -0.14350807796E+02 -0.25829758972E+02  0.34350613299E+02  0.00000000000E+00 0.  1.
<mgrwt>
<rscale>  2 0.72191748E+02</rscale>
<asrwt>0</asrwt>
<pdfrwt beam="1">  1       21 0.10501666E-01 0.72191748E+02</pdfrwt>
<pdfrwt beam="2">  1       21 0.14142853E-01 0.72191748E+02</pdfrwt>
<totfact> 0.31219238E+06</totfact>
</mgrwt>
</event>
<event>
 5    1  0.1854763E+000  0.7071164E+02  0.7546771E-02  0.1357690E+00
         21   -1    0    0  503  502  0.00000000000E+00  0.00000000000E+00  0.16900348161E+02  0.16900348161E+02  0.00000000000E+00 0.  1.
         21   -1    0    0  501  503 -0.00000000000E+00 -0.00000000000E+00 -0.33158157450E+03  0.33158157450E+03  0.00000000000E+00 0. -1.
         24    1    1    2    0    0  0.39235317016E+01  0.51170042845E+01 -0.12055196434E+03  0.14505712631E+03  0.80419002446E+02 0.  1.
          1    1    1    2  501    0  0.28264396131E+02 -0.85517468068E+00 -0.94248369551E+02  0.98398996821E+02  0.00000000000E+00 0. -1.
         -2    1    1    2    0  502 -0.32187927832E+02 -0.42618296038E+01 -0.99880892450E+02  0.10502579953E+03  0.00000000000E+00 0.  1.
<mgrwt>
<rscale>  2 0.70711636E+02</rscale>
<asrwt>0</asrwt>
<pdfrwt beam="1">  1       21 0.26000538E-02 0.70711636E+02</pdfrwt>
<pdfrwt beam="2">  1       21 0.51012546E-01 0.70711636E+02</pdfrwt>
<totfact> 0.28331867E+06</totfact>
</mgrwt>
</event>
<event>
 5    1  0.1854763E+000  0.6917360E+02  0.7546771E-02  0.1362926E+00
         21   -1    0    0  501  502  0.00000000000E+00  0.00000000000E+00  0.19273739200E+02  0.19273739200E+02  0.00000000000E+00 0.  1.
         21   -1    0    0  502  503 -0.00000000000E+00 -0.00000000000E+00 -0.25103549978E+03  0.25103549978E+03  0.00000000000E+00 0.  1.
         24    1    1    2    0    0 -0.32034097705E+02  0.27431282139E+02 -0.16517668804E+03  0.18849194381E+03  0.80419002446E+02 0.  1.
          1    1    1    2  501    0  0.10822364413E+02 -0.23630485074E+02 -0.35854593614E+02  0.44284029621E+02  0.00000000000E+00 0. -1.
         -2    1    1    2    0  503  0.21211733292E+02 -0.38007970653E+01 -0.30730478922E+02  0.37533265544E+02  0.00000000000E+00 0.  1.
<mgrwt>
<rscale>  2 0.69173597E+02</rscale>
<asrwt>0</asrwt>
<pdfrwt beam="1">  1       21 0.29651907E-02 0.69173597E+02</pdfrwt>
<pdfrwt beam="2">  1       21 0.38620846E-01 0.69173597E+02</pdfrwt>
<totfact> 0.39866674E+06</totfact>
</mgrwt>
</event>
<event>
 5    1  0.1854763E+000  0.6851118E+02  0.7546771E-02  0.1365230E+00
         21   -1    0    0  503  502  0.00000000000E+00  0.00000000000E+00  0.64667407106E+02  0.64667407106E+02  0.00000000000E+00 0. -1.
         21   -1    0    0  501  503 -0.00000000000E+00 -0.00000000000E+00 -0.37158704635E+03  0.37158704635E+03  0.00000000000E+00 0. -1.
         24    1    1    2    0    0  0.25544267015E+02 -0.26172681901E+02 -0.72828761444E+01  0.88644092271E+02  0.80419002446E+02 0. -1.
          1    1    1    2  501    0 -0.26535193020E+01  0.25644179859E+02 -0.31751531513E+03  0.31856026191E+03  0.00000000000E+00 0. -1.
         -2    1    1    2    0  502 -0.22890747713E+02  0.52850204229E+00  0.17878552030E+02  0.29050099276E+02  0.00000000000E+00 0.  1.
<mgrwt>
<rscale>  2 0.68511179E+02</rscale>
<asrwt>0</asrwt>
<pdfrwt beam="1">  1       21 0.99488320E-02 0.68511179E+02</pdfrwt>
<pdfrwt beam="2">  1       21 0.57167237E-01 0.68511179E+02</pdfrwt>
<totfact> 0.24280767E+05</totfact>
</mgrwt>
</event>
<event>
 5    1  0.1854763E+000  0.8520040E+02  0.7546771E-02  0.1314909E+00
         21   -1    0    0  503  502  0.00000000000E+00  0.00000000000E+00  0.56532576206E+02  0.56532576206E+02  0.00000000000E+00 0.  1.
         21   -1    0    0  501  503 -0.00000000000E+00 -0.00000000000E+00 -0.15982426663E+03  0.15982426663E+03  0.00000000000E+00 0.  1.
         24    1    1    2    0    0  0.43692488486E+02  0.12724767968E+02 -0.42476818821E+02  0.10169783361E+03  0.80419002446E+02 0.  0.
          1    1    1    2  501    0 -0.41569062076E+02 -0.35779247510E+02 -0.70704360674E+02  0.89483227996E+02  0.00000000000E+00 0. -1.
         -2    1    1    2    0  502 -0.21234264100E+01  0.23054479541E+02  0.98894890673E+01  0.25175781232E+02  0.00000000000E+00 0.  1.
<mgrwt>
<rscale>  2 0.85200401E+02</rscale>
<asrwt>0</asrwt>
<pdfrwt beam="1">  1       21 0.86973196E-02 0.85200401E+02</pdfrwt>
<pdfrwt beam="2">  1       21 0.24588348E-01 0.85200401E+02</pdfrwt>
<totfact> 0.15973154E+06</totfact>
</mgrwt>
</event>
<event>
 5    1  0.1854763E+000  0.8779599E+02  0.7546771E-02  0.1308279E+00
         21   -1    0    0  503  502  0.00000000000E+00  0.00000000000E+00  0.62677758484E+02  0.62677758484E+02  0.00000000000E+00 0. -1.
         21   -1    0    0  501  503 -0.00000000000E+00 -0.00000000000E+00 -0.25499674329E+03  0.25499674329E+03  0.00000000000E+00 0.  1.
         24    1    1    2    0    0  0.50728031156E+01 -0.37398339656E+02 -0.74013880994E+01  0.89142389695E+02  0.80419002446E+02 0. -1.
          1    1    1    2  501    0  0.29306603337E+02 -0.74588855915E+01 -0.16630128637E+03  0.16902848820E+03  0.00000000000E+00 0. -1.
         -2    1    1    2    0  502 -0.34379406452E+02  0.44857225247E+02 -0.18616310338E+02  0.59503623885E+02  0.00000000000E+00 0.  1.
<mgrwt>
<rscale>  2 0.87795994E+02</rscale>
<asrwt>0</asrwt>
<pdfrwt beam="1">  1       21 0.96427321E-02 0.87795994E+02</pdfrwt>
<pdfrwt beam="2">  1       21 0.39230268E-01 0.87795994E+02</pdfrwt>
<totfact> 0.54680556E+05</totfact>
</mgrwt>
</event>
<event>
 5    1  0.1854763E+000  0.1298236E+03  0.7546771E-02  0.1227718E+00
         21   -1    0    0  503  502  0.00000000000E+00  0.00000000000E+00  0.22498009031E+03  0.22498009031E+03  0.00000000000E+00 0.  1.
         21   -1    0    0  501  503 -0.00000000000E+00 -0.00000000000E+00 -0.16909510803E+03  0.16909510803E+03  0.00000000000E+00 0.  1.
         24    1    1    2    0    0  0.73385933692E+02  0.12939623173E+02 -0.11620083892E+03  0.15975850535E+03  0.80419002446E+02 0.  1.
          1    1    1    2  501    0  0.39638030727E+01  0.50081293506E+02  0.23801386462E+02  0.55590949727E+02  0.00000000000E+00 0. -1.
         -2    1    1    2    0  502 -0.77349736765E+02 -0.63020916679E+02  0.14828443475E+03  0.17872574326E+03  0.00000000000E+00 0.  1.
<mgrwt>
<rscale>  2 0.12982358E+03</rscale>
<asrwt>0</asrwt>
<pdfrwt beam="1">  1       21 0.34612322E-01 0.12982358E+03</pdfrwt>
<pdfrwt beam="2">  1       21 0.26014632E-01 0.12982358E+03</pdfrwt>
<totfact> 0.11552497E+05</totfact>
</mgrwt>
</event>
<event>
 5    1  0.1854763E+000  0.6824923E+02  0.7546771E-02  0.1366150E+00
         21   -1    0    0  503  502  0.00000000000E+00  0.00000000000E+00  0.10602844227E+03  0.10602844227E+03  0.00000000000E+00 0.  1.
         21   -1    0    0  501  503 -0.00000000000E+00 -0.00000000000E+00 -0.13858772628E+03  0.13858772628E+03  0.00000000000E+00 0. -1.
         24    1    1    2    0    0  0.11128889317E+02  0.75620841885E+01  0.30577742789E+02  0.87081867246E+02  0.80419002446E+02 0.  0.
          1    1    1    2  501    0 -0.29810812459E+02 -0.16694425787E+02 -0.10520140373E+03  0.11061068547E+03  0.00000000000E+00 0. -1.
         -2    1    1    2    0  502  0.18681923142E+02  0.91323415986E+01  0.42064376940E+02  0.46923615832E+02  0.00000000000E+00 0.  1.
<mgrwt>
<rscale>  2 0.68249226E+02</rscale>
<asrwt>0</asrwt>
<pdfrwt beam="1">  1       21 0.16312068E-01 0.68249226E+02</pdfrwt>
<pdfrwt beam="2">  1       21 0.21321189E-01 0.68249226E+02</pdfrwt>
<totfact> 0.68876606E+05</totfact>
</mgrwt>
</event>
<event>
 5    1  0.1854763E+000  0.7036663E+02  0.7546771E-02  0.1358851E+00
         21   -1    0    0  503  502  0.00000000000E+00  0.00000000000E+00  0.12570785871E+04  0.12570785871E+04  0.00000000000E+00 0. -1.
         21   -1    0    0  501  503 -0.00000000000E+00 -0.00000000000E+00 -0.45378404582E+01  0.45378404582E+01  0.00000000000E+00 0. -1.
         24    1    1    2    0    0  0.31750322831E+02 -0.12865863528E+02  0.91819860183E+03  0.92234998877E+03  0.80419002446E+02 0. -1.
          1    1    1    2  501    0 -0.24375071948E+02 -0.12153992718E+02  0.10616617988E+03  0.10960438596E+03  0.00000000000E+00 0. -1.
         -2    1    1    2    0  502 -0.73752508829E+01  0.25019856246E+02  0.22817596490E+03  0.22966205278E+03  0.00000000000E+00 0.  1.
<mgrwt>
<rscale>  2 0.70366626E+02</rscale>
<asrwt>0</asrwt>
<pdfrwt beam="1">  1       21 0.19339643E+00 0.70366626E+02</pdfrwt>
<pdfrwt beam="2">  1       21 0.69813030E-03 0.70366626E+02</pdfrwt>
<totfact> 0.10153558E+06</totfact>
</mgrwt>
</event>
<event>
 5    1  0.1854763E+000  0.9366383E+02  0.7546771E-02  0.1294214E+00
         21   -1    0    0  503  502  0.00000000000E+00  0.00000000000E+00  0.11272739192E+04  0.11272739192E+04  0.00000000000E+00 0.  1.
         21   -1    0    0  501  503 -0.00000000000E+00 -0.00000000000E+00 -0.79320550252E+01  0.79320550252E+01  0.00000000000E+00 0.  1.
         24    1    1    2    0    0 -0.25460836050E+02 -0.40358814095E+02  0.63466805248E+03  0.64151994578E+03  0.80419002446E+02 0.  1.
          1    1    1    2  501    0 -0.29425196406E+02  0.99026027013E+01  0.17031795143E+03  0.17312454564E+03  0.00000000000E+00 0. -1.
         -2    1    1    2    0  502  0.54886032456E+02  0.30456211394E+02  0.31435586022E+03  0.32056148276E+03  0.00000000000E+00 0.  1.
<mgrwt>
<rscale>  2 0.93663829E+02</rscale>
<asrwt>0</asrwt>
<pdfrwt beam="1">  1       21 0.17342663E+00 0.93663829E+02</pdfrwt>
<pdfrwt beam="2">  1       21 0.12203171E-02 0.93663829E+02</pdfrwt>
<totfact> 0.56890817E+05</totfact>
</mgrwt>
</event>
<event>
 5    1  0.1854763E+000  0.6826228E+02  0.7546771E-02  0.1366104E+00
         21   -1    0    0  501  502  0.00000000000E+00  0.00000000000E+00  0.31667586397E+03  0.31667586397E+03  0.00000000000E+00 0. -1.
         21   -1    0    0  502  503 -0.00000000000E+00 -0.00000000000E+00 -0.81452234736E+02  0.81452234736E+02  0.00000000000E+00 0.  1.
         24    1    1    2    0    0 -0.18700412323E+02 -0.49998537547E+01 -0.84308384168E+01  0.83144446293E+02  0.80419002446E+02 0.  0.
          1    1    1    2  501    0  0.25051018286E+02 -0.17416261596E+02  0.27457678592E+03  0.27626670275E+03  0.00000000000E+00 0. -1.
         -2    1    1    2    0  503 -0.63506059633E+01  0.22416115350E+02 -0.30922318270E+02  0.38716949657E+02  0.00000000000E+00 0.  1.
<mgrwt>
<rscale>  2 0.68262277E+02</rscale>
<asrwt>0</asrwt>
<pdfrwt beam="1">  1       21 0.48719363E-01 0.68262277E+02</pdfrwt>
<pdfrwt beam="2">  1       21 0.12531113E-01 0.68262277E+02</pdfrwt>
<totfact> 0.22566048E+05</totfact>
</mgrwt>
</event>
<event>
 5    1  0.1854763E+000  0.9308968E+02  0.7546771E-02  0.1295537E+00
         21   -1    0    0  503  502  0.00000000000E+00  0.00000000000E+00  0.58460403234E+02  0.58460403234E+02  0.00000000000E+00 0.  1.
         21   -1    0    0  501  503 -0.00000000000E+00 -0.00000000000E+00 -0.59312368007E+03  0.59312368007E+03  0.00000000000E+00 0. -1.
         24    1    1    2    0    0 -0.37929884488E+02  0.35636083906E+02 -0.20863237453E+03  0.22957197187E+03  0.80419002446E+02 0. -1.
          1    1    1    2  501    0  0.31761075242E+02 -0.58576705943E+02 -0.36789337621E+03  0.37387903477E+03  0.00000000000E+00 0. -1.
         -2    1    1    2    0  502  0.61688092458E+01  0.22940622037E+02  0.41862473908E+02  0.48133076659E+02  0.00000000000E+00 0.  1.
<mgrwt>
<rscale>  2 0.93089683E+02</rscale>
<asrwt>0</asrwt>
<pdfrwt beam="1">  1       21 0.89939080E-02 0.93089683E+02</pdfrwt>
<pdfrwt beam="2">  1       21 0.91249799E-01 0.93089683E+02</pdfrwt>
<totfact> 0.10398485E+05</totfact>
</mgrwt>
</event>
<event>
 5    1  0.1854763E+000  0.9882448E+02  0.7546771E-02  0.1282787E+00
         21   -1    0    0  503  502  0.00000000000E+00  0.00000000000E+00  0.29243102263E+02  0.29243102263E+02  0.00000000000E+00 0. -1.
         21   -1    0    0  501  503 -0.00000000000E+00 -0.00000000000E+00 -0.55499705287E+03  0.55499705287E+03  0.00000000000E+00 0. -1.
         24    1    1    2    0    0 -0.26396285614E+02 -0.66648046847E+02 -0.22975513600E+03  0.25375847674E+03  0.80419002446E+02 0. -1.
          1    1    1    2  501    0 -0.25694075178E+01  0.60185364936E+02 -0.29468020046E+03  0.30077450116E+03  0.00000000000E+00 0. -1.
         -2    1    1    2    0  502  0.28965693132E+02  0.64626819113E+01 -0.13186141512E+01  0.29707177237E+02  0.00000000000E+00 0.  1.
<mgrwt>
<rscale>  2 0.98824481E+02</rscale>
<asrwt>0</asrwt>
<pdfrwt beam="1">  1       21 0.44989386E-02 0.98824481E+02</pdfrwt>
<pdfrwt beam="2">  1       21 0.85384166E-01 0.98824481E+02</pdfrwt>
<totfact> 0.38844653E+05</totfact>
</mgrwt>
</event>
<event>
 5    1  0.2199520E+000  0.9830590E+02  0.7546771E-02  0.1283899E+00
         21   -1    0    0  501  502  0.00000000000E+00  0.00000000000E+00  0.52737398457E+02  0.52737398457E+02  0.00000000000E+00 0. -1.
         21   -1    0    0  502  503 -0.00000000000E+00 -0.00000000000E+00 -0.10499412870E+04  0.10499412870E+04  0.00000000000E+00 0.  1.
         24    1    1    2    0    0 -0.28203788210E+02 -0.19800041143E+02 -0.41751656035E+02  0.96942828691E+02  0.80419002446E+02 0.  1.
          1    1    1    2  501    0  0.62287982689E+02 -0.10916926562E+02 -0.16088100244E+02  0.65251812561E+02  0.00000000000E+00 0. -1.
         -2    1    1    2    0  503 -0.34084194479E+02  0.30716967705E+02 -0.93936413231E+03  0.94048404425E+03  0.00000000000E+00 0.  1.
<mgrwt>
<rscale>  2 0.98305897E+02</rscale>
<asrwt>0</asrwt>
<pdfrwt beam="1">  1       21 0.81134465E-02 0.98305897E+02</pdfrwt>
<pdfrwt beam="2">  1       21 0.16152942E+00 0.98305897E+02</pdfrwt>
<totfact> 0.30898138E+04</totfact>
</mgrwt>
</event>
<event>
 5    1  0.2270402E+000  0.1289157E+03  0.7546771E-02  0.1229074E+00
         21   -1    0    0  501  502  0.00000000000E+00  0.00000000000E+00  0.13457742901E+03  0.13457742901E+03  0.00000000000E+00 0. -1.
         21   -1    0    0  502  503 -0.00000000000E+00 -0.00000000000E+00 -0.22504380467E+03  0.22504380467E+03  0.00000000000E+00 0.  1.
         24    1    1    2    0    0  0.24967745948E+02  0.61567658987E-01 -0.22639649260E+02  0.87196111159E+02  0.80419002446E+02 0. -1.
          1    1    1    2  501    0 -0.60467569220E+02 -0.71627937817E+02  0.67337510026E+02  0.11541762716E+03  0.00000000000E+00 0. -1.
         -2    1    1    2    0  503  0.35499823271E+02  0.71566370158E+02 -0.13516423643E+03  0.15700749536E+03  0.00000000000E+00 0.  1.
<mgrwt>
<rscale>  2 0.12891573E+03</rscale>
<asrwt>0</asrwt>
<pdfrwt beam="1">  1       21 0.20704220E-01 0.12891573E+03</pdfrwt>
<pdfrwt beam="2">  1       21 0.34622123E-01 0.12891573E+03</pdfrwt>
<totfact> 0.17724704E+05</totfact>
</mgrwt>
</event>
<event>
 5    1  0.1854763E+000  0.6578809E+02  0.7546771E-02  0.1375031E+00
         21   -1    0    0  501  502  0.00000000000E+00  0.00000000000E+00  0.32167156344E+03  0.32167156344E+03  0.00000000000E+00 0.  1.
         21   -1    0    0  502  503 -0.00000000000E+00 -0.00000000000E+00 -0.24518338552E+02  0.24518338552E+02  0.00000000000E+00 0. -1.
         24    1    1    2    0    0 -0.88012494153E+00 -0.82440597998E+01  0.11152151417E+03  0.13774252509E+03  0.80419002446E+02 0.  0.
          1    1    1    2  501    0  0.24302167580E+02 -0.34602766016E+01  0.17999850509E+03  0.18166461047E+03  0.00000000000E+00 0. -1.
         -2    1    1    2    0  503 -0.23422042638E+02  0.11704336401E+02  0.56332056311E+01  0.26782766430E+02  0.00000000000E+00 0.  1.
<mgrwt>
<rscale>  2 0.65788091E+02</rscale>
<asrwt>0</asrwt>
<pdfrwt beam="1">  1       21 0.49487930E-01 0.65788091E+02</pdfrwt>
<pdfrwt beam="2">  1       21 0.37720523E-02 0.65788091E+02</pdfrwt>
<totfact> 0.16453488E+06</totfact>
</mgrwt>
</event>
<event>
 5    1  0.1854763E+000  0.2377330E+03  0.7546771E-02  0.1121312E+00
         21   -1    0    0  501  502  0.00000000000E+00  0.00000000000E+00  0.57427426429E+03  0.57427426429E+03  0.00000000000E+00 0.  1.
         21   -1    0    0  502  503 -0.00000000000E+00 -0.00000000000E+00 -0.11556944212E+03  0.11556944212E+03  0.00000000000E+00 0.  1.
         24    1    1    2    0    0  0.91187363560E+02 -0.18604790835E+03  0.13176502381E+03  0.25837607654E+03  0.80419002446E+02 0.  1.
          1    1    1    2  501    0  0.18834071255E+02  0.12692075648E+03  0.25957589704E+03  0.28955698401E+03  0.00000000000E+00 0. -1.
         -2    1    1    2    0  503 -0.11002143481E+03  0.59127151867E+02  0.67363901320E+02  0.14191064586E+03  0.00000000000E+00 0.  1.
<mgrwt>
<rscale>  2 0.23773299E+03</rscale>
<asrwt>0</asrwt>
<pdfrwt beam="1">  1       21 0.88349885E-01 0.23773299E+03</pdfrwt>
<pdfrwt beam="2">  1       21 0.17779915E-01 0.23773299E+03</pdfrwt>
<totfact> 0.30755185E+04</totfact>
</mgrwt>
</event>
<event>
 5    1  0.1854763E+000  0.8128246E+02  0.7546771E-02  0.1325451E+00
         21   -1    0    0  501  502  0.00000000000E+00  0.00000000000E+00  0.12423550176E+03  0.12423550176E+03  0.00000000000E+00 0. -1.
         21   -1    0    0  502  503 -0.00000000000E+00 -0.00000000000E+00 -0.12831152394E+03  0.12831152394E+03  0.00000000000E+00 0. -1.
         24    1    1    2    0    0  0.12759875266E+02  0.59840919799E+02 -0.94523629297E+02  0.13836792457E+03  0.80419002446E+02 0. -1.
          1    1    1    2  501    0 -0.79705303905E+01 -0.22525839340E+02  0.63656775851E+02  0.67993587231E+02  0.00000000000E+00 0. -1.
         -2    1    1    2    0  503 -0.47893448753E+01 -0.37315080459E+02  0.26790831263E+02  0.46185513895E+02  0.00000000000E+00 0.  1.
<mgrwt>
<rscale>  2 0.81282456E+02</rscale>
<asrwt>0</asrwt>
<pdfrwt beam="1">  1       21 0.19113154E-01 0.81282456E+02</pdfrwt>
<pdfrwt beam="2">  1       21 0.19740234E-01 0.81282456E+02</pdfrwt>
<totfact> 0.59741165E+05</totfact>
</mgrwt>
</event>
<event>
 5    1  0.1854763E+000  0.7605486E+02  0.7546771E-02  0.1340635E+00
         21   -1    0    0  501  502  0.00000000000E+00  0.00000000000E+00  0.72554232939E+02  0.72554232939E+02  0.00000000000E+00 0.  1.
         21   -1    0    0  502  503 -0.00000000000E+00 -0.00000000000E+00 -0.86041084942E+02  0.86041084942E+02  0.00000000000E+00 0. -1.
         24    1    1    2    0    0  0.25047785739E+02  0.25629487944E+02 -0.39822512459E+01  0.88132494019E+02  0.80419002446E+02 0.  0.
          1    1    1    2  501    0 -0.40580284991E+02 -0.95052734981E+01  0.75007649566E+01  0.42348214002E+02  0.00000000000E+00 0. -1.
         -2    1    1    2    0  503  0.15532499252E+02 -0.16124214446E+02 -0.17005365714E+02  0.28114609860E+02  0.00000000000E+00 0.  1.
<mgrwt>
<rscale>  2 0.76054857E+02</rscale>
<asrwt>0</asrwt>
<pdfrwt beam="1">  1       21 0.11162190E-01 0.76054857E+02</pdfrwt>
<pdfrwt beam="2">  1       21 0.13237090E-01 0.76054857E+02</pdfrwt>
<totfact> 0.31667665E+06</totfact>
</mgrwt>
</event>
<event>
 5    1  0.1854763E+000  0.6947058E+02  0.7546771E-02  0.1361903E+00
         21   -1    0    0  503  502  0.00000000000E+00  0.00000000000E+00  0.30018370318E+02  0.30018370318E+02  0.00000000000E+00 0.  1.
         21   -1    0    0  501  503 -0.00000000000E+00 -0.00000000000E+00 -0.36686954827E+03  0.36686954827E+03  0.00000000000E+00 0. -1.
         24    1    1    2    0    0  0.32969284935E+00 -0.63722765440E+01 -0.80645636216E+02  0.11406861620E+03  0.80419002446E+02 0.  0.
          1    1    1    2  501    0 -0.22719024323E+02  0.21475163254E+02 -0.25378583234E+03  0.25570409735E+03  0.00000000000E+00 0. -1.
         -2    1    1    2    0  502  0.22389331474E+02 -0.15102886710E+02 -0.24197093890E+01  0.27115205040E+02  0.00000000000E+00 0.  1.
<mgrwt>
<rscale>  2 0.69470577E+02</rscale>
<asrwt>0</asrwt>
<pdfrwt beam="1">  1       21 0.46182110E-02 0.69470577E+02</pdfrwt>
<pdfrwt beam="2">  1       21 0.56441466E-01 0.69470577E+02</pdfrwt>
<totfact> 0.90498691E+05</totfact>
</mgrwt>
</event>
<event>
 5    1  0.1854763E+000  0.1541842E+03  0.7546771E-02  0.1195424E+00
         21   -1    0    0  501  502  0.00000000000E+00  0.00000000000E+00  0.32589050964E+02  0.32589050964E+02  0.00000000000E+00 0.  1.
         21   -1    0    0  502  503 -0.00000000000E+00 -0.00000000000E+00 -0.73183814882E+03  0.73183814882E+03  0.00000000000E+00 0.  1.
         24    1    1    2    0    0  0.34471469886E+02 -0.13735835057E+03 -0.35655975289E+03  0.39199192854E+03  0.80419002446E+02 0.  1.
          1    1    1    2  501    0 -0.25813019767E+02  0.38983497592E+02 -0.98536431371E+02  0.10906627976E+03  0.00000000000E+00 0. -1.
         -2    1    1    2    0  503 -0.86584501187E+01  0.98374852975E+02 -0.24415291359E+03  0.26336899148E+03  0.00000000000E+00 0.  1.
<mgrwt>
<rscale>  2 0.15418418E+03</rscale>
<asrwt>0</asrwt>
<pdfrwt beam="1">  1       21 0.50137007E-02 0.15418418E+03</pdfrwt>
<pdfrwt beam="2">  1       21 0.11259047E+00 0.15418418E+03</pdfrwt>
<totfact> 0.16762972E+05</totfact>
</mgrwt>
</event>
<event>
 5    1  0.1854763E+000  0.8245252E+02  0.7546771E-02  0.1322232E+00
         21   -1    0    0  501  502  0.00000000000E+00  0.00000000000E+00  0.56642786000E+01  0.56642786000E+01  0.00000000000E+00 0. -1.
         21   -1    0    0  502  503 -0.00000000000E+00 -0.00000000000E+00 -0.12536127920E+04  0.12536127920E+04  0.00000000000E+00 0. -1.
         24    1    1    2    0    0  0.48864864812E+02 -0.21633185547E+02 -0.60756668576E+03  0.61519124126E+03  0.80419002446E+02 0. -1.
          1    1    1    2  501    0 -0.46147332165E+02 -0.40022541744E+00 -0.38974260747E+03  0.39246533163E+03  0.00000000000E+00 0. -1.
         -2    1    1    2    0  503 -0.27175326474E+01  0.22033410964E+02 -0.25063922012E+03  0.25162049766E+03  0.00000000000E+00 0.  1.
<mgrwt>
<rscale>  2 0.82452521E+02</rscale>
<asrwt>0</asrwt>
<pdfrwt beam="1">  1       21 0.87142635E-03 0.82452521E+02</pdfrwt>
<pdfrwt beam="2">  1       21 0.19286376E+00 0.82452521E+02</pdfrwt>
<totfact> 0.72359141E+05</totfact>
</mgrwt>
</event>
<event>
 5    1  0.1854763E+000  0.1072786E+03  0.7546771E-02  0.1265694E+00
         21   -1    0    0  501  502  0.00000000000E+00  0.00000000000E+00  0.18400822707E+03  0.18400822707E+03  0.00000000000E+00 0. -1.
         21   -1    0    0  502  503 -0.00000000000E+00 -0.00000000000E+00 -0.10006979863E+03  0.10006979863E+03  0.00000000000E+00 0.  1.
         24    1    1    2    0    0  0.28034942479E+02 -0.10685334253E+01  0.29707912410E+02  0.90204632795E+02  0.80419002446E+02 0. -1.
          1    1    1    2  501    0 -0.44517492155E+02 -0.55106532070E+02  0.97895879722E+02  0.12083931583E+03  0.00000000000E+00 0. -1.
         -2    1    1    2    0  503  0.16482549676E+02  0.56175065495E+02 -0.43665363691E+02  0.73034077070E+02  0.00000000000E+00 0.  1.
<mgrwt>
<rscale>  2 0.10727858E+03</rscale>
<asrwt>0</asrwt>
<pdfrwt beam="1">  1       21 0.28308958E-01 0.10727858E+03</pdfrwt>
<pdfrwt beam="2">  1       21 0.15395354E-01 0.10727858E+03</pdfrwt>
<totfact> 0.45116692E+05</totfact>
</mgrwt>
</event>
<event>
 5    1  0.1854763E+000  0.1665048E+03  0.7546771E-02  0.1181543E+00
         21   -1    0    0  501  502  0.00000000000E+00  0.00000000000E+00  0.55421444900E+02  0.55421444900E+02  0.00000000000E+00 0.  1.
         21   -1    0    0  502  503 -0.00000000000E+00 -0.00000000000E+00 -0.51192169233E+03  0.51192169233E+03  0.00000000000E+00 0.  1.
         24    1    1    2    0    0 -0.13170886787E+03 -0.66783201734E+02 -0.24780242030E+03  0.29946698878E+03  0.80419002446E+02 0.  1.
          1    1    1    2  501    0  0.21503116746E+02 -0.16185297098E+02 -0.17473515381E+02  0.32088496563E+02  0.00000000000E+00 0. -1.
         -2    1    1    2    0  503  0.11020575112E+03  0.82968498832E+02 -0.19122431174E+03  0.23578765188E+03  0.00000000000E+00 0.  1.
<mgrwt>
<rscale>  2 0.16650484E+03</rscale>
<asrwt>0</asrwt>
<pdfrwt beam="1">  1       21 0.85263755E-02 0.16650484E+03</pdfrwt>
<pdfrwt beam="2">  1       21 0.78757189E-01 0.16650484E+03</pdfrwt>
<totfact> 0.15439352E+05</totfact>
</mgrwt>
</event>
<event>
 5    1  0.1854763E+000  0.6510005E+02  0.7546771E-02  0.1377596E+00
         21   -1    0    0  503  502  0.00000000000E+00  0.00000000000E+00  0.81164820846E+03  0.81164820846E+03  0.00000000000E+00 0.  1.
         21   -1    0    0  501  503 -0.00000000000E+00 -0.00000000000E+00 -0.65976282867E+01  0.65976282867E+01  0.00000000000E+00 0. -1.
         24    1    1    2    0    0  0.17762025367E+02  0.50650717454E+01  0.59414400271E+03  0.59984619396E+03  0.80419002446E+02 0.  1.
          1    1    1    2  501    0 -0.35848058691E+01 -0.23869597555E+02  0.47258576674E+02  0.53065823180E+02  0.00000000000E+00 0. -1.
         -2    1    1    2    0  502 -0.14177219498E+02  0.18804525809E+02  0.16364800079E+03  0.16533381961E+03  0.00000000000E+00 0.  1.
<mgrwt>
<rscale>  2 0.65100050E+02</rscale>
<asrwt>0</asrwt>
<pdfrwt beam="1">  1       21 0.12486888E+00 0.65100050E+02</pdfrwt>
<pdfrwt beam="2">  1       21 0.10150204E-02 0.65100050E+02</pdfrwt>
<totfact> 0.17405551E+06</totfact>
</mgrwt>
</event>
<event>
 5    1  0.1854763E+000  0.6358491E+02  0.7546771E-02  0.1383375E+00
         21   -1    0    0  501  502  0.00000000000E+00  0.00000000000E+00  0.72486952698E+02  0.72486952698E+02  0.00000000000E+00 0. -1.
         21   -1    0    0  502  503 -0.00000000000E+00 -0.00000000000E+00 -0.10600379354E+03  0.10600379354E+03  0.00000000000E+00 0.  1.
         24    1    1    2    0    0 -0.17347789342E+01  0.22286748186E+02 -0.11001253547E+02  0.84189976462E+02  0.80419002446E+02 0.  1.
          1    1    1    2  501    0  0.19662504081E+02 -0.11854638676E+02  0.30034646526E+02  0.37805112310E+02  0.00000000000E+00 0. -1.
         -2    1    1    2    0  503 -0.17927725147E+02 -0.10432109510E+02 -0.52550233816E+02  0.56495657461E+02  0.00000000000E+00 0.  1.
<mgrwt>
<rscale>  2 0.63584909E+02</rscale>
<asrwt>0</asrwt>
<pdfrwt beam="1">  1       21 0.11151839E-01 0.63584909E+02</pdfrwt>
<pdfrwt beam="2">  1       21 0.16308276E-01 0.63584909E+02</pdfrwt>
<totfact> 0.21701009E+06</totfact>
</mgrwt>
</event>
<event>
 5    1  0.1854763E+000  0.6415165E+02  0.7546771E-02  0.1381191E+00
         21   -1    0    0  501  502  0.00000000000E+00  0.00000000000E+00  0.50046456581E+03  0.50046456581E+03  0.00000000000E+00 0. -1.
         21   -1    0    0  502  503 -0.00000000000E+00 -0.00000000000E+00 -0.11187513150E+02  0.11187513150E+02  0.00000000000E+00 0.  1.
         24    1    1    2    0    0 -0.14794453778E+02  0.27947415614E+02  0.18526130219E+03  0.20442333513E+03  0.80419002446E+02 0.  1.
          1    1    1    2  501    0 -0.47473725716E+01 -0.20394886721E+02  0.20209823754E+03  0.20318018252E+03  0.00000000000E+00 0. -1.
         -2    1    1    2    0  503  0.19541826350E+02 -0.75525288934E+01  0.10191751292E+03  0.10404856130E+03  0.00000000000E+00 0.  1.
<mgrwt>
<rscale>  2 0.64151652E+02</rscale>
<asrwt>0</asrwt>
<pdfrwt beam="1">  1       21 0.76994531E-01 0.64151652E+02</pdfrwt>
<pdfrwt beam="2">  1       21 0.17211563E-02 0.64151652E+02</pdfrwt>
<totfact> 0.22911684E+06</totfact>
</mgrwt>
</event>
<event>
 5    1  0.1854763E+000  0.9782255E+02  0.7546771E-02  0.1284943E+00
         21   -1    0    0  503  502  0.00000000000E+00  0.00000000000E+00  0.43774160005E+03  0.43774160005E+03  0.00000000000E+00 0.  1.
         21   -1    0    0  501  503 -0.00000000000E+00 -0.00000000000E+00 -0.11557831707E+04  0.11557831707E+04  0.00000000000E+00 0. -1.
         24    1    1    2    0    0  0.58764029065E+02  0.25641789391E+02 -0.15824304114E+03  0.18872940549E+03  0.80419002446E+02 0.  0.
          1    1    1    2  501    0 -0.28478675555E+02  0.22244472384E+02 -0.98006286718E+03  0.98072884894E+03  0.00000000000E+00 0. -1.
         -2    1    1    2    0  502 -0.30285353509E+02 -0.47886261775E+02  0.42026433769E+03  0.42406651629E+03  0.00000000000E+00 0.  1.
<mgrwt>
<rscale>  2 0.97822552E+02</rscale>
<asrwt>0</asrwt>
<pdfrwt beam="1">  1       21 0.67344863E-01 0.97822552E+02</pdfrwt>
<pdfrwt beam="2">  1       21 0.17781279E+00 0.97822552E+02</pdfrwt>
<totfact> 0.44306294E+02</totfact>
</mgrwt>
</event>
<event>
 5    1  0.1854763E+000  0.8502245E+02  0.7546771E-02  0.1315374E+00
         21   -1    0    0  501  502  0.00000000000E+00  0.00000000000E+00  0.21928369165E+03  0.21928369165E+03  0.00000000000E+00 0. -1.
         21   -1    0    0  502  503 -0.00000000000E+00 -0.00000000000E+00 -0.34742237121E+02  0.34742237121E+02  0.00000000000E+00 0.  1.
         24    1    1    2    0    0  0.56930759135E+02 -0.17433621215E+02  0.10846733376E+03  0.14757174842E+03  0.80419002446E+02 0. -1.
          1    1    1    2  501    0 -0.10433693360E+02  0.20897849469E+02  0.44144973180E+02  0.49943575429E+02  0.00000000000E+00 0. -1.
         -2    1    1    2    0  503 -0.46497065775E+02 -0.34642282537E+01  0.31929147593E+02  0.56510604926E+02  0.00000000000E+00 0.  1.
<mgrwt>
<rscale>  2 0.85022454E+02</rscale>
<asrwt>0</asrwt>
<pdfrwt beam="1">  1       21 0.33735951E-01 0.85022454E+02</pdfrwt>
<pdfrwt beam="2">  1       21 0.53449597E-02 0.85022454E+02</pdfrwt>
<totfact> 0.19951009E+06</totfact>
</mgrwt>
</event>
<event>
 5    1  0.1854763E+000  0.6856530E+02  0.7546771E-02  0.1365041E+00
         21   -1    0    0  503  502  0.00000000000E+00  0.00000000000E+00  0.86775559160E+02  0.86775559160E+02  0.00000000000E+00 0.  1.
         21   -1    0    0  501  503 -0.00000000000E+00 -0.00000000000E+00 -0.11925083424E+03  0.11925083424E+03  0.00000000000E+00 0.  1.
         24    1    1    2    0    0  0.18434513329E+02 -0.32726741930E+02 -0.23276597254E+02  0.91759941440E+02  0.80419002446E+02 0.  1.
          1    1    1    2  501    0  0.10960679981E+01  0.28331864496E+02 -0.56328141768E+02  0.63061521279E+02  0.00000000000E+00 0. -1.
         -2    1    1    2    0  502 -0.19530581327E+02  0.43948774335E+01  0.47129463942E+02  0.51204930682E+02  0.00000000000E+00 0.  1.
<mgrwt>
<rscale>  2 0.68565300E+02</rscale>
<asrwt>0</asrwt>
<pdfrwt beam="1">  1       21 0.13350086E-01 0.68565300E+02</pdfrwt>
<pdfrwt beam="2">  1       21 0.18346282E-01 0.68565300E+02</pdfrwt>
<totfact> 0.12894726E+06</totfact>
</mgrwt>
</event>
<event>
 5    1  0.1854763E+000  0.8240400E+02  0.7546771E-02  0.1322364E+00
         21   -1    0    0  503  502  0.00000000000E+00  0.00000000000E+00  0.86749272362E+01  0.86749272362E+01  0.00000000000E+00 0.  1.
         21   -1    0    0  501  503 -0.00000000000E+00 -0.00000000000E+00 -0.14755798451E+04  0.14755798451E+04  0.00000000000E+00 0. -1.
         24    1    1    2    0    0  0.25425928129E+02 -0.38468099956E+02 -0.43532666000E+03  0.44508739523E+03  0.80419002446E+02 0.  1.
          1    1    1    2  501    0  0.17721085361E+02  0.13290787169E+02 -0.86442713815E+03  0.86471091069E+03  0.00000000000E+00 0. -1.
         -2    1    1    2    0  502 -0.43147013490E+02  0.25177312788E+02 -0.16715111970E+03  0.17445646640E+03  0.00000000000E+00 0.  1.
<mgrwt>
<rscale>  2 0.82404005E+02</rscale>
<asrwt>0</asrwt>
<pdfrwt beam="1">  1       21 0.13346035E-02 0.82404005E+02</pdfrwt>
<pdfrwt beam="2">  1       21 0.22701240E+00 0.82404005E+02</pdfrwt>
<totfact> 0.23220832E+05</totfact>
</mgrwt>
</event>
<event>
 5    1  0.1854763E+000  0.7161997E+02  0.7546771E-02  0.1354669E+00
         21   -1    0    0  503  502  0.00000000000E+00  0.00000000000E+00  0.85740215835E+03  0.85740215835E+03  0.00000000000E+00 0.  1.
         21   -1    0    0  501  503 -0.00000000000E+00 -0.00000000000E+00 -0.19281450289E+03  0.19281450289E+03  0.00000000000E+00 0.  1.
         24    1    1    2    0    0  0.17214594304E+02  0.45924552414E+02 -0.17515214257E+03  0.19887407013E+03  0.80419002446E+02 0.  1.
          1    1    1    2  501    0 -0.93659262592E+01 -0.24706878810E+02  0.25278302366E+02  0.36566966045E+02  0.00000000000E+00 0. -1.
         -2    1    1    2    0  502 -0.78486680444E+01 -0.21217673604E+02  0.81446149566E+03  0.81477562505E+03  0.00000000000E+00 0.  1.
<mgrwt>
<rscale>  2 0.71619970E+02</rscale>
<asrwt>0</asrwt>
<pdfrwt beam="1">  1       21 0.13190802E+00 0.71619970E+02</pdfrwt>
<pdfrwt beam="2">  1       21 0.29663770E-01 0.71619970E+02</pdfrwt>
<totfact> 0.52456135E+03</totfact>
</mgrwt>
</event>
<event>
 5    1  0.1854763E+000  0.6959512E+02  0.7546771E-02  0.1361475E+00
         21   -1    0    0  501  502  0.00000000000E+00  0.00000000000E+00  0.94474079666E+02  0.94474079666E+02  0.00000000000E+00 0.  1.
         21   -1    0    0  502  503 -0.00000000000E+00 -0.00000000000E+00 -0.86308052073E+02  0.86308052073E+02  0.00000000000E+00 0.  1.
         24    1    1    2    0    0  0.40400797060E+02  0.11878675991E+02  0.21698913928E+01  0.90803368491E+02  0.80419002446E+02 0.  0.
          1    1    1    2  501    0 -0.16523696532E+02 -0.17304992852E+02  0.40875005805E+02  0.47363080814E+02  0.00000000000E+00 0. -1.
         -2    1    1    2    0  503 -0.23877100528E+02  0.54263168611E+01 -0.34878869605E+02  0.42615682433E+02  0.00000000000E+00 0.  1.
<mgrwt>
<rscale>  2 0.69595122E+02</rscale>
<asrwt>0</asrwt>
<pdfrwt beam="1">  1       21 0.14534474E-01 0.69595122E+02</pdfrwt>
<pdfrwt beam="2">  1       21 0.13278162E-01 0.69595122E+02</pdfrwt>
<totfact> 0.19734620E+06</totfact>
</mgrwt>
</event>
<event>
 5    1  0.1854763E+000  0.7749098E+02  0.7546771E-02  0.1336326E+00
         21   -1    0    0  501  502  0.00000000000E+00  0.00000000000E+00  0.18809407126E+03  0.18809407126E+03  0.00000000000E+00 0.  1.
         21   -1    0    0  502  503 -0.00000000000E+00 -0.00000000000E+00 -0.82465366167E+02  0.82465366167E+02  0.00000000000E+00 0.  1.
         24    1    1    2    0    0  0.10302560214E+02  0.25551416754E+02  0.10370679191E+03  0.13409449015E+03  0.80419002446E+02 0.  1.
          1    1    1    2  501    0 -0.86287614472E+01  0.21358126044E+02  0.58546180688E+02  0.62914865854E+02  0.00000000000E+00 0. -1.
         -2    1    1    2    0  503 -0.16737987669E+01 -0.46909542798E+02 -0.56624267503E+02  0.73550081428E+02  0.00000000000E+00 0.  1.
<mgrwt>
<rscale>  2 0.77490976E+02</rscale>
<asrwt>0</asrwt>
<pdfrwt beam="1">  1       21 0.28937549E-01 0.77490976E+02</pdfrwt>
<pdfrwt beam="2">  1       21 0.12686979E-01 0.77490976E+02</pdfrwt>
<totfact> 0.61005039E+05</totfact>
</mgrwt>
</event>
<event>
 5    1  0.1854763E+000  0.9890941E+02  0.7546771E-02  0.1282606E+00
         21   -1    0    0  501  502  0.00000000000E+00  0.00000000000E+00  0.18995343666E+04  0.18995343666E+04  0.00000000000E+00 0. -1.
         21   -1    0    0  502  503 -0.00000000000E+00 -0.00000000000E+00 -0.62918404217E+01  0.62918404217E+01  0.00000000000E+00 0. -1.
         24    1    1    2    0    0  0.36053488315E+02  0.68423867011E+02  0.76049236395E+03  0.76863354804E+03  0.80419002446E+02 0. -1.
          1    1    1    2  501    0 -0.42016421644E+02 -0.42958611781E+02  0.10048871736E+04  0.10066822009E+04  0.00000000000E+00 0. -1.
         -2    1    1    2    0  503  0.59629333292E+01 -0.25465255230E+02  0.12786298864E+03  0.13051045806E+03  0.00000000000E+00 0.  1.
<mgrwt>
<rscale>  2 0.98909406E+02</rscale>
<asrwt>0</asrwt>
<pdfrwt beam="1">  1       21 0.29223560E+00 0.98909406E+02</pdfrwt>
<pdfrwt beam="2">  1       21 0.96797696E-03 0.98909406E+02</pdfrwt>
<totfact> 0.16320579E+05</totfact>
</mgrwt>
</event>
<event>
 5    1  0.1854763E+000  0.7258553E+02  0.7546771E-02  0.1351515E+00
         21   -1    0    0  501  502  0.00000000000E+00  0.00000000000E+00  0.60698875397E+03  0.60698875397E+03  0.00000000000E+00 0.  1.
         21   -1    0    0  502  503 -0.00000000000E+00 -0.00000000000E+00 -0.14080407396E+02  0.14080407396E+02  0.00000000000E+00 0. -1.
         24    1    1    2    0    0 -0.33805931032E+02  0.36064039700E+02  0.26954836545E+03  0.28559935785E+03  0.80419002446E+02 0. -1.
          1    1    1    2  501    0  0.93552164854E+01 -0.18298699249E+02  0.28891539802E+03  0.28964542061E+03  0.00000000000E+00 0. -1.
         -2    1    1    2    0  503  0.24450714547E+02 -0.17765340451E+02  0.34444583104E+02  0.45824382903E+02  0.00000000000E+00 0.  1.
<mgrwt>
<rscale>  2 0.72585532E+02</rscale>
<asrwt>0</asrwt>
<pdfrwt beam="1">  1       21 0.93382865E-01 0.72585532E+02</pdfrwt>
<pdfrwt beam="2">  1       21 0.21662170E-02 0.72585532E+02</pdfrwt>
<totfact> 0.10420459E+06</totfact>
</mgrwt>
</event>
<event>
 5    1  0.1854763E+000  0.1143370E+03  0.7546771E-02  0.1252743E+00
         21   -1    0    0  501  502  0.00000000000E+00  0.00000000000E+00  0.81703013143E+03  0.81703013143E+03  0.00000000000E+00 0. -1.
         21   -1    0    0  502  503 -0.00000000000E+00 -0.00000000000E+00 -0.29689448992E+02  0.29689448992E+02  0.00000000000E+00 0.  1.
         24    1    1    2    0    0 -0.57164251194E+02  0.15585681193E+02  0.19675376616E+03  0.22065793783E+03  0.80419002446E+02 0.  0.
          1    1    1    2  501    0  0.49653572588E+01 -0.60025696115E+02  0.53339171093E+03  0.53678157220E+03  0.00000000000E+00 0. -1.
         -2    1    1    2    0  503  0.52198893935E+02  0.44440014923E+02  0.57195205340E+02  0.89280070386E+02  0.00000000000E+00 0.  1.
<mgrwt>
<rscale>  2 0.11433699E+03</rscale>
<asrwt>0</asrwt>
<pdfrwt beam="1">  1       21 0.12569693E+00 0.11433699E+03</pdfrwt>
<pdfrwt beam="2">  1       21 0.45676082E-02 0.11433699E+03</pdfrwt>
<totfact> 0.15220679E+05</totfact>
</mgrwt>
</event>
<event>
 5    1  0.1854763E+000  0.1150783E+03  0.7546771E-02  0.1251445E+00
         21   -1    0    0  503  502  0.00000000000E+00  0.00000000000E+00  0.21585648930E+03  0.21585648930E+03  0.00000000000E+00 0. -1.
         21   -1    0    0  501  503 -0.00000000000E+00 -0.00000000000E+00 -0.76494315084E+02  0.76494315084E+02  0.00000000000E+00 0. -1.
         24    1    1    2    0    0 -0.95186313471E+02 -0.20086968873E+02  0.11234787191E+03  0.16897686489E+03  0.80419002446E+02 0. -1.
          1    1    1    2  501    0  0.56649873774E+02 -0.66437732027E+01 -0.16520846664E+02  0.59382542010E+02  0.00000000000E+00 0. -1.
         -2    1    1    2    0  502  0.38536439696E+02  0.26730742076E+02  0.43535148973E+02  0.63991397488E+02  0.00000000000E+00 0.  1.
<mgrwt>
<rscale>  2 0.11507826E+03</rscale>
<asrwt>0</asrwt>
<pdfrwt beam="1">  1       21 0.33208690E-01 0.11507826E+03</pdfrwt>
<pdfrwt beam="2">  1       21 0.11768356E-01 0.11507826E+03</pdfrwt>
<totfact> 0.53495948E+05</totfact>
</mgrwt>
</event>
<event>
 5    1  0.1854763E+000  0.8562163E+02  0.7546771E-02  0.1313815E+00
         21   -1    0    0  501  502  0.00000000000E+00  0.00000000000E+00  0.13127954435E+03  0.13127954435E+03  0.00000000000E+00 0. -1.
         21   -1    0    0  502  503 -0.00000000000E+00 -0.00000000000E+00 -0.60819920732E+02  0.60819920732E+02  0.00000000000E+00 0.  1.
         24    1    1    2    0    0 -0.40457164303E+01 -0.32594847689E+02  0.42429688980E+02  0.96676193443E+02  0.80419002446E+02 0.  1.
          1    1    1    2  501    0 -0.33471624758E+02 -0.17423300889E+01  0.29344748860E+02  0.44547723440E+02  0.00000000000E+00 0. -1.
         -2    1    1    2    0  503  0.37517341188E+02  0.34337177778E+02 -0.13148142259E+01  0.50875548194E+02  0.00000000000E+00 0.  1.
<mgrwt>
<rscale>  2 0.85621629E+02</rscale>
<asrwt>0</asrwt>
<pdfrwt beam="1">  1       21 0.20196853E-01 0.85621629E+02</pdfrwt>
<pdfrwt beam="2">  1       21 0.93569109E-02 0.85621629E+02</pdfrwt>
<totfact> 0.20264026E+06</totfact>
</mgrwt>
</event>
<event>
 5    1  0.1854763E+000  0.1219875E+03  0.7546771E-02  0.1239854E+00
         21   -1    0    0  503  502  0.00000000000E+00  0.00000000000E+00  0.55610083566E+02  0.55610083566E+02  0.00000000000E+00 0.  1.
         21   -1    0    0  501  503 -0.00000000000E+00 -0.00000000000E+00 -0.46592409067E+03  0.46592409067E+03  0.00000000000E+00 0. -1.
         24    1    1    2    0    0  0.52137876474E+02  0.95328778920E+02 -0.56126873708E+02  0.14636726465E+03  0.80419002446E+02 0.  1.
          1    1    1    2  501    0 -0.25738853255E+02 -0.52827348756E+02 -0.27712807413E+03  0.28328993419E+03  0.00000000000E+00 0. -1.
         -2    1    1    2    0  502 -0.26399023219E+02 -0.42501430164E+02 -0.77059059263E+02  0.91876975393E+02  0.00000000000E+00 0.  1.
<mgrwt>
<rscale>  2 0.12198754E+03</rscale>
<asrwt>0</asrwt>
<pdfrwt beam="1">  1       21 0.85553977E-02 0.12198754E+03</pdfrwt>
<pdfrwt beam="2">  1       21 0.71680627E-01 0.12198754E+03</pdfrwt>
<totfact> 0.19170037E+05</totfact>
</mgrwt>
</event>
<event>
 5    1  0.1854763E+000  0.7152426E+02  0.7546771E-02  0.1354985E+00
         21   -1    0    0  501  502  0.00000000000E+00  0.00000000000E+00  0.12140953085E+03  0.12140953085E+03  0.00000000000E+00 0. -1.
         21   -1    0    0  502  503 -0.00000000000E+00 -0.00000000000E+00 -0.81295876279E+02  0.81295876279E+02  0.00000000000E+00 0.  1.
         24    1    1    2    0    0  0.46399878622E+02  0.48863434966E+01 -0.19491474549E+02  0.94994518912E+02  0.80419002446E+02 0.  1.
          1    1    1    2  501    0 -0.26295148080E+02  0.63396934282E+01  0.75189186561E+02  0.79906447181E+02  0.00000000000E+00 0. -1.
         -2    1    1    2    0  503 -0.20104730542E+02 -0.11226036925E+02 -0.15584057439E+02  0.27804441039E+02  0.00000000000E+00 0.  1.
<mgrwt>
<rscale>  2 0.71524263E+02</rscale>
<asrwt>0</asrwt>
<pdfrwt beam="1">  1       21 0.18678389E-01 0.71524263E+02</pdfrwt>
<pdfrwt beam="2">  1       21 0.12507058E-01 0.71524263E+02</pdfrwt>
<totfact> 0.14017979E+06</totfact>
</mgrwt>
</event>
<event>
 5    1  0.1854763E+000  0.7804866E+02  0.7546771E-02  0.1334682E+00
         21   -1    0    0  503  502  0.00000000000E+00  0.00000000000E+00  0.45857381860E+03  0.45857381860E+03  0.00000000000E+00 0.  1.
         21   -1    0    0  501  503 -0.00000000000E+00 -0.00000000000E+00 -0.17652902101E+02  0.17652902101E+02  0.00000000000E+00 0. -1.
         24    1    1    2    0    0  0.17792689308E+02  0.58326380601E+01  0.23038129291E+03  0.24473119036E+03  0.80419002446E+02 0.  1.
          1    1    1    2  501    0  0.17319192392E+02 -0.27331117416E+02  0.23529916132E+02  0.40007516263E+02  0.00000000000E+00 0. -1.
         -2    1    1    2    0  502 -0.35111881701E+02  0.21498479356E+02  0.18700970745E+03  0.19148801407E+03  0.00000000000E+00 0.  1.
<mgrwt>
<rscale>  2 0.78048656E+02</rscale>
<asrwt>0</asrwt>
<pdfrwt beam="1">  1       21 0.70549809E-01 0.78048656E+02</pdfrwt>
<pdfrwt beam="2">  1       21 0.27158314E-02 0.78048656E+02</pdfrwt>
<totfact> 0.13469402E+06</totfact>
</mgrwt>
</event>
<event>
 5    1  0.1854763E+000  0.1377904E+03  0.7546771E-02  0.1216333E+00
         21   -1    0    0  503  502  0.00000000000E+00  0.00000000000E+00  0.11777570531E+04  0.11777570531E+04  0.00000000000E+00 0.  1.
         21   -1    0    0  501  503 -0.00000000000E+00 -0.00000000000E+00 -0.65709125528E+02  0.65709125528E+02  0.00000000000E+00 0.  1.
         24    1    1    2    0    0 -0.80932704611E+02 -0.62345146654E+02  0.22936153776E+03  0.26364929536E+03  0.80419002446E+02 0.  1.
          1    1    1    2  501    0  0.47605596983E+02 -0.23781177571E+02 -0.30926085314E+02  0.61548842586E+02  0.00000000000E+00 0. -1.
         -2    1    1    2    0  502  0.33327107628E+02  0.86126324225E+02  0.91361247511E+03  0.91826804066E+03  0.00000000000E+00 0.  1.
<mgrwt>
<rscale>  2 0.13779043E+03</rscale>
<asrwt>0</asrwt>
<pdfrwt beam="1">  1       21 0.18119338E+00 0.13779043E+03</pdfrwt>
<pdfrwt beam="2">  1       21 0.10109097E-01 0.13779043E+03</pdfrwt>
<totfact> 0.14884079E+04</totfact>
</mgrwt>
</event>
<event>
 5    1  0.1854763E+000  0.1123001E+03  0.7546771E-02  0.1256369E+00
         21   -1    0    0  503  502  0.00000000000E+00  0.00000000000E+00  0.19968960451E+03  0.19968960451E+03  0.00000000000E+00 0.  1.
         21   -1    0    0  501  503 -0.00000000000E+00 -0.00000000000E+00 -0.68388718143E+02  0.68388718143E+02  0.00000000000E+00 0.  1.
         24    1    1    2    0    0 -0.36924754140E+02 -0.45587262728E+02  0.94585265408E+02  0.13731432692E+03  0.80419002446E+02 0.  1.
          1    1    1    2  501    0 -0.38448309815E+02  0.31962418696E+01  0.16471903777E+02  0.41950114466E+02  0.00000000000E+00 0. -1.
         -2    1    1    2    0  502  0.75373063954E+02  0.42391020858E+02  0.20243717178E+02  0.88813881260E+02  0.00000000000E+00 0.  1.
<mgrwt>
<rscale>  2 0.11230007E+03</rscale>
<asrwt>0</asrwt>
<pdfrwt beam="1">  1       21 0.30721478E-01 0.11230007E+03</pdfrwt>
<pdfrwt beam="2">  1       21 0.10521341E-01 0.11230007E+03</pdfrwt>
<totfact> 0.75725653E+05</totfact>
</mgrwt>
</event>
<event>
 5    1  0.1854763E+000  0.1309493E+03  0.7546771E-02  0.1226054E+00
         21   -1    0    0  501  502  0.00000000000E+00  0.00000000000E+00  0.54040402999E+03  0.54040402999E+03  0.00000000000E+00 0.  1.
         21   -1    0    0  502  503 -0.00000000000E+00 -0.00000000000E+00 -0.17265705728E+03  0.17265705728E+03  0.00000000000E+00 0.  1.
         24    1    1    2    0    0 -0.14527592426E+02  0.43942830638E+02  0.38340251400E+03  0.39447018519E+03  0.80419002446E+02 0.  1.
          1    1    1    2  501    0  0.78276868941E+02 -0.65240381201E+02  0.12585153150E+03  0.16193265122E+03  0.00000000000E+00 0. -1.
         -2    1    1    2    0  503 -0.63749276514E+02  0.21297550563E+02 -0.14150707278E+03  0.15665825087E+03  0.00000000000E+00 0.  1.
<mgrwt>
<rscale>  2 0.13094929E+03</rscale>
<asrwt>0</asrwt>
<pdfrwt beam="1">  1       21 0.83139081E-01 0.13094929E+03</pdfrwt>
<pdfrwt beam="2">  1       21 0.26562624E-01 0.13094929E+03</pdfrwt>
<totfact> 0.17725538E+04</totfact>
</mgrwt>
</event>
<event>
 5    1  0.1854763E+000  0.7493984E+02  0.7546771E-02  0.1344057E+00
         21   -1    0    0  501  502  0.00000000000E+00  0.00000000000E+00  0.29741864991E+02  0.29741864991E+02  0.00000000000E+00 0. -1.
         21   -1    0    0  502  503 -0.00000000000E+00 -0.00000000000E+00 -0.24638434932E+03  0.24638434932E+03  0.00000000000E+00 0.  1.
         24    1    1    2    0    0 -0.12712421472E+02 -0.54079463752E+01 -0.11163844441E+03  0.13827946257E+03  0.80419002446E+02 0.  1.
          1    1    1    2  501    0  0.40202087756E+02 -0.31642947071E+00 -0.13939396846E+02  0.42551319274E+02  0.00000000000E+00 0. -1.
         -2    1    1    2    0  503 -0.27489666284E+02  0.57243758459E+01 -0.91064643077E+02  0.95295432471E+02  0.00000000000E+00 0.  1.
<mgrwt>
<rscale>  2 0.74939836E+02</rscale>
<asrwt>0</asrwt>
<pdfrwt beam="1">  1       21 0.45756714E-02 0.74939836E+02</pdfrwt>
<pdfrwt beam="2">  1       21 0.37905285E-01 0.74939836E+02</pdfrwt>
<totfact> 0.20478077E+06</totfact>
</mgrwt>
</event>
<event>
 5    1  0.1854763E+000  0.8637843E+02  0.7546771E-02  0.1311867E+00
         21   -1    0    0  503  502  0.00000000000E+00  0.00000000000E+00  0.21919876662E+02  0.21919876662E+02  0.00000000000E+00 0. -1.
         21   -1    0    0  501  503 -0.00000000000E+00 -0.00000000000E+00 -0.39509030371E+03  0.39509030371E+03  0.00000000000E+00 0. -1.
         24    1    1    2    0    0 -0.56136320494E+02 -0.36121584315E+02 -0.19859149424E+03  0.22441446671E+03  0.80419002446E+02 0. -1.
          1    1    1    2  501    0  0.35569533193E+02  0.30667434442E+02 -0.16013183946E+03  0.16687686849E+03  0.00000000000E+00 0. -1.
         -2    1    1    2    0  502  0.20566787301E+02  0.54541498726E+01 -0.14447093346E+02  0.25718845170E+02  0.00000000000E+00 0.  1.
<mgrwt>
<rscale>  2 0.86378428E+02</rscale>
<asrwt>0</asrwt>
<pdfrwt beam="1">  1       21 0.33722887E-02 0.86378428E+02</pdfrwt>
<pdfrwt beam="2">  1       21 0.60783124E-01 0.86378428E+02</pdfrwt>
<totfact> 0.13046735E+06</totfact>
</mgrwt>
</event>
<event>
 5    1  0.1854763E+000  0.8626587E+02  0.7546771E-02  0.1312155E+00
         21   -1    0    0  503  502  0.00000000000E+00  0.00000000000E+00  0.16470423550E+03  0.16470423550E+03  0.00000000000E+00 0.  1.
         21   -1    0    0  501  503 -0.00000000000E+00 -0.00000000000E+00 -0.70171966506E+02  0.70171966506E+02  0.00000000000E+00 0.  1.
         24    1    1    2    0    0 -0.36139976451E+01  0.67426987691E+02  0.38989725161E+02  0.11201283083E+03  0.80419002446E+02 0.  1.
          1    1    1    2  501    0  0.11683355610E+01 -0.21828980462E+02 -0.23176087984E+02  0.31859071710E+02  0.00000000000E+00 0. -1.
         -2    1    1    2    0  502  0.24456620840E+01 -0.45598007229E+02  0.78718631821E+02  0.91004299470E+02  0.00000000000E+00 0.  1.
<mgrwt>
<rscale>  2 0.86265875E+02</rscale>
<asrwt>0</asrwt>
<pdfrwt beam="1">  1       21 0.25339113E-01 0.86265875E+02</pdfrwt>
<pdfrwt beam="2">  1       21 0.10795687E-01 0.86265875E+02</pdfrwt>
<totfact> 0.10400849E+06</totfact>
</mgrwt>
</event>
<event>
 5    1  0.1854763E+000  0.1392327E+03  0.7546771E-02  0.1214365E+00
         21   -1    0    0  501  502  0.00000000000E+00  0.00000000000E+00  0.36496584012E+03  0.36496584012E+03  0.00000000000E+00 0. -1.
         21   -1    0    0  502  503 -0.00000000000E+00 -0.00000000000E+00 -0.24947299896E+03  0.24947299896E+03  0.00000000000E+00 0.  1.
         24    1    1    2    0    0  0.61494533891E+01  0.78482906986E+02  0.59129081070E+02  0.12712531868E+03  0.80419002446E+02 0. -1.
          1    1    1    2  501    0 -0.42481278908E+02 -0.10994536716E+03  0.25607584940E+03  0.28189977557E+03  0.00000000000E+00 0. -1.
         -2    1    1    2    0  503  0.36331825519E+02  0.31462460172E+02 -0.19971208932E+03  0.20541374483E+03  0.00000000000E+00 0.  1.
<mgrwt>
<rscale>  2 0.13923272E+03</rscale>
<asrwt>0</asrwt>
<pdfrwt beam="1">  1       21 0.56148591E-01 0.13923272E+03</pdfrwt>
<pdfrwt beam="2">  1       21 0.38380461E-01 0.13923272E+03</pdfrwt>
<totfact> 0.20219929E+04</totfact>
</mgrwt>
</event>
<event>
 5    1  0.1854763E+000  0.7853387E+02  0.7546771E-02  0.1333264E+00
         21   -1    0    0  501  502  0.00000000000E+00  0.00000000000E+00  0.12461030744E+03  0.12461030744E+03  0.00000000000E+00 0.  1.
         21   -1    0    0  502  503 -0.00000000000E+00 -0.00000000000E+00 -0.80456895884E+02  0.80456895884E+02  0.00000000000E+00 0.  1.
         24    1    1    2    0    0 -0.24718399423E+02 -0.15060344721E+02  0.79288486302E+02  0.11658341764E+03  0.80419002446E+02 0.  1.
          1    1    1    2  501    0 -0.21713340650E+02 -0.27107741037E+01  0.73541012009E+01  0.23084632614E+02  0.00000000000E+00 0. -1.
         -2    1    1    2    0  503  0.46431740073E+02  0.17771118825E+02 -0.42489175945E+02  0.65399153076E+02  0.00000000000E+00 0.  1.
<mgrwt>
<rscale>  2 0.78533874E+02</rscale>
<asrwt>0</asrwt>
<pdfrwt beam="1">  1       21 0.19170817E-01 0.78533874E+02</pdfrwt>
<pdfrwt beam="2">  1       21 0.12377984E-01 0.78533874E+02</pdfrwt>
<totfact> 0.13663555E+06</totfact>
</mgrwt>
</event>
<event>
 5    1  0.1854763E+000  0.1091798E+03  0.7546771E-02  0.1262096E+00
         21   -1    0    0  503  502  0.00000000000E+00  0.00000000000E+00  0.15624081548E+03  0.15624081548E+03  0.00000000000E+00 0.  1.
         21   -1    0    0  501  503 -0.00000000000E+00 -0.00000000000E+00 -0.97814984764E+02  0.97814984764E+02  0.00000000000E+00 0.  1.
         24    1    1    2    0    0 -0.92015191187E+02 -0.12998489086E+02 -0.10870707621E+02  0.12337400199E+03  0.80419002446E+02 0.  1.
          1    1    1    2  501    0  0.75400781001E+02  0.17866240138E+01  0.20847173960E+02  0.78250076442E+02  0.00000000000E+00 0. -1.
         -2    1    1    2    0  502  0.16614410185E+02  0.11211865072E+02  0.48449364375E+02  0.52431721815E+02  0.00000000000E+00 0.  1.
<mgrwt>
<rscale>  2 0.10917983E+03</rscale>
<asrwt>0</asrwt>
<pdfrwt beam="1">  1       21 0.24037049E-01 0.10917983E+03</pdfrwt>
<pdfrwt beam="2">  1       21 0.15048459E-01 0.10917983E+03</pdfrwt>
<totfact> 0.64024407E+05</totfact>
</mgrwt>
</event>
<event>
 5    1  0.1854763E+000  0.8833360E+02  0.7546771E-02  0.1306938E+00
         21   -1    0    0  501  502  0.00000000000E+00  0.00000000000E+00  0.16582437056E+02  0.16582437056E+02  0.00000000000E+00 0. -1.
         21   -1    0    0  502  503 -0.00000000000E+00 -0.00000000000E+00 -0.48099548815E+03  0.48099548815E+03  0.00000000000E+00 0.  1.
         24    1    1    2    0    0 -0.30129177684E+02 -0.39252311268E+02 -0.27194917863E+03  0.28787511702E+03  0.80419002446E+02 0.  0.
          1    1    1    2  501    0  0.11859083869E+02 -0.18330581009E+02 -0.37690032992E+02  0.43556706226E+02  0.00000000000E+00 0. -1.
         -2    1    1    2    0  503  0.18270093814E+02  0.57582892277E+02 -0.15477383947E+03  0.16614610195E+03  0.00000000000E+00 0.  1.
<mgrwt>
<rscale>  2 0.88333601E+02</rscale>
<asrwt>0</asrwt>
<pdfrwt beam="1">  1       21 0.25511447E-02 0.88333601E+02</pdfrwt>
<pdfrwt beam="2">  1       21 0.73999291E-01 0.88333601E+02</pdfrwt>
<totfact> 0.13477080E+06</totfact>
</mgrwt>
</event>
<event>
 5    1  0.1854763E+000  0.6646723E+02  0.7546771E-02  0.1372536E+00
         21   -1    0    0  501  502  0.00000000000E+00  0.00000000000E+00  0.28820149337E+04  0.28820149337E+04  0.00000000000E+00 0.  1.
         21   -1    0    0  502  503 -0.00000000000E+00 -0.00000000000E+00 -0.44471775751E+01  0.44471775751E+01  0.00000000000E+00 0.  1.
         24    1    1    2    0    0 -0.25980692258E+02 -0.42806187539E+01  0.12060585773E+04  0.12090235018E+04  0.80419002446E+02 0.  1.
          1    1    1    2  501    0  0.18637267422E+02 -0.17355061895E+02  0.16288249799E+04  0.16290240518E+04  0.00000000000E+00 0. -1.
         -2    1    1    2    0  503  0.73434248364E+01  0.21635680649E+02  0.42684198905E+02  0.48414557744E+02  0.00000000000E+00 0.  1.
<mgrwt>
<rscale>  2 0.66467230E+02</rscale>
<asrwt>0</asrwt>
<pdfrwt beam="1">  1       21 0.44338542E+00 0.66467230E+02</pdfrwt>
<pdfrwt beam="2">  1       21 0.68418347E-03 0.66467230E+02</pdfrwt>
<totfact> 0.40289804E+04</totfact>
</mgrwt>
</event>
<event>
 5    1  0.1854763E+000  0.6401257E+02  0.7546771E-02  0.1381725E+00
         21   -1    0    0  503  502  0.00000000000E+00  0.00000000000E+00  0.88215081796E+02  0.88215081796E+02  0.00000000000E+00 0. -1.
         21   -1    0    0  501  503 -0.00000000000E+00 -0.00000000000E+00 -0.56986791660E+02  0.56986791660E+02  0.00000000000E+00 0.  1.
         24    1    1    2    0    0 -0.81694558641E+01 -0.10400201400E+02  0.36039695031E+02  0.89112175210E+02  0.80419002446E+02 0. -1.
          1    1    1    2  501    0  0.12619064966E+02 -0.15646957951E+02 -0.17614320999E+02  0.26726997549E+02  0.00000000000E+00 0. -1.
         -2    1    1    2    0  502 -0.44496091018E+01  0.26047159351E+02  0.12802916104E+02  0.29362700696E+02  0.00000000000E+00 0.  1.
<mgrwt>
<rscale>  2 0.64012568E+02</rscale>
<asrwt>0</asrwt>
<pdfrwt beam="1">  1       21 0.13571551E-01 0.64012568E+02</pdfrwt>
<pdfrwt beam="2">  1       21 0.87671988E-02 0.64012568E+02</pdfrwt>
<totfact> 0.45358486E+06</totfact>
</mgrwt>
</event>
<event>
 5    1  0.1854763E+000  0.8627000E+02  0.7546771E-02  0.1312144E+00
         21   -1    0    0  501  502  0.00000000000E+00  0.00000000000E+00  0.57003298677E+02  0.57003298677E+02  0.00000000000E+00 0.  1.
         21   -1    0    0  502  503 -0.00000000000E+00 -0.00000000000E+00 -0.31937582966E+03  0.31937582966E+03  0.00000000000E+00 0.  1.
         24    1    1    2    0    0 -0.26490198364E+02 -0.66724926069E+01 -0.34503982982E+02  0.91673297982E+02  0.80419002446E+02 0.  1.
          1    1    1    2  501    0  0.51411874426E+02 -0.16074217776E+02  0.48957337251E+00  0.53868367259E+02  0.00000000000E+00 0. -1.
         -2    1    1    2    0  503 -0.24921676062E+02  0.22746710383E+02 -0.22835812137E+03  0.23083746309E+03  0.00000000000E+00 0.  1.
<mgrwt>
<rscale>  2 0.86269996E+02</rscale>
<asrwt>0</asrwt>
<pdfrwt beam="1">  1       21 0.87697383E-02 0.86269996E+02</pdfrwt>
<pdfrwt beam="2">  1       21 0.49134743E-01 0.86269996E+02</pdfrwt>
<totfact> 0.41021669E+05</totfact>
</mgrwt>
</event>
<event>
 5    1  0.1854763E+000  0.8396964E+02  0.7546771E-02  0.1318149E+00
         21   -1    0    0  503  502  0.00000000000E+00  0.00000000000E+00  0.25195183663E+03  0.25195183663E+03  0.00000000000E+00 0.  1.
         21   -1    0    0  501  503 -0.00000000000E+00 -0.00000000000E+00 -0.35976033099E+02  0.35976033099E+02  0.00000000000E+00 0. -1.
         24    1    1    2    0    0 -0.29589531270E+02 -0.28072534554E+02  0.87372547957E+02  0.12555789759E+03  0.80419002446E+02 0. -1.
          1    1    1    2  501    0  0.29997277104E+02  0.48667290973E+02  0.36127771462E+02  0.67628083775E+02  0.00000000000E+00 0. -1.
         -2    1    1    2    0  502 -0.40774583374E+00 -0.20594756419E+02  0.92475484112E+02  0.94741888362E+02  0.00000000000E+00 0.  1.
<mgrwt>
<rscale>  2 0.83969643E+02</rscale>
<asrwt>0</asrwt>
<pdfrwt beam="1">  1       21 0.38761820E-01 0.83969643E+02</pdfrwt>
<pdfrwt beam="2">  1       21 0.55347745E-02 0.83969643E+02</pdfrwt>
<totfact> 0.14353383E+06</totfact>
</mgrwt>
</event>
<event>
 5    1  0.1854763E+000  0.1241376E+03  0.7546771E-02  0.1236423E+00
         21   -1    0    0  503  502  0.00000000000E+00  0.00000000000E+00  0.24704176705E+03  0.24704176705E+03  0.00000000000E+00 0.  1.
         21   -1    0    0  501  503 -0.00000000000E+00 -0.00000000000E+00 -0.11079562309E+03  0.11079562309E+03  0.00000000000E+00 0. -1.
         24    1    1    2    0    0 -0.14761747070E+02 -0.72289002134E+02  0.84865569941E+02  0.13824973751E+03  0.80419002446E+02 0.  0.
          1    1    1    2  501    0 -0.42112580970E+02  0.70639842787E+02 -0.55007015220E+02  0.98940530564E+02  0.00000000000E+00 0. -1.
         -2    1    1    2    0  502  0.56874328040E+02  0.16491593468E+01  0.10638758925E+03  0.12064712206E+03  0.00000000000E+00 0.  1.
<mgrwt>
<rscale>  2 0.12413760E+03</rscale>
<asrwt>0</asrwt>
<pdfrwt beam="1">  1       21 0.38006426E-01 0.12413760E+03</pdfrwt>
<pdfrwt beam="2">  1       21 0.17045480E-01 0.12413760E+03</pdfrwt>
<totfact> 0.21105877E+05</totfact>
</mgrwt>
</event>
<event>
 5    1  0.1854763E+000  0.8728916E+02  0.7546771E-02  0.1309552E+00
         21   -1    0    0  501  502  0.00000000000E+00  0.00000000000E+00  0.33153179134E+02  0.33153179134E+02  0.00000000000E+00 0. -1.
         21   -1    0    0  502  503 -0.00000000000E+00 -0.00000000000E+00 -0.36148990355E+03  0.36148990355E+03  0.00000000000E+00 0.  1.
         24    1    1    2    0    0 -0.43037954426E+02  0.51562458500E+02 -0.11490521909E+03  0.15550362689E+03  0.80419002446E+02 0. -1.
          1    1    1    2  501    0  0.10896108536E+02 -0.27712349147E+02 -0.94097308910E+01  0.31228873049E+02  0.00000000000E+00 0. -1.
         -2    1    1    2    0  503  0.32141845890E+02 -0.23850109353E+02 -0.20402177443E+03  0.20791058274E+03  0.00000000000E+00 0.  1.
<mgrwt>
<rscale>  2 0.87289161E+02</rscale>
<asrwt>0</asrwt>
<pdfrwt beam="1">  1       21 0.51004892E-02 0.87289161E+02</pdfrwt>
<pdfrwt beam="2">  1       21 0.55613830E-01 0.87289161E+02</pdfrwt>
<totfact> 0.79454735E+05</totfact>
</mgrwt>
</event>
<event>
 5    1  0.1854763E+000  0.6610966E+02  0.7546771E-02  0.1373845E+00
         21   -1    0    0  501  502  0.00000000000E+00  0.00000000000E+00  0.15350233471E+02  0.15350233471E+02  0.00000000000E+00 0. -1.
         21   -1    0    0  502  503 -0.00000000000E+00 -0.00000000000E+00 -0.10252337398E+04  0.10252337398E+04  0.00000000000E+00 0. -1.
         24    1    1    2    0    0  0.11980409817E+00  0.22629173333E+01 -0.89080317809E+03  0.89442867419E+03  0.80419002446E+02 0. -1.
          1    1    1    2  501    0  0.23397950320E+02  0.97643519705E+01 -0.12326805117E+01  0.25383580319E+02  0.00000000000E+00 0. -1.
         -2    1    1    2    0  503 -0.23517754418E+02 -0.12027269304E+02 -0.11784764773E+03  0.12077171877E+03  0.00000000000E+00 0.  1.
<mgrwt>
<rscale>  2 0.66109662E+02</rscale>
<asrwt>0</asrwt>
<pdfrwt beam="1">  1       21 0.23615745E-02 0.66109662E+02</pdfrwt>
<pdfrwt beam="2">  1       21 0.15772826E+00 0.66109662E+02</pdfrwt>
<totfact> 0.25903575E+05</totfact>
</mgrwt>
</event>
<event>
 5    1  0.1854763E+000  0.1088702E+03  0.7546771E-02  0.1262676E+00
         21   -1    0    0  503  502  0.00000000000E+00  0.00000000000E+00  0.13347360531E+04  0.13347360531E+04  0.00000000000E+00 0.  1.
         21   -1    0    0  501  503 -0.00000000000E+00 -0.00000000000E+00 -0.10096378254E+02  0.10096378254E+02  0.00000000000E+00 0. -1.
         24    1    1    2    0    0 -0.12959766802E+01 -0.97906906121E+01  0.42260675450E+03  0.43030363940E+03  0.80419002446E+02 0. -1.
          1    1    1    2  501    0  0.91398908874E+01 -0.62922209083E+02  0.23331531693E+03  0.24182385969E+03  0.00000000000E+00 0. -1.
         -2    1    1    2    0  502 -0.78439142072E+01  0.72712899695E+02  0.66871760343E+03  0.67270493227E+03  0.00000000000E+00 0.  1.
<mgrwt>
<rscale>  2 0.10887024E+03</rscale>
<asrwt>0</asrwt>
<pdfrwt beam="1">  1       21 0.20534387E+00 0.10887024E+03</pdfrwt>
<pdfrwt beam="2">  1       21 0.15532900E-02 0.10887024E+03</pdfrwt>
<totfact> 0.24063129E+05</totfact>
</mgrwt>
</event>
<event>
 5    1  0.1854763E+000  0.7238526E+02  0.7546771E-02  0.1352165E+00
         21   -1    0    0  501  502  0.00000000000E+00  0.00000000000E+00  0.91356852572E+02  0.91356852572E+02  0.00000000000E+00 0. -1.
         21   -1    0    0  502  503 -0.00000000000E+00 -0.00000000000E+00 -0.73098378114E+02  0.73098378114E+02  0.00000000000E+00 0. -1.
         24    1    1    2    0    0 -0.73001102475E+01  0.17206935524E+02 -0.18960444249E+02  0.84711773917E+02  0.80419002446E+02 0. -1.
          1    1    1    2  501    0 -0.23531256220E+02 -0.20490400157E+02  0.37439479029E+02  0.48736958336E+02  0.00000000000E+00 0. -1.
         -2    1    1    2    0  503  0.30831366467E+02  0.32834646326E+01 -0.22056032195E+00  0.31006498433E+02  0.00000000000E+00 0.  1.
<mgrwt>
<rscale>  2 0.72385261E+02</rscale>
<asrwt>0</asrwt>
<pdfrwt beam="1">  1       21 0.14054900E-01 0.72385261E+02</pdfrwt>
<pdfrwt beam="2">  1       21 0.11245904E-01 0.72385261E+02</pdfrwt>
<totfact> 0.28040903E+06</totfact>
</mgrwt>
</event>
<event>
 5    1  0.1854763E+000  0.6959776E+02  0.7546771E-02  0.1361466E+00
         21   -1    0    0  501  502  0.00000000000E+00  0.00000000000E+00  0.11231270065E+03  0.11231270065E+03  0.00000000000E+00 0.  1.
         21   -1    0    0  502  503 -0.00000000000E+00 -0.00000000000E+00 -0.60447830452E+02  0.60447830452E+02  0.00000000000E+00 0.  1.
         24    1    1    2    0    0  0.77936862161E+01  0.15350275533E+02  0.67328191184E+02  0.10628581178E+03  0.80419002446E+02 0.  1.
          1    1    1    2  501    0  0.22467284520E+02 -0.14385537226E+02  0.83512512947E+01  0.27954712539E+02  0.00000000000E+00 0. -1.
         -2    1    1    2    0  503 -0.30260970736E+02 -0.96473830660E+00 -0.23814572277E+02  0.38520006783E+02  0.00000000000E+00 0.  1.
<mgrwt>
<rscale>  2 0.69597756E+02</rscale>
<asrwt>0</asrwt>
<pdfrwt beam="1">  1       21 0.17278877E-01 0.69597756E+02</pdfrwt>
<pdfrwt beam="2">  1       21 0.92996662E-02 0.69597756E+02</pdfrwt>
<totfact> 0.26884975E+06</totfact>
</mgrwt>
</event>
<event>
 5    1  0.1854763E+000  0.9946117E+02  0.7546771E-02  0.1281433E+00
         21   -1    0    0  501  502  0.00000000000E+00  0.00000000000E+00  0.13257422363E+02  0.13257422363E+02  0.00000000000E+00 0.  1.
         21   -1    0    0  502  503 -0.00000000000E+00 -0.00000000000E+00 -0.79290612456E+03  0.79290612456E+03  0.00000000000E+00 0. -1.
         24    1    1    2    0    0 -0.47821016885E+01 -0.26283549879E+02 -0.29602262117E+03  0.30791281508E+03  0.80419002446E+02 0.  1.
          1    1    1    2  501    0 -0.27781279352E+02  0.60728506613E+02 -0.20448217411E+03  0.21511092610E+03  0.00000000000E+00 0. -1.
         -2    1    1    2    0  503  0.32563381041E+02 -0.34444956734E+02 -0.27914390691E+03  0.28313980574E+03  0.00000000000E+00 0.  1.
<mgrwt>
<rscale>  2 0.99461170E+02</rscale>
<asrwt>0</asrwt>
<pdfrwt beam="1">  1       21 0.20396043E-02 0.99461170E+02</pdfrwt>
<pdfrwt beam="2">  1       21 0.12198550E+00 0.99461170E+02</pdfrwt>
<totfact> 0.61443083E+05</totfact>
</mgrwt>
</event>
<event>
 5    1  0.1854763E+000  0.1048138E+03  0.7546771E-02  0.1270487E+00
         21   -1    0    0  501  502  0.00000000000E+00  0.00000000000E+00  0.30607616182E+02  0.30607616182E+02  0.00000000000E+00 0.  1.
         21   -1    0    0  502  503 -0.00000000000E+00 -0.00000000000E+00 -0.39217149707E+03  0.39217149707E+03  0.00000000000E+00 0.  1.
         24    1    1    2    0    0 -0.78129111718E+02  0.13876302572E+02 -0.22076084599E+03  0.24799047754E+03  0.80419002446E+02 0.  1.
          1    1    1    2  501    0  0.14647367429E+02  0.19925610101E+02 -0.12515707785E+02  0.27716750384E+02  0.00000000000E+00 0. -1.
         -2    1    1    2    0  503  0.63481744289E+02 -0.33801912673E+02 -0.12828732711E+03  0.14707188534E+03  0.00000000000E+00 0.  1.
<mgrwt>
<rscale>  2 0.10481385E+03</rscale>
<asrwt>0</asrwt>
<pdfrwt beam="1">  1       21 0.47088639E-02 0.10481385E+03</pdfrwt>
<pdfrwt beam="2">  1       21 0.60334079E-01 0.10481385E+03</pdfrwt>
<totfact> 0.76626999E+05</totfact>
</mgrwt>
</event>
<event>
 5    1  0.1854763E+000  0.7763804E+02  0.7546771E-02  0.1335891E+00
         21   -1    0    0  503  502  0.00000000000E+00  0.00000000000E+00  0.25946796954E+02  0.25946796954E+02  0.00000000000E+00 0.  1.
         21   -1    0    0  501  503 -0.00000000000E+00 -0.00000000000E+00 -0.55139896080E+03  0.55139896080E+03  0.00000000000E+00 0.  1.
         24    1    1    2    0    0 -0.16445284752E+02  0.51666233093E+02 -0.45997104147E+03  0.47008554751E+03  0.80419002446E+02 0.  1.
          1    1    1    2  501    0  0.20029075006E+02 -0.28440249078E+02 -0.74394959154E+02  0.82125644964E+02  0.00000000000E+00 0. -1.
         -2    1    1    2    0  502 -0.35837902545E+01 -0.23225984015E+02  0.89138367721E+01  0.25134565285E+02  0.00000000000E+00 0.  1.
<mgrwt>
<rscale>  2 0.77638042E+02</rscale>
<asrwt>0</asrwt>
<pdfrwt beam="1">  1       21 0.39918149E-02 0.77638042E+02</pdfrwt>
<pdfrwt beam="2">  1       21 0.84830610E-01 0.77638042E+02</pdfrwt>
<totfact> 0.48128890E+05</totfact>
</mgrwt>
</event>
<event>
 5    1  0.1854763E+000  0.7037465E+02  0.7546771E-02  0.1358824E+00
         21   -1    0    0  501  502  0.00000000000E+00  0.00000000000E+00  0.23052426596E+03  0.23052426596E+03  0.00000000000E+00 0.  1.
         21   -1    0    0  502  503 -0.00000000000E+00 -0.00000000000E+00 -0.40673873903E+02  0.40673873903E+02  0.00000000000E+00 0.  1.
         24    1    1    2    0    0 -0.91359042404E+01 -0.15097292710E+02  0.11575736055E+03  0.14205060883E+03  0.80419002446E+02 0.  1.
          1    1    1    2  501    0 -0.13221613902E+02 -0.15594704083E+02  0.86746230485E+02  0.89123029419E+02  0.00000000000E+00 0. -1.
         -2    1    1    2    0  503  0.22357518142E+02  0.30691996793E+02 -0.12653198981E+02  0.40024501609E+02  0.00000000000E+00 0.  1.
<mgrwt>
<rscale>  2 0.70374648E+02</rscale>
<asrwt>0</asrwt>
<pdfrwt beam="1">  1       21 0.35465271E-01 0.70374648E+02</pdfrwt>
<pdfrwt beam="2">  1       21 0.62575192E-02 0.70374648E+02</pdfrwt>
<totfact> 0.13822362E+06</totfact>
</mgrwt>
</event>
<event>
 5    1  0.1854763E+000  0.7703032E+02  0.7546771E-02  0.1337697E+00
         21   -1    0    0  501  502  0.00000000000E+00  0.00000000000E+00  0.28842199117E+02  0.28842199117E+02  0.00000000000E+00 0. -1.
         21   -1    0    0  502  503 -0.00000000000E+00 -0.00000000000E+00 -0.56512644597E+03  0.56512644597E+03  0.00000000000E+00 0.  1.
         24    1    1    2    0    0 -0.29466070186E+01 -0.38425460261E+02 -0.50149118304E+03  0.50935824438E+03  0.80419002446E+02 0.  1.
          1    1    1    2  501    0 -0.22299117735E+02  0.47548632165E+01  0.84064262611E+01  0.24300769092E+02  0.00000000000E+00 0. -1.
         -2    1    1    2    0  503  0.25245724754E+02  0.33670597045E+02 -0.43199490070E+02  0.60309631619E+02  0.00000000000E+00 0.  1.
<mgrwt>
<rscale>  2 0.77030324E+02</rscale>
<asrwt>0</asrwt>
<pdfrwt beam="1">  1       21 0.44372616E-02 0.77030324E+02</pdfrwt>
<pdfrwt beam="2">  1       21 0.86942526E-01 0.77030324E+02</pdfrwt>
<totfact> 0.38294448E+05</totfact>
</mgrwt>
</event>
<event>
 5    1  0.1854763E+000  0.1513891E+03  0.7546771E-02  0.1198776E+00
         21   -1    0    0  503  502  0.00000000000E+00  0.00000000000E+00  0.20166501843E+03  0.20166501843E+03  0.00000000000E+00 0.  1.
         21   -1    0    0  501  503 -0.00000000000E+00 -0.00000000000E+00 -0.11457491514E+03  0.11457491514E+03  0.00000000000E+00 0.  1.
         24    1    1    2    0    0 -0.24807298723E+02  0.67576709548E+02  0.26933370981E+02  0.11124134200E+03  0.80419002446E+02 0.  1.
          1    1    1    2  501    0 -0.78622973039E+02 -0.20782062981E+02  0.14337873252E+02  0.82577482649E+02  0.00000000000E+00 0. -1.
         -2    1    1    2    0  502  0.10343027176E+03 -0.46794646567E+02  0.45818859053E+02  0.12242110892E+03  0.00000000000E+00 0.  1.
<mgrwt>
<rscale>  2 0.15138910E+03</rscale>
<asrwt>0</asrwt>
<pdfrwt beam="1">  1       21 0.31025387E-01 0.15138910E+03</pdfrwt>
<pdfrwt beam="2">  1       21 0.17626910E-01 0.15138910E+03</pdfrwt>
<totfact> 0.29396302E+05</totfact>
</mgrwt>
</event>
<event>
 5    1  0.1854763E+000  0.7390074E+02  0.7546771E-02  0.1347309E+00
         21   -1    0    0  503  502  0.00000000000E+00  0.00000000000E+00  0.23174490165E+02  0.23174490165E+02  0.00000000000E+00 0.  1.
         21   -1    0    0  501  503 -0.00000000000E+00 -0.00000000000E+00 -0.28461006247E+03  0.28461006247E+03  0.00000000000E+00 0. -1.
         24    1    1    2    0    0  0.54216690245E+01 -0.20182024903E+02 -0.90645911348E+02  0.12296587259E+03  0.80419002446E+02 0.  1.
          1    1    1    2  501    0  0.10743772212E+02  0.38680623110E+02 -0.13877247532E+03  0.14446251816E+03  0.00000000000E+00 0. -1.
         -2    1    1    2    0  502 -0.16165441236E+02 -0.18498598207E+02 -0.32017185636E+02  0.40356161884E+02  0.00000000000E+00 0.  1.
<mgrwt>
<rscale>  2 0.73900736E+02</rscale>
<asrwt>0</asrwt>
<pdfrwt beam="1">  1       21 0.35653059E-02 0.73900736E+02</pdfrwt>
<pdfrwt beam="2">  1       21 0.43786167E-01 0.73900736E+02</pdfrwt>
<totfact> 0.23174334E+06</totfact>
</mgrwt>
</event>
<event>
 5    1  0.1854763E+000  0.1222397E+03  0.7546771E-02  0.1239447E+00
         21   -1    0    0  501  502  0.00000000000E+00  0.00000000000E+00  0.42460429139E+02  0.42460429139E+02  0.00000000000E+00 0. -1.
         21   -1    0    0  502  503 -0.00000000000E+00 -0.00000000000E+00 -0.50282484803E+03  0.50282484803E+03  0.00000000000E+00 0.  1.
         24    1    1    2    0    0 -0.27024186714E+02 -0.10378215067E+03 -0.24237643564E+03  0.27697399512E+03  0.80419002446E+02 0. -1.
          1    1    1    2  501    0  0.11601543647E+02  0.86483413287E+02 -0.53831898233E+02  0.10252731273E+03  0.00000000000E+00 0. -1.
         -2    1    1    2    0  503  0.15422643067E+02  0.17298737379E+02 -0.16415608502E+03  0.16578396932E+03  0.00000000000E+00 0.  1.
<mgrwt>
<rscale>  2 0.12223967E+03</rscale>
<asrwt>0</asrwt>
<pdfrwt beam="1">  1       21 0.65323736E-02 0.12223967E+03</pdfrwt>
<pdfrwt beam="2">  1       21 0.77357671E-01 0.12223967E+03</pdfrwt>
<totfact> 0.25743591E+05</totfact>
</mgrwt>
</event>
<event>
 5    1  0.1854763E+000  0.6381822E+02  0.7546771E-02  0.1382473E+00
         21   -1    0    0  501  502  0.00000000000E+00  0.00000000000E+00  0.41156358008E+03  0.41156358008E+03  0.00000000000E+00 0. -1.
         21   -1    0    0  502  503 -0.00000000000E+00 -0.00000000000E+00 -0.83670747771E+02  0.83670747771E+02  0.00000000000E+00 0. -1.
         24    1    1    2    0    0 -0.12874516281E+02  0.11525443400E+02 -0.32979269094E+02  0.88619620623E+02  0.80419002446E+02 0. -1.
          1    1    1    2  501    0  0.20064671717E+02  0.10192239434E+02  0.37760267383E+03  0.37827272183E+03  0.00000000000E+00 0. -1.
         -2    1    1    2    0  503 -0.71901554354E+01 -0.21717682834E+02 -0.16730572425E+02  0.28341985402E+02  0.00000000000E+00 0.  1.
<mgrwt>
<rscale>  2 0.63818220E+02</rscale>
<asrwt>0</asrwt>
<pdfrwt beam="1">  1       21 0.63317473E-01 0.63818220E+02</pdfrwt>
<pdfrwt beam="2">  1       21 0.12872423E-01 0.63818220E+02</pdfrwt>
<totfact> 0.12586765E+05</totfact>
</mgrwt>
</event>
<event>
 5    1  0.1854763E+000  0.1855448E+03  0.7546771E-02  0.1162542E+00
         21   -1    0    0  503  502  0.00000000000E+00  0.00000000000E+00  0.84362519827E+02  0.84362519827E+02  0.00000000000E+00 0.  1.
         21   -1    0    0  501  503 -0.00000000000E+00 -0.00000000000E+00 -0.74000894828E+03  0.74000894828E+03  0.00000000000E+00 0. -1.
         24    1    1    2    0    0  0.14503157152E+03 -0.18913497572E+02 -0.50347476250E+03  0.53042052144E+03  0.80419002446E+02 0.  0.
          1    1    1    2  501    0  0.28966973418E+02 -0.13888617073E+01 -0.11001196436E+03  0.11377014893E+03  0.00000000000E+00 0. -1.
         -2    1    1    2    0  502 -0.17399854494E+03  0.20302359279E+02 -0.42159701584E+02  0.18018079773E+03  0.00000000000E+00 0.  1.
<mgrwt>
<rscale>  2 0.18554484E+03</rscale>
<asrwt>0</asrwt>
<pdfrwt beam="1">  1       21 0.12978849E-01 0.18554484E+03</pdfrwt>
<pdfrwt beam="2">  1       21 0.11384753E+00 0.18554484E+03</pdfrwt>
<totfact> 0.30754655E+04</totfact>
</mgrwt>
</event>
<event>
 5    1  0.1854763E+000  0.9650206E+02  0.7546771E-02  0.1287828E+00
         21   -1    0    0  503  502  0.00000000000E+00  0.00000000000E+00  0.46907479101E+03  0.46907479101E+03  0.00000000000E+00 0.  1.
         21   -1    0    0  501  503 -0.00000000000E+00 -0.00000000000E+00 -0.88552433433E+02  0.88552433433E+02  0.00000000000E+00 0.  1.
         24    1    1    2    0    0  0.58420817127E+02 -0.20879720253E+02 -0.37528202451E+02  0.10827989899E+03  0.80419002446E+02 0.  1.
          1    1    1    2  501    0  0.12593664595E+02  0.15848747616E+02 -0.45864176438E+01  0.20756165728E+02  0.00000000000E+00 0. -1.
         -2    1    1    2    0  502 -0.71014481721E+02  0.50309726373E+01  0.42263697767E+03  0.42859115973E+03  0.00000000000E+00 0.  1.
<mgrwt>
<rscale>  2 0.96502060E+02</rscale>
<asrwt>0</asrwt>
<pdfrwt beam="1">  1       21 0.72165351E-01 0.96502060E+02</pdfrwt>
<pdfrwt beam="2">  1       21 0.13623452E-01 0.96502060E+02</pdfrwt>
<totfact> 0.84556771E+04</totfact>
</mgrwt>
</event>
<event>
 5    1  0.1854763E+000  0.7606714E+02  0.7546771E-02  0.1340598E+00
         21   -1    0    0  503  502  0.00000000000E+00  0.00000000000E+00  0.64181090062E+03  0.64181090062E+03  0.00000000000E+00 0.  1.
         21   -1    0    0  501  503 -0.00000000000E+00 -0.00000000000E+00 -0.11794054415E+02  0.11794054415E+02  0.00000000000E+00 0. -1.
         24    1    1    2    0    0 -0.11213698143E+02  0.17774846243E+01  0.17296799124E+03  0.19108649461E+03  0.80419002446E+02 0. -1.
          1    1    1    2  501    0 -0.21697277486E+02 -0.23108810476E+02  0.20239568203E+03  0.20486288360E+03  0.00000000000E+00 0. -1.
         -2    1    1    2    0  502  0.32910975629E+02  0.21331325852E+02  0.25465317294E+03  0.25765557682E+03  0.00000000000E+00 0.  1.
<mgrwt>
<rscale>  2 0.76067138E+02</rscale>
<asrwt>0</asrwt>
<pdfrwt beam="1">  1       21 0.98740111E-01 0.76067138E+02</pdfrwt>
<pdfrwt beam="2">  1       21 0.18144704E-02 0.76067138E+02</pdfrwt>
<totfact> 0.12179045E+06</totfact>
</mgrwt>
</event>
<event>
 5    1  0.1854763E+000  0.9790268E+02  0.7546771E-02  0.1284769E+00
         21   -1    0    0  501  502  0.00000000000E+00  0.00000000000E+00  0.83325190655E+02  0.83325190655E+02  0.00000000000E+00 0. -1.
         21   -1    0    0  502  503 -0.00000000000E+00 -0.00000000000E+00 -0.33137573843E+03  0.33137573843E+03  0.00000000000E+00 0.  1.
         24    1    1    2    0    0  0.64374424526E+02 -0.33747513813E+02 -0.28511007580E+03  0.30502120008E+03  0.80419002446E+02 0.  1.
          1    1    1    2  501    0 -0.32354746595E+02 -0.93852512952E+01  0.44106931122E+02  0.55500756230E+02  0.00000000000E+00 0. -1.
         -2    1    1    2    0  503 -0.32019677931E+02  0.43132765108E+02 -0.70474031003E+01  0.54178972776E+02  0.00000000000E+00 0.  1.
<mgrwt>
<rscale>  2 0.97902682E+02</rscale>
<asrwt>0</asrwt>
<pdfrwt beam="1">  1       21 0.12819260E-01 0.97902682E+02</pdfrwt>
<pdfrwt beam="2">  1       21 0.50980883E-01 0.97902682E+02</pdfrwt>
<totfact> 0.19599718E+05</totfact>
</mgrwt>
</event>
<event>
 5    1  0.1854763E+000  0.8742110E+02  0.7546771E-02  0.1309220E+00
         21   -1    0    0  503  502  0.00000000000E+00  0.00000000000E+00  0.44228889055E+03  0.44228889055E+03  0.00000000000E+00 0. -1.
         21   -1    0    0  501  503 -0.00000000000E+00 -0.00000000000E+00 -0.43066863078E+02  0.43066863078E+02  0.00000000000E+00 0. -1.
         24    1    1    2    0    0 -0.37059232666E+02  0.45960970749E+02  0.11476073037E+03  0.15206261456E+03  0.80419002446E+02 0.  0.
          1    1    1    2  501    0  0.12709930712E+02 -0.48924455603E+02  0.28639638050E+01  0.50629507043E+02  0.00000000000E+00 0. -1.
         -2    1    1    2    0  502  0.24349301954E+02  0.29634848541E+01  0.28159733330E+03  0.28266363203E+03  0.00000000000E+00 0.  1.
<mgrwt>
<rscale>  2 0.87421104E+02</rscale>
<asrwt>0</asrwt>
<pdfrwt beam="1">  1       21 0.68044441E-01 0.87421104E+02</pdfrwt>
<pdfrwt beam="2">  1       21 0.66256716E-02 0.87421104E+02</pdfrwt>
<totfact> 0.33496474E+05</totfact>
</mgrwt>
</event>
<event>
 5    1  0.1854763E+000  0.1064891E+03  0.7546771E-02  0.1267213E+00
         21   -1    0    0  503  502  0.00000000000E+00  0.00000000000E+00  0.47382163174E+02  0.47382163174E+02  0.00000000000E+00 0. -1.
         21   -1    0    0  501  503 -0.00000000000E+00 -0.00000000000E+00 -0.57587494320E+03  0.57587494320E+03  0.00000000000E+00 0.  1.
         24    1    1    2    0    0  0.74788134261E+02 -0.21303627169E+02 -0.54623897942E+02  0.12449134804E+03  0.80419002446E+02 0. -1.
          1    1    1    2  501    0  0.49016347831E+01  0.20851386592E+02 -0.35506042385E+03  0.35570593322E+03  0.00000000000E+00 0. -1.
         -2    1    1    2    0  502 -0.79689769044E+02  0.45224057698E+00 -0.11880845823E+03  0.14305982511E+03  0.00000000000E+00 0.  1.
<mgrwt>
<rscale>  2 0.10648913E+03</rscale>
<asrwt>0</asrwt>
<pdfrwt beam="1">  1       21 0.72895639E-02 0.10648913E+03</pdfrwt>
<pdfrwt beam="2">  1       21 0.88596141E-01 0.10648913E+03</pdfrwt>
<totfact> 0.15837474E+05</totfact>
</mgrwt>
</event>
<event>
 5    1  0.1854763E+000  0.1324245E+03  0.7546771E-02  0.1223902E+00
         21   -1    0    0  503  502  0.00000000000E+00  0.00000000000E+00  0.16901868724E+02  0.16901868724E+02  0.00000000000E+00 0. -1.
         21   -1    0    0  501  503 -0.00000000000E+00 -0.00000000000E+00 -0.12757400739E+04  0.12757400739E+04  0.00000000000E+00 0. -1.
         24    1    1    2    0    0  0.96600874342E+02 -0.16417739478E+02 -0.81684219200E+03  0.82661941284E+03  0.80419002446E+02 0. -1.
          1    1    1    2  501    0 -0.11349038862E+03  0.28868712730E+02 -0.41824779527E+03  0.43433246383E+03  0.00000000000E+00 0. -1.
         -2    1    1    2    0  502  0.16889514282E+02 -0.12450973252E+02 -0.23748217946E+02  0.31690066002E+02  0.00000000000E+00 0.  1.
<mgrwt>
<rscale>  2 0.13242449E+03</rscale>
<asrwt>0</asrwt>
<pdfrwt beam="1">  1       21 0.26002879E-02 0.13242449E+03</pdfrwt>
<pdfrwt beam="2">  1       21 0.19626768E+00 0.13242449E+03</pdfrwt>
<totfact> 0.11773858E+05</totfact>
</mgrwt>
</event>
<event>
 5    1  0.1854763E+000  0.1275359E+03  0.7546771E-02  0.1231158E+00
         21   -1    0    0  503  502  0.00000000000E+00  0.00000000000E+00  0.70199776602E+03  0.70199776602E+03  0.00000000000E+00 0. -1.
         21   -1    0    0  501  503 -0.00000000000E+00 -0.00000000000E+00 -0.33098034611E+02  0.33098034611E+02  0.00000000000E+00 0.  1.
         24    1    1    2    0    0 -0.83137955961E+02 -0.41668433356E+02  0.50628483079E+03  0.52099877534E+03  0.80419002446E+02 0. -1.
          1    1    1    2  501    0  0.16883618271E+02 -0.30063028252E+02  0.16171354881E+02  0.38083525996E+02  0.00000000000E+00 0. -1.
         -2    1    1    2    0  502  0.66254337689E+02  0.71731461608E+02  0.14644354574E+03  0.17601349930E+03  0.00000000000E+00 0.  1.
<mgrwt>
<rscale>  2 0.12753590E+03</rscale>
<asrwt>0</asrwt>
<pdfrwt beam="1">  1       21 0.10799964E+00 0.12753590E+03</pdfrwt>
<pdfrwt beam="2">  1       21 0.50920059E-02 0.12753590E+03</pdfrwt>
<totfact> 0.18209973E+05</totfact>
</mgrwt>
</event>
<event>
 5    1  0.1854763E+000  0.1811455E+03  0.7546771E-02  0.1166699E+00
         21   -1    0    0  501  502  0.00000000000E+00  0.00000000000E+00  0.63464753795E+02  0.63464753795E+02  0.00000000000E+00 0.  1.
         21   -1    0    0  502  503 -0.00000000000E+00 -0.00000000000E+00 -0.74709895650E+03  0.74709895650E+03  0.00000000000E+00 0.  1.
         24    1    1    2    0    0  0.13155266274E+02  0.10026697529E+03 -0.13487144443E+03  0.18677272243E+03  0.80419002446E+02 0.  1.
          1    1    1    2  501    0 -0.98980018274E+02  0.27312356993E+01 -0.57369680031E+02  0.11443681162E+03  0.00000000000E+00 0. -1.
         -2    1    1    2    0  503  0.85824752001E+02 -0.10299821099E+03 -0.49139307824E+03  0.50935417625E+03  0.00000000000E+00 0.  1.
<mgrwt>
<rscale>  2 0.18114552E+03</rscale>
<asrwt>0</asrwt>
<pdfrwt beam="1">  1       21 0.97638084E-02 0.18114552E+03</pdfrwt>
<pdfrwt beam="2">  1       21 0.11493830E+00 0.18114552E+03</pdfrwt>
<totfact> 0.49981633E+04</totfact>
</mgrwt>
</event>
<event>
 5    1  0.1854763E+000  0.1679281E+03  0.7546771E-02  0.1180026E+00
         21   -1    0    0  503  502  0.00000000000E+00  0.00000000000E+00  0.77155682298E+03  0.77155682298E+03  0.00000000000E+00 0. -1.
         21   -1    0    0  501  503 -0.00000000000E+00 -0.00000000000E+00 -0.11853609964E+03  0.11853609964E+03  0.00000000000E+00 0. -1.
         24    1    1    2    0    0 -0.21617331895E+02 -0.11051505798E+03  0.10155725209E+03  0.17164491978E+03  0.80419002446E+02 0.  0.
          1    1    1    2  501    0 -0.14099657894E+02  0.14626600673E+03 -0.16836618093E+02  0.14790543191E+03  0.00000000000E+00 0. -1.
         -2    1    1    2    0  502  0.35716989789E+02 -0.35750948750E+02  0.56830008935E+03  0.57054257093E+03  0.00000000000E+00 0.  1.
<mgrwt>
<rscale>  2 0.16792808E+03</rscale>
<asrwt>0</asrwt>
<pdfrwt beam="1">  1       21 0.11870105E+00 0.16792808E+03</pdfrwt>
<pdfrwt beam="2">  1       21 0.18236324E-01 0.16792808E+03</pdfrwt>
<totfact> 0.15125776E+04</totfact>
</mgrwt>
</event>
<event>
 5    1  0.1854763E+000  0.8716072E+02  0.7546771E-02  0.1309877E+00
         21   -1    0    0  503  502  0.00000000000E+00  0.00000000000E+00  0.73424189935E+02  0.73424189935E+02  0.00000000000E+00 0.  1.
         21   -1    0    0  501  503 -0.00000000000E+00 -0.00000000000E+00 -0.10909307396E+04  0.10909307396E+04  0.00000000000E+00 0.  1.
         24    1    1    2    0    0  0.41298550014E+02 -0.28768622164E+02 -0.64592641633E+03  0.65285630511E+03  0.80419002446E+02 0.  1.
          1    1    1    2  501    0  0.12442111711E+02  0.22014822024E+02 -0.43062907918E+03  0.43137091044E+03  0.00000000000E+00 0. -1.
         -2    1    1    2    0  502 -0.53740661725E+02  0.67538001401E+01  0.59048945863E+02  0.80127713973E+02  0.00000000000E+00 0.  1.
<mgrwt>
<rscale>  2 0.87160724E+02</rscale>
<asrwt>0</asrwt>
<pdfrwt beam="1">  1       21 0.11296030E-01 0.87160724E+02</pdfrwt>
<pdfrwt beam="2">  1       21 0.16783549E+00 0.87160724E+02</pdfrwt>
<totfact> 0.15976309E+04</totfact>
</mgrwt>
</event>
<event>
 5    1  0.1854763E+000  0.1939866E+03  0.7546771E-02  0.1154914E+00
         21   -1    0    0  501  502  0.00000000000E+00  0.00000000000E+00  0.14873746362E+03  0.14873746362E+03  0.00000000000E+00 0. -1.
         21   -1    0    0  502  503 -0.00000000000E+00 -0.00000000000E+00 -0.35030863564E+03  0.35030863564E+03  0.00000000000E+00 0.  1.
         24    1    1    2    0    0  0.11589306340E+03  0.65677909201E+02 -0.15368791583E+03  0.21870523845E+03  0.80419002446E+02 0.  1.
          1    1    1    2  501    0  0.19700649564E+02  0.50251163224E+02  0.52789861829E+02  0.75498771584E+02  0.00000000000E+00 0. -1.
         -2    1    1    2    0  503 -0.13559371296E+03 -0.11592907243E+03 -0.10067311802E+03  0.20484208923E+03  0.00000000000E+00 0.  1.
<mgrwt>
<rscale>  2 0.19398661E+03</rscale>
<asrwt>0</asrwt>
<pdfrwt beam="1">  1       21 0.22882687E-01 0.19398661E+03</pdfrwt>
<pdfrwt beam="2">  1       21 0.53893636E-01 0.19398661E+03</pdfrwt>
<totfact> 0.58317638E+04</totfact>
</mgrwt>
</event>
<event>
 5    1  0.1854763E+000  0.1032686E+03  0.7546771E-02  0.1273569E+00
         21   -1    0    0  501  502  0.00000000000E+00  0.00000000000E+00  0.78345059537E+02  0.78345059537E+02  0.00000000000E+00 0.  1.
         21   -1    0    0  502  503 -0.00000000000E+00 -0.00000000000E+00 -0.33030403428E+03  0.33030403428E+03  0.00000000000E+00 0.  1.
         24    1    1    2    0    0 -0.49022587962E+02  0.72399492818E+02 -0.93194325453E+02  0.15098774434E+03  0.80419002446E+02 0.  1.
          1    1    1    2  501    0  0.26383330307E+02 -0.45382894545E+02  0.33446931031E+02  0.62244553423E+02  0.00000000000E+00 0. -1.
         -2    1    1    2    0  503  0.22639257655E+02 -0.27016598272E+02 -0.19221158032E+03  0.19541679605E+03  0.00000000000E+00 0.  1.
<mgrwt>
<rscale>  2 0.10326861E+03</rscale>
<asrwt>0</asrwt>
<pdfrwt beam="1">  1       21 0.12053086E-01 0.10326861E+03</pdfrwt>
<pdfrwt beam="2">  1       21 0.50816006E-01 0.10326861E+03</pdfrwt>
<totfact> 0.21962488E+05</totfact>
</mgrwt>
</event>
<event>
 5    1  0.1854763E+000  0.8314049E+02  0.7546771E-02  0.1320368E+00
         21   -1    0    0  501  502  0.00000000000E+00  0.00000000000E+00  0.77258299952E+03  0.77258299952E+03  0.00000000000E+00 0.  1.
         21   -1    0    0  502  503 -0.00000000000E+00 -0.00000000000E+00 -0.10151430203E+02  0.10151430203E+02  0.00000000000E+00 0. -1.
         24    1    1    2    0    0  0.18722279326E+02 -0.25294031741E+02  0.50479019728E+03  0.51212368722E+03  0.80419002446E+02 0.  0.
          1    1    1    2  501    0  0.18694283375E+02 -0.15706692154E+02  0.11470506345E+03  0.11727501009E+03  0.00000000000E+00 0. -1.
         -2    1    1    2    0  503 -0.37416562701E+02  0.41000723895E+02  0.14293630858E+03  0.15333573241E+03  0.00000000000E+00 0.  1.
<mgrwt>
<rscale>  2 0.83140493E+02</rscale>
<asrwt>0</asrwt>
<pdfrwt beam="1">  1       21 0.11885888E+00 0.83140493E+02</pdfrwt>
<pdfrwt beam="2">  1       21 0.15617591E-02 0.83140493E+02</pdfrwt>
<totfact> 0.10017041E+06</totfact>
</mgrwt>
</event>
<event>
 5    1  0.1854763E+000  0.6809575E+02  0.7546771E-02  0.1366691E+00
         21   -1    0    0  503  502  0.00000000000E+00  0.00000000000E+00  0.81115171871E+01  0.81115171871E+01  0.00000000000E+00 0. -1.
         21   -1    0    0  501  503 -0.00000000000E+00 -0.00000000000E+00 -0.61982883048E+03  0.61982883048E+03  0.00000000000E+00 0. -1.
         24    1    1    2    0    0 -0.15086428365E+02 -0.17054742136E+00 -0.41881952680E+03  0.42673720414E+03  0.80419002446E+02 0.  1.
          1    1    1    2  501    0 -0.17813060326E+02 -0.93530707361E+01 -0.10415290333E+03  0.10607833107E+03  0.00000000000E+00 0. -1.
         -2    1    1    2    0  502  0.32899488691E+02  0.95236181575E+01 -0.88744883155E+02  0.95124812458E+02  0.00000000000E+00 0.  1.
<mgrwt>
<rscale>  2 0.68095749E+02</rscale>
<asrwt>0</asrwt>
<pdfrwt beam="1">  1       21 0.12479259E-02 0.68095749E+02</pdfrwt>
<pdfrwt beam="2">  1       21 0.95358269E-01 0.68095749E+02</pdfrwt>
<totfact> 0.23690584E+06</totfact>
</mgrwt>
</event>
<event>
 5    1  0.1854763E+000  0.8448127E+02  0.7546771E-02  0.1316795E+00
         21   -1    0    0  503  502  0.00000000000E+00  0.00000000000E+00  0.31542684069E+03  0.31542684069E+03  0.00000000000E+00 0.  1.
         21   -1    0    0  501  503 -0.00000000000E+00 -0.00000000000E+00 -0.25237750825E+02  0.25237750825E+02  0.00000000000E+00 0. -1.
         24    1    1    2    0    0 -0.13604929401E+02  0.63908119145E+02  0.20790447627E+03  0.23229470292E+03  0.80419002446E+02 0.  0.
          1    1    1    2  501    0  0.81701046130E+01 -0.36463194906E+02  0.26023277698E+02  0.45535987684E+02  0.00000000000E+00 0. -1.
         -2    1    1    2    0  502  0.54348247876E+01 -0.27444924239E+02  0.56261335901E+02  0.62833900916E+02  0.00000000000E+00 0.  1.
<mgrwt>
<rscale>  2 0.84481266E+02</rscale>
<asrwt>0</asrwt>
<pdfrwt beam="1">  1       21 0.48527203E-01 0.84481266E+02</pdfrwt>
<pdfrwt beam="2">  1       21 0.38827311E-02 0.84481266E+02</pdfrwt>
<totfact> 0.16481098E+06</totfact>
</mgrwt>
</event>
<event>
 5    1  0.1854763E+000  0.8416231E+02  0.7546771E-02  0.1317638E+00
         21   -1    0    0  503  502  0.00000000000E+00  0.00000000000E+00  0.17714279788E+03  0.17714279788E+03  0.00000000000E+00 0.  1.
         21   -1    0    0  501  503 -0.00000000000E+00 -0.00000000000E+00 -0.17792207317E+03  0.17792207317E+03  0.00000000000E+00 0.  1.
         24    1    1    2    0    0  0.87066325493E+01  0.49441004338E+01 -0.10654403323E+03  0.13386222974E+03  0.80419002446E+02 0.  1.
          1    1    1    2  501    0 -0.32758970407E+02  0.30294819616E+02 -0.45684080615E+02  0.63858918401E+02  0.00000000000E+00 0. -1.
         -2    1    1    2    0  502  0.24052337858E+02 -0.35238920050E+02  0.15144883855E+03  0.15734372291E+03  0.00000000000E+00 0.  1.
<mgrwt>
<rscale>  2 0.84162315E+02</rscale>
<asrwt>0</asrwt>
<pdfrwt beam="1">  1       21 0.27252738E-01 0.84162315E+02</pdfrwt>
<pdfrwt beam="2">  1       21 0.27372626E-01 0.84162315E+02</pdfrwt>
<totfact> 0.16904952E+05</totfact>
</mgrwt>
</event>
<event>
 5    1  0.1854763E+000  0.6899579E+02  0.7546771E-02  0.1363542E+00
         21   -1    0    0  501  502  0.00000000000E+00  0.00000000000E+00  0.11086710586E+03  0.11086710586E+03  0.00000000000E+00 0. -1.
         21   -1    0    0  502  503 -0.00000000000E+00 -0.00000000000E+00 -0.16194331777E+03  0.16194331777E+03  0.00000000000E+00 0.  1.
         24    1    1    2    0    0 -0.35472234868E+02  0.39493901041E+00  0.13750685521E+02  0.88964783651E+02  0.80419002446E+02 0.  1.
          1    1    1    2  501    0  0.24369219320E+02  0.16820479499E+02  0.54901397720E+02  0.62377486743E+02  0.00000000000E+00 0. -1.
         -2    1    1    2    0  503  0.11103015548E+02 -0.17215418510E+02 -0.11972829515E+03  0.12146815323E+03  0.00000000000E+00 0.  1.
<mgrwt>
<rscale>  2 0.68995791E+02</rscale>
<asrwt>0</asrwt>
<pdfrwt beam="1">  1       21 0.17056478E-01 0.68995791E+02</pdfrwt>
<pdfrwt beam="2">  1       21 0.24914357E-01 0.68995791E+02</pdfrwt>
<totfact> 0.47754271E+05</totfact>
</mgrwt>
</event>
<event>
 5    1  0.1854763E+000  0.7165528E+02  0.7546771E-02  0.1354553E+00
         21   -1    0    0  503  502  0.00000000000E+00  0.00000000000E+00  0.21372617575E+03  0.21372617575E+03  0.00000000000E+00 0.  1.
         21   -1    0    0  501  503 -0.00000000000E+00 -0.00000000000E+00 -0.29294257745E+02  0.29294257745E+02  0.00000000000E+00 0. -1.
         24    1    1    2    0    0  0.27382749534E+02  0.56032240474E+01  0.13634718805E+03  0.16074508619E+03  0.80419002446E+02 0.  0.
          1    1    1    2  501    0 -0.35291086073E+02  0.13274885237E+02  0.99514414961E+01  0.38996339856E+02  0.00000000000E+00 0. -1.
         -2    1    1    2    0  502  0.79083365391E+01 -0.18878109284E+02  0.38133288463E+02  0.43279007451E+02  0.00000000000E+00 0.  1.
<mgrwt>
<rscale>  2 0.71655282E+02</rscale>
<asrwt>0</asrwt>
<pdfrwt beam="1">  1       21 0.32880949E-01 0.71655282E+02</pdfrwt>
<pdfrwt beam="2">  1       21 0.45068090E-02 0.71655282E+02</pdfrwt>
<totfact> 0.27579611E+06</totfact>
</mgrwt>
</event>
<event>
 5    1  0.1854763E+000  0.8362092E+02  0.7546771E-02  0.1319079E+00
         21   -1    0    0  501  502  0.00000000000E+00  0.00000000000E+00  0.75706225893E+02  0.75706225893E+02  0.00000000000E+00 0. -1.
         21   -1    0    0  502  503 -0.00000000000E+00 -0.00000000000E+00 -0.27778119374E+03  0.27778119374E+03  0.00000000000E+00 0.  1.
         24    1    1    2    0    0  0.27388548189E+02  0.24679979623E+02 -0.97197621859E+02  0.13142993424E+03  0.80419002446E+02 0. -1.
          1    1    1    2  501    0 -0.43466486969E+02  0.62518380422E+01  0.48116020006E+02  0.65142707570E+02  0.00000000000E+00 0. -1.
         -2    1    1    2    0  503  0.16077938780E+02 -0.30931817666E+02 -0.15299336600E+03  0.15691477782E+03  0.00000000000E+00 0.  1.
<mgrwt>
<rscale>  2 0.83620923E+02</rscale>
<asrwt>0</asrwt>
<pdfrwt beam="1">  1       21 0.11647112E-01 0.83620923E+02</pdfrwt>
<pdfrwt beam="2">  1       21 0.42735568E-01 0.83620923E+02</pdfrwt>
<totfact> 0.33247919E+05</totfact>
</mgrwt>
</event>
<event>
 5    1  0.1854763E+000  0.1715333E+03  0.7546771E-02  0.1176258E+00
         21   -1    0    0  503  502  0.00000000000E+00  0.00000000000E+00  0.30859998527E+02  0.30859998527E+02  0.00000000000E+00 0.  1.
         21   -1    0    0  501  503 -0.00000000000E+00 -0.00000000000E+00 -0.99426164430E+03  0.99426164430E+03  0.00000000000E+00 0.  1.
         24    1    1    2    0    0 -0.14009305875E+03  0.73564481809E+02 -0.55106820071E+03  0.57894833611E+03  0.80419002446E+02 0.  1.
          1    1    1    2  501    0  0.37411117054E+02  0.29322389792E+01 -0.14469846285E+03  0.14948523290E+03  0.00000000000E+00 0. -1.
         -2    1    1    2    0  502  0.10268194169E+03 -0.76496720789E+02 -0.26763498220E+03  0.29668807381E+03  0.00000000000E+00 0.  1.
<mgrwt>
<rscale>  2 0.17153331E+03</rscale>
<asrwt>0</asrwt>
<pdfrwt beam="1">  1       21 0.47476916E-02 0.17153331E+03</pdfrwt>
<pdfrwt beam="2">  1       21 0.15296334E+00 0.17153331E+03</pdfrwt>
<totfact> 0.84257066E+04</totfact>
</mgrwt>
</event>
<event>
 5    1  0.1854763E+000  0.9548730E+02  0.7546771E-02  0.1290082E+00
         21   -1    0    0  501  502  0.00000000000E+00  0.00000000000E+00  0.61393101266E+02  0.61393101266E+02  0.00000000000E+00 0. -1.
         21   -1    0    0  502  503 -0.00000000000E+00 -0.00000000000E+00 -0.15574185687E+03  0.15574185687E+03  0.00000000000E+00 0.  1.
         24    1    1    2    0    0  0.37318849424E+02 -0.51055451476E+00 -0.33623087754E+02  0.94819223646E+02  0.80419002446E+02 0.  1.
          1    1    1    2  501    0  0.23622237609E+02  0.26993727250E+02 -0.62888969628E+01  0.36417326172E+02  0.00000000000E+00 0. -1.
         -2    1    1    2    0  503 -0.60941087033E+02 -0.26483172736E+02 -0.54436770889E+02  0.85898408319E+02  0.00000000000E+00 0.  1.
<mgrwt>
<rscale>  2 0.95487300E+02</rscale>
<asrwt>0</asrwt>
<pdfrwt beam="1">  1       21 0.94450928E-02 0.95487300E+02</pdfrwt>
<pdfrwt beam="2">  1       21 0.23960285E-01 0.95487300E+02</pdfrwt>
<totfact> 0.14595976E+06</totfact>
</mgrwt>
</event>
<event>
 5    1  0.1854763E+000  0.1348042E+03  0.7546771E-02  0.1220496E+00
         21   -1    0    0  501  502  0.00000000000E+00  0.00000000000E+00  0.47475313894E+02  0.47475313894E+02  0.00000000000E+00 0.  1.
         21   -1    0    0  502  503 -0.00000000000E+00 -0.00000000000E+00 -0.40606263556E+03  0.40606263556E+03  0.00000000000E+00 0. -1.
         24    1    1    2    0    0  0.40031431610E+02 -0.87554973387E+02 -0.12669114287E+03  0.17828698920E+03  0.80419002446E+02 0.  1.
          1    1    1    2  501    0 -0.17624173599E+02  0.11061670231E+03 -0.14953246546E+03  0.18683314629E+03  0.00000000000E+00 0. -1.
         -2    1    1    2    0  503 -0.22407258011E+02 -0.23061728923E+02 -0.82363713335E+02  0.88417813968E+02  0.00000000000E+00 0.  1.
<mgrwt>
<rscale>  2 0.13480415E+03</rscale>
<asrwt>0</asrwt>
<pdfrwt beam="1">  1       21 0.73038944E-02 0.13480415E+03</pdfrwt>
<pdfrwt beam="2">  1       21 0.62471175E-01 0.13480415E+03</pdfrwt>
<totfact> 0.33792563E+05</totfact>
</mgrwt>
</event>
<event>
 5    1  0.1854763E+000  0.8621438E+02  0.7546771E-02  0.1312287E+00
         21   -1    0    0  503  502  0.00000000000E+00  0.00000000000E+00  0.80908302327E+01  0.80908302327E+01  0.00000000000E+00 0. -1.
         21   -1    0    0  501  503 -0.00000000000E+00 -0.00000000000E+00 -0.11248008626E+04  0.11248008626E+04  0.00000000000E+00 0. -1.
         24    1    1    2    0    0 -0.14308765099E+02  0.48029909366E+02 -0.36331094705E+03  0.37546460972E+03  0.80419002446E+02 0. -1.
          1    1    1    2  501    0 -0.17753972997E+02 -0.41238648515E+02 -0.46978893603E+03  0.47192952239E+03  0.00000000000E+00 0. -1.
         -2    1    1    2    0  502  0.32062738096E+02 -0.67912608510E+01 -0.28361014927E+03  0.28549756070E+03  0.00000000000E+00 0.  1.
<mgrwt>
<rscale>  2 0.86214378E+02</rscale>
<asrwt>0</asrwt>
<pdfrwt beam="1">  1       21 0.12447434E-02 0.86214378E+02</pdfrwt>
<pdfrwt beam="2">  1       21 0.17304625E+00 0.86214378E+02</pdfrwt>
<totfact> 0.55609794E+05</totfact>
</mgrwt>
</event>
<event>
 5    1  0.1854763E+000  0.1787572E+03  0.7546771E-02  0.1169011E+00
         21   -1    0    0  503  502  0.00000000000E+00  0.00000000000E+00  0.56186528311E+03  0.56186528311E+03  0.00000000000E+00 0.  1.
         21   -1    0    0  501  503 -0.00000000000E+00 -0.00000000000E+00 -0.96672996836E+02  0.96672996836E+02  0.00000000000E+00 0.  1.
         24    1    1    2    0    0  0.12860703584E+03  0.10628696251E+03  0.26437667068E+02  0.18709049752E+03  0.80419002446E+02 0.  1.
          1    1    1    2  501    0 -0.26907031440E+02 -0.48146936796E+02  0.12999010291E+03  0.14120744569E+03  0.00000000000E+00 0. -1.
         -2    1    1    2    0  502 -0.10170000440E+03 -0.58140025711E+02  0.30876451629E+03  0.33024033673E+03  0.00000000000E+00 0.  1.
<mgrwt>
<rscale>  2 0.17875719E+03</rscale>
<asrwt>0</asrwt>
<pdfrwt beam="1">  1       21 0.86440811E-01 0.17875719E+03</pdfrwt>
<pdfrwt beam="2">  1       21 0.14872769E-01 0.17875719E+03</pdfrwt>
<totfact> 0.46256253E+04</totfact>
</mgrwt>
</event>
<event>
 5    1  0.1854763E+000  0.1036080E+03  0.7546771E-02  0.1272887E+00
         21   -1    0    0  503  502  0.00000000000E+00  0.00000000000E+00  0.42690667291E+02  0.42690667291E+02  0.00000000000E+00 0.  1.
         21   -1    0    0  501  503 -0.00000000000E+00 -0.00000000000E+00 -0.51036303897E+03  0.51036303897E+03  0.00000000000E+00 0.  1.
         24    1    1    2    0    0  0.54436171667E+02 -0.69144729653E+02 -0.40541125637E+03  0.42257519233E+03  0.80419002446E+02 0.  1.
          1    1    1    2  501    0 -0.21047025442E+02  0.26224818623E+02 -0.67938823003E+02  0.75805026633E+02  0.00000000000E+00 0. -1.
         -2    1    1    2    0  502 -0.33389146224E+02  0.42919911030E+02  0.56777076993E+01  0.54673487297E+02  0.00000000000E+00 0.  1.
<mgrwt>
<rscale>  2 0.10360803E+03</rscale>
<asrwt>0</asrwt>
<pdfrwt beam="1">  1       21 0.65677948E-02 0.10360803E+03</pdfrwt>
<pdfrwt beam="2">  1       21 0.78517392E-01 0.10360803E+03</pdfrwt>
<totfact> 0.24801803E+05</totfact>
</mgrwt>
</event>
<event>
 5    1  0.1854763E+000  0.1079672E+03  0.7546771E-02  0.1264381E+00
         21   -1    0    0  501  502  0.00000000000E+00  0.00000000000E+00  0.10935999934E+04  0.10935999934E+04  0.00000000000E+00 0.  1.
         21   -1    0    0  502  503 -0.00000000000E+00 -0.00000000000E+00 -0.32807810385E+02  0.32807810385E+02  0.00000000000E+00 0.  1.
         24    1    1    2    0    0 -0.27812273442E+01 -0.40911521128E+02  0.34545920516E+03  0.35705849125E+03  0.80419002446E+02 0.  1.
          1    1    1    2  501    0 -0.93696232107E+01 -0.41406949219E+02  0.67596353998E+03  0.67729538067E+03  0.00000000000E+00 0. -1.
         -2    1    1    2    0  503  0.12150850555E+02  0.82318470348E+02  0.39369437817E+02  0.92053931820E+02  0.00000000000E+00 0.  1.
<mgrwt>
<rscale>  2 0.10796720E+03</rscale>
<asrwt>0</asrwt>
<pdfrwt beam="1">  1       21 0.16824612E+00 0.10796720E+03</pdfrwt>
<pdfrwt beam="2">  1       21 0.50473563E-02 0.10796720E+03</pdfrwt>
<totfact> 0.61391824E+04</totfact>
</mgrwt>
</event>
<event>
 5    1  0.1854763E+000  0.7876142E+02  0.7546771E-02  0.1332604E+00
         21   -1    0    0  501  502  0.00000000000E+00  0.00000000000E+00  0.46386749788E+02  0.46386749788E+02  0.00000000000E+00 0.  1.
         21   -1    0    0  502  503 -0.00000000000E+00 -0.00000000000E+00 -0.15431794858E+03  0.15431794858E+03  0.00000000000E+00 0.  1.
         24    1    1    2    0    0 -0.42768302558E+00 -0.51713027368E+02 -0.98048495182E+02  0.13694941940E+03  0.80419002446E+02 0.  1.
          1    1    1    2  501    0  0.16771704612E+02  0.19008287274E+02  0.16906446247E+01  0.25405970557E+02  0.00000000000E+00 0. -1.
         -2    1    1    2    0  503 -0.16344021587E+02  0.32704740094E+02 -0.11573348237E+02  0.38349308411E+02  0.00000000000E+00 0.  1.
<mgrwt>
<rscale>  2 0.78761419E+02</rscale>
<asrwt>0</asrwt>
<pdfrwt beam="1">  1       21 0.71364230E-02 0.78761419E+02</pdfrwt>
<pdfrwt beam="2">  1       21 0.23741223E-01 0.78761419E+02</pdfrwt>
<totfact> 0.23795589E+06</totfact>
</mgrwt>
</event>
<event>
 5    1  0.1854763E+000  0.7478889E+02  0.7546771E-02  0.1344526E+00
         21   -1    0    0  503  502  0.00000000000E+00  0.00000000000E+00  0.67841199322E+03  0.67841199322E+03  0.00000000000E+00 0.  1.
         21   -1    0    0  501  503 -0.00000000000E+00 -0.00000000000E+00 -0.18202078657E+03  0.18202078657E+03  0.00000000000E+00 0. -1.
         24    1    1    2    0    0 -0.48147423415E+02  0.22260280145E+02  0.13458849521E+03  0.16551426963E+03  0.80419002446E+02 0.  0.
          1    1    1    2  501    0  0.26103769838E+02 -0.14563895559E+02 -0.16495606294E+03  0.16764252609E+03  0.00000000000E+00 0. -1.
         -2    1    1    2    0  502  0.22043653577E+02 -0.76963845864E+01  0.52675877437E+03  0.52727598407E+03  0.00000000000E+00 0.  1.
<mgrwt>
<rscale>  2 0.74788891E+02</rscale>
<asrwt>0</asrwt>
<pdfrwt beam="1">  1       21 0.10437107E+00 0.74788891E+02</pdfrwt>
<pdfrwt beam="2">  1       21 0.28003198E-01 0.74788891E+02</pdfrwt>
<totfact> 0.10143103E+04</totfact>
</mgrwt>
</event>
<event>
 5    1  0.1854763E+000  0.6482128E+02  0.7546771E-02  0.1378645E+00
         21   -1    0    0  501  502  0.00000000000E+00  0.00000000000E+00  0.12663023897E+03  0.12663023897E+03  0.00000000000E+00 0.  1.
         21   -1    0    0  502  503 -0.00000000000E+00 -0.00000000000E+00 -0.96669247992E+02  0.96669247992E+02  0.00000000000E+00 0. -1.
         24    1    1    2    0    0  0.48083468007E+01  0.13569664771E+01 -0.13487465415E+02  0.81695099208E+02  0.80419002446E+02 0. -1.
          1    1    1    2  501    0  0.20452239663E+02 -0.94682809259E+01  0.87403796619E+02  0.90262761504E+02  0.00000000000E+00 0. -1.
         -2    1    1    2    0  503 -0.25260586463E+02  0.81113144488E+01 -0.43955340232E+02  0.51341626244E+02  0.00000000000E+00 0.  1.
<mgrwt>
<rscale>  2 0.64821283E+02</rscale>
<asrwt>0</asrwt>
<pdfrwt beam="1">  1       21 0.19481575E-01 0.64821283E+02</pdfrwt>
<pdfrwt beam="2">  1       21 0.14872192E-01 0.64821283E+02</pdfrwt>
<totfact> 0.95497228E+05</totfact>
</mgrwt>
</event>
<event>
 5    1  0.1854763E+000  0.2373955E+03  0.7546771E-02  0.1121540E+00
         21   -1    0    0  503  502  0.00000000000E+00  0.00000000000E+00  0.23373988340E+04  0.23373988340E+04  0.00000000000E+00 0.  1.
         21   -1    0    0  501  503 -0.00000000000E+00 -0.00000000000E+00 -0.60606675846E+02  0.60606675846E+02  0.00000000000E+00 0. -1.
         24    1    1    2    0    0 -0.13993260929E+03 -0.26997640814E+02  0.33638915109E+03  0.37407871454E+03  0.80419002446E+02 0.  1.
          1    1    1    2  501    0  0.15865718294E+03  0.13083273396E+03  0.22322597981E+03  0.30351135734E+03  0.00000000000E+00 0. -1.
         -2    1    1    2    0  502 -0.18724573650E+02 -0.10383509315E+03  0.17171770273E+04  0.17204154380E+04  0.00000000000E+00 0.  1.
<mgrwt>
<rscale>  2 0.23739550E+03</rscale>
<asrwt>0</asrwt>
<pdfrwt beam="1">  1       21 0.35959975E+00 0.23739550E+03</pdfrwt>
<pdfrwt beam="2">  1       21 0.93241058E-02 0.23739550E+03</pdfrwt>
<totfact> 0.13279748E+03</totfact>
</mgrwt>
</event>
<event>
 5    1  0.1854763E+000  0.6118813E+02  0.7546771E-02  0.1392912E+00
         21   -1    0    0  501  502  0.00000000000E+00  0.00000000000E+00  0.60546435285E+02  0.60546435285E+02  0.00000000000E+00 0.  1.
         21   -1    0    0  502  503 -0.00000000000E+00 -0.00000000000E+00 -0.10596774605E+03  0.10596774605E+03  0.00000000000E+00 0. -1.
         24    1    1    2    0    0 -0.32873873763E+01  0.58259281926E+01 -0.36831807541E+02  0.88704827130E+02  0.80419002446E+02 0. -1.
          1    1    1    2  501    0  0.20700757009E+02  0.48402579056E+01  0.28448948877E+02  0.35514674848E+02  0.00000000000E+00 0. -1.
         -2    1    1    2    0  503 -0.17413369633E+02 -0.10666186098E+02 -0.37038452101E+02  0.42294679357E+02  0.00000000000E+00 0.  1.
<mgrwt>
<rscale>  2 0.61188125E+02</rscale>
<asrwt>0</asrwt>
<pdfrwt beam="1">  1       21 0.93148363E-02 0.61188125E+02</pdfrwt>
<pdfrwt beam="2">  1       21 0.16302730E-01 0.61188125E+02</pdfrwt>
<totfact> 0.29502918E+06</totfact>
</mgrwt>
</event>
<event>
 5    1  0.1854763E+000  0.7447214E+02  0.7546771E-02  0.1345513E+00
         21   -1    0    0  503  502  0.00000000000E+00  0.00000000000E+00  0.12279398194E+03  0.12279398194E+03  0.00000000000E+00 0. -1.
         21   -1    0    0  501  503 -0.00000000000E+00 -0.00000000000E+00 -0.48556983700E+02  0.48556983700E+02  0.00000000000E+00 0.  1.
         24    1    1    2    0    0  0.13778164674E+01 -0.38780533679E+02  0.60605974107E+02  0.10791722857E+03  0.80419002446E+02 0.  0.
          1    1    1    2  501    0 -0.22776288482E+02  0.26642099911E+02 -0.51597482073E+00  0.35054629290E+02  0.00000000000E+00 0. -1.
         -2    1    1    2    0  502  0.21398472014E+02  0.12138433768E+02  0.14146998955E+02  0.28379107779E+02  0.00000000000E+00 0.  1.
<mgrwt>
<rscale>  2 0.74472142E+02</rscale>
<asrwt>0</asrwt>
<pdfrwt beam="1">  1       21 0.18891382E-01 0.74472142E+02</pdfrwt>
<pdfrwt beam="2">  1       21 0.74703052E-02 0.74472142E+02</pdfrwt>
<totfact> 0.33374090E+06</totfact>
</mgrwt>
</event>
<event>
 5    1  0.1854763E+000  0.1565489E+03  0.7546771E-02  0.1192649E+00
         21   -1    0    0  501  502  0.00000000000E+00  0.00000000000E+00  0.57065140755E+03  0.57065140755E+03  0.00000000000E+00 0. -1.
         21   -1    0    0  502  503 -0.00000000000E+00 -0.00000000000E+00 -0.21749795084E+03  0.21749795084E+03  0.00000000000E+00 0.  1.
         24    1    1    2    0    0 -0.69893892109E+02 -0.12742740087E+03 -0.51610755817E+02  0.17393615126E+03  0.80419002446E+02 0.  1.
          1    1    1    2  501    0  0.50251754998E+02  0.69036227031E+02  0.49645681854E+03  0.50374657537E+03  0.00000000000E+00 0. -1.
         -2    1    1    2    0  503  0.19642137111E+02  0.58391173835E+02 -0.91692606016E+02  0.11046663175E+03  0.00000000000E+00 0.  1.
<mgrwt>
<rscale>  2 0.15654892E+03</rscale>
<asrwt>0</asrwt>
<pdfrwt beam="1">  1       21 0.87792523E-01 0.15654892E+03</pdfrwt>
<pdfrwt beam="2">  1       21 0.33461224E-01 0.15654892E+03</pdfrwt>
<totfact> 0.98307200E+03</totfact>
</mgrwt>
</event>
<event>
 5    1  0.1854763E+000  0.8285053E+02  0.7546771E-02  0.1321151E+00
         21   -1    0    0  503  502  0.00000000000E+00  0.00000000000E+00  0.24656272661E+02  0.24656272661E+02  0.00000000000E+00 0. -1.
         21   -1    0    0  501  503 -0.00000000000E+00 -0.00000000000E+00 -0.32088498639E+03  0.32088498639E+03  0.00000000000E+00 0.  1.
         24    1    1    2    0    0 -0.28190474453E+02  0.55586538061E+02 -0.13780121668E+03  0.17129202356E+03  0.80419002446E+02 0. -1.
          1    1    1    2  501    0  0.22055328652E+02 -0.27721117366E+02 -0.12679024294E+03  0.13164597820E+03  0.00000000000E+00 0. -1.
         -2    1    1    2    0  502  0.61351458012E+01 -0.27865420696E+02 -0.31637254113E+02  0.42603257298E+02  0.00000000000E+00 0.  1.
<mgrwt>
<rscale>  2 0.82850531E+02</rscale>
<asrwt>0</asrwt>
<pdfrwt beam="1">  1       21 0.37932730E-02 0.82850531E+02</pdfrwt>
<pdfrwt beam="2">  1       21 0.49366918E-01 0.82850531E+02</pdfrwt>
<totfact> 0.16526364E+06</totfact>
</mgrwt>
</event>
<event>
 5    1  0.1854763E+000  0.1126769E+03  0.7546771E-02  0.1255691E+00
         21   -1    0    0  501  502  0.00000000000E+00  0.00000000000E+00  0.76264270801E+03  0.76264270801E+03  0.00000000000E+00 0.  1.
         21   -1    0    0  502  503 -0.00000000000E+00 -0.00000000000E+00 -0.38732595300E+02  0.38732595300E+02  0.00000000000E+00 0.  1.
         24    1    1    2    0    0 -0.22861486571E+01 -0.34311507194E+02  0.32097828586E+03  0.33268120168E+03  0.80419002446E+02 0.  1.
          1    1    1    2  501    0  0.67786510487E+02  0.21806927819E+02  0.39520014015E+03  0.40156407195E+03  0.00000000000E+00 0. -1.
         -2    1    1    2    0  503 -0.65500361830E+02  0.12504579374E+02  0.77316866906E+01  0.67130029676E+02  0.00000000000E+00 0.  1.
<mgrwt>
<rscale>  2 0.11267690E+03</rscale>
<asrwt>0</asrwt>
<pdfrwt beam="1">  1       21 0.11732964E+00 0.11267690E+03</pdfrwt>
<pdfrwt beam="2">  1       21 0.59588614E-02 0.11267690E+03</pdfrwt>
<totfact> 0.11533605E+05</totfact>
</mgrwt>
</event>
<event>
 5    1  0.1854763E+000  0.1025229E+03  0.7546771E-02  0.1275078E+00
         21   -1    0    0  501  502  0.00000000000E+00  0.00000000000E+00  0.13191673455E+03  0.13191673455E+03  0.00000000000E+00 0.  1.
         21   -1    0    0  502  503 -0.00000000000E+00 -0.00000000000E+00 -0.80584178363E+02  0.80584178363E+02  0.00000000000E+00 0.  1.
         24    1    1    2    0    0  0.38143035615E+02 -0.76829340503E+02  0.18840918689E+02  0.11907911194E+03  0.80419002446E+02 0.  1.
          1    1    1    2  501    0 -0.14900643228E+02  0.48960636919E+02  0.21441377878E+02  0.55487888962E+02  0.00000000000E+00 0. -1.
         -2    1    1    2    0  503 -0.23242392386E+02  0.27868703584E+02  0.11050259624E+02  0.37933912019E+02  0.00000000000E+00 0.  1.
<mgrwt>
<rscale>  2 0.10252288E+03</rscale>
<asrwt>0</asrwt>
<pdfrwt beam="1">  1       21 0.20294882E-01 0.10252288E+03</pdfrwt>
<pdfrwt beam="2">  1       21 0.12397566E-01 0.10252288E+03</pdfrwt>
<totfact> 0.12366537E+06</totfact>
</mgrwt>
</event>
<event>
 5    1  0.1854763E+000  0.9352437E+02  0.7546771E-02  0.1294535E+00
         21   -1    0    0  501  502  0.00000000000E+00  0.00000000000E+00  0.67998037877E+03  0.67998037877E+03  0.00000000000E+00 0. -1.
         21   -1    0    0  502  503 -0.00000000000E+00 -0.00000000000E+00 -0.31318482756E+02  0.31318482756E+02  0.00000000000E+00 0.  1.
         24    1    1    2    0    0  0.14369252335E+01  0.76156724054E+02  0.56435857128E+03  0.57512583345E+03  0.80419002446E+02 0. -1.
          1    1    1    2  501    0 -0.24204013202E+01 -0.25096387810E+02  0.81182941277E+02  0.85007981849E+02  0.00000000000E+00 0. -1.
         -2    1    1    2    0  503  0.98347608668E+00 -0.51060336244E+02  0.31203834605E+01  0.51165046228E+02  0.00000000000E+00 0.  1.
<mgrwt>
<rscale>  2 0.93524367E+02</rscale>
<asrwt>0</asrwt>
<pdfrwt beam="1">  1       21 0.10461235E+00 0.93524367E+02</pdfrwt>
<pdfrwt beam="2">  1       21 0.48182286E-02 0.93524367E+02</pdfrwt>
<totfact> 0.21800639E+05</totfact>
</mgrwt>
</event>
<event>
 5    1  0.1854763E+000  0.7238977E+02  0.7546771E-02  0.1352150E+00
         21   -1    0    0  503  502  0.00000000000E+00  0.00000000000E+00  0.16563038005E+03  0.16563038005E+03  0.00000000000E+00 0.  1.
         21   -1    0    0  501  503 -0.00000000000E+00 -0.00000000000E+00 -0.80986283281E+02  0.80986283281E+02  0.00000000000E+00 0.  1.
         24    1    1    2    0    0 -0.18884476512E+02  0.98973158944E+01 -0.42674509538E+02  0.93503529526E+02  0.80419002446E+02 0.  1.
          1    1    1    2  501    0  0.14301575656E+02 -0.34085200941E+02  0.18105949229E+02  0.41160191774E+02  0.00000000000E+00 0. -1.
         -2    1    1    2    0  502  0.45829008558E+01  0.24187885046E+02  0.10921265708E+03  0.11195294204E+03  0.00000000000E+00 0.  1.
<mgrwt>
<rscale>  2 0.72389768E+02</rscale>
<asrwt>0</asrwt>
<pdfrwt beam="1">  1       21 0.25481597E-01 0.72389768E+02</pdfrwt>
<pdfrwt beam="2">  1       21 0.12459428E-01 0.72389768E+02</pdfrwt>
<totfact> 0.79869247E+05</totfact>
</mgrwt>
</event>
<event>
 5    1  0.1854763E+000  0.1197227E+03  0.7546771E-02  0.1243555E+00
         21   -1    0    0  501  502  0.00000000000E+00  0.00000000000E+00  0.35731838817E+02  0.35731838817E+02  0.00000000000E+00 0. -1.
         21   -1    0    0  502  503 -0.00000000000E+00 -0.00000000000E+00 -0.42495430503E+03  0.42495430503E+03  0.00000000000E+00 0. -1.
         24    1    1    2    0    0 -0.58663298759E+02 -0.21342066026E+02 -0.17600185290E+03  0.20332421051E+03  0.80419002446E+02 0. -1.
          1    1    1    2  501    0  0.95583415617E+02  0.29099985583E+02 -0.11611443075E+03  0.15318472356E+03  0.00000000000E+00 0. -1.
         -2    1    1    2    0  503 -0.36920116859E+02 -0.77579195575E+01 -0.97106182565E+02  0.10417720978E+03  0.00000000000E+00 0.  1.
<mgrwt>
<rscale>  2 0.11972274E+03</rscale>
<asrwt>0</asrwt>
<pdfrwt beam="1">  1       21 0.54972062E-02 0.11972274E+03</pdfrwt>
<pdfrwt beam="2">  1       21 0.65377583E-01 0.11972274E+03</pdfrwt>
<totfact> 0.49796394E+05</totfact>
</mgrwt>
</event>
<event>
 5    1  0.1854763E+000  0.1034175E+03  0.7546771E-02  0.1273269E+00
         21   -1    0    0  503  502  0.00000000000E+00  0.00000000000E+00  0.51239451633E+02  0.51239451633E+02  0.00000000000E+00 0. -1.
         21   -1    0    0  501  503 -0.00000000000E+00 -0.00000000000E+00 -0.26219558887E+03  0.26219558887E+03  0.00000000000E+00 0. -1.
         24    1    1    2    0    0  0.17198649825E+02  0.67200142686E+02 -0.42960327783E+02  0.11456202883E+03  0.80419002446E+02 0. -1.
          1    1    1    2  501    0  0.16195351070E+02 -0.65197510496E+02 -0.13987151269E+03  0.15516779573E+03  0.00000000000E+00 0. -1.
         -2    1    1    2    0  502 -0.33394000894E+02 -0.20026321899E+01 -0.28124296769E+02  0.43705215938E+02  0.00000000000E+00 0.  1.
<mgrwt>
<rscale>  2 0.10341746E+03</rscale>
<asrwt>0</asrwt>
<pdfrwt beam="1">  1       21 0.78829925E-02 0.10341746E+03</pdfrwt>
<pdfrwt beam="2">  1       21 0.40337783E-01 0.10341746E+03</pdfrwt>
<totfact> 0.73217790E+05</totfact>
</mgrwt>
</event>
<event>
 5    1  0.1854763E+000  0.8364762E+02  0.7546771E-02  0.1319008E+00
         21   -1    0    0  503  502  0.00000000000E+00  0.00000000000E+00  0.40281881003E+03  0.40281881003E+03  0.00000000000E+00 0. -1.
         21   -1    0    0  501  503 -0.00000000000E+00 -0.00000000000E+00 -0.17697834448E+02  0.17697834448E+02  0.00000000000E+00 0. -1.
         24    1    1    2    0    0 -0.97013591452E+01  0.33622853707E+02  0.22271251787E+03  0.23935892345E+03  0.80419002446E+02 0. -1.
          1    1    1    2  501    0 -0.73899301704E+01 -0.53138816664E+02  0.98064485151E+02  0.11178098296E+03  0.00000000000E+00 0. -1.
         -2    1    1    2    0  502  0.17091289316E+02  0.19515962957E+02  0.64343972561E+02  0.69376738072E+02  0.00000000000E+00 0.  1.
<mgrwt>
<rscale>  2 0.83647617E+02</rscale>
<asrwt>0</asrwt>
<pdfrwt beam="1">  1       21 0.61972118E-01 0.83647617E+02</pdfrwt>
<pdfrwt beam="2">  1       21 0.27227441E-02 0.83647617E+02</pdfrwt>
<totfact> 0.17712029E+06</totfact>
</mgrwt>
</event>
<event>
 5    1  0.1854763E+000  0.7903352E+02  0.7546771E-02  0.1331817E+00
         21   -1    0    0  501  502  0.00000000000E+00  0.00000000000E+00  0.15703969120E+03  0.15703969120E+03  0.00000000000E+00 0. -1.
         21   -1    0    0  502  503 -0.00000000000E+00 -0.00000000000E+00 -0.23353008652E+04  0.23353008652E+04  0.00000000000E+00 0.  1.
         24    1    1    2    0    0 -0.11735513744E+02  0.79710193272E+01 -0.37617684721E+02  0.89908651364E+02  0.80419002446E+02 0.  0.
          1    1    1    2  501    0  0.42440156532E+02 -0.14808612123E+02  0.12692293882E+03  0.13464729585E+03  0.00000000000E+00 0. -1.
         -2    1    1    2    0  503 -0.30704642788E+02  0.68375927955E+01 -0.22675664281E+04  0.22677846092E+04  0.00000000000E+00 0.  1.
<mgrwt>
<rscale>  2 0.79033521E+02</rscale>
<asrwt>0</asrwt>
<pdfrwt beam="1">  1       21 0.24159952E-01 0.79033521E+02</pdfrwt>
<pdfrwt beam="2">  1       21 0.35927706E+00 0.79033521E+02</pdfrwt>
<totfact> 0.33151506E+02</totfact>
</mgrwt>
</event>
<event>
 5    1  0.1854763E+000  0.9864747E+02  0.7546771E-02  0.1283166E+00
         21   -1    0    0  501  502  0.00000000000E+00  0.00000000000E+00  0.14079254489E+02  0.14079254489E+02  0.00000000000E+00 0.  1.
         21   -1    0    0  502  503 -0.00000000000E+00 -0.00000000000E+00 -0.83359528223E+03  0.83359528223E+03  0.00000000000E+00 0.  1.
         24    1    1    2    0    0 -0.18646473339E+01 -0.59204336774E+02 -0.23915625472E+03  0.25917476831E+03  0.80419002446E+02 0.  1.
          1    1    1    2  501    0  0.25896742600E+02 -0.71316729882E+01 -0.14696471806E+03  0.14939923156E+03  0.00000000000E+00 0. -1.
         -2    1    1    2    0  503 -0.24032095266E+02  0.66336009763E+02 -0.43339505496E+03  0.43910053684E+03  0.00000000000E+00 0.  1.
<mgrwt>
<rscale>  2 0.98647474E+02</rscale>
<asrwt>0</asrwt>
<pdfrwt beam="1">  1       21 0.21660390E-02 0.98647474E+02</pdfrwt>
<pdfrwt beam="2">  1       21 0.12824543E+00 0.98647474E+02</pdfrwt>
<totfact> 0.49372222E+05</totfact>
</mgrwt>
</event>
<event>
 5    1  0.1854763E+000  0.9004875E+02  0.7546771E-02  0.1302734E+00
         21   -1    0    0  501  502  0.00000000000E+00  0.00000000000E+00  0.75684874310E+02  0.75684874310E+02  0.00000000000E+00 0.  1.
         21   -1    0    0  502  503 -0.00000000000E+00 -0.00000000000E+00 -0.13733861440E+03  0.13733861440E+03  0.00000000000E+00 0.  1.
         24    1    1    2    0    0  0.29481197358E+02 -0.19773804482E+02 -0.91955311860E+01  0.88385055804E+02  0.80419002446E+02 0.  1.
          1    1    1    2  501    0 -0.62414133572E+01 -0.33496558121E+02  0.13569334275E+02  0.36675625139E+02  0.00000000000E+00 0. -1.
         -2    1    1    2    0  503 -0.23239784001E+02  0.53270362603E+02 -0.66027543182E+02  0.87962807770E+02  0.00000000000E+00 0.  1.
<mgrwt>
<rscale>  2 0.90048746E+02</rscale>
<asrwt>0</asrwt>
<pdfrwt beam="1">  1       21 0.11643827E-01 0.90048746E+02</pdfrwt>
<pdfrwt beam="2">  1       21 0.21129017E-01 0.90048746E+02</pdfrwt>
<totfact> 0.12783538E+06</totfact>
</mgrwt>
</event>
<event>
 5    1  0.2375008E+000  0.1216919E+03  0.7546771E-02  0.1240332E+00
         21   -1    0    0  503  502  0.00000000000E+00  0.00000000000E+00  0.82340338583E+02  0.82340338583E+02  0.00000000000E+00 0.  1.
         21   -1    0    0  501  503 -0.00000000000E+00 -0.00000000000E+00 -0.82342438596E+03  0.82342438596E+03  0.00000000000E+00 0. -1.
         24    1    1    2    0    0 -0.54612559641E+02 -0.76955094714E+01 -0.48431748004E+02  0.10887884416E+03  0.80419002446E+02 0.  0.
          1    1    1    2  501    0  0.93269015192E+02  0.33822474841E+02 -0.73025381264E+03  0.73696248199E+03  0.00000000000E+00 0. -1.
         -2    1    1    2    0  502 -0.38656455551E+02 -0.26126965370E+02  0.37601513260E+02  0.59923398391E+02  0.00000000000E+00 0.  1.
<mgrwt>
<rscale>  2 0.12169194E+03</rscale>
<asrwt>0</asrwt>
<pdfrwt beam="1">  1       21 0.12667744E-01 0.12169194E+03</pdfrwt>
<pdfrwt beam="2">  1       21 0.12668068E+00 0.12169194E+03</pdfrwt>
<totfact> 0.25783268E+04</totfact>
</mgrwt>
</event>
<event>
 5    1  0.1854763E+000  0.9076455E+02  0.7546771E-02  0.1301011E+00
         21   -1    0    0  501  502  0.00000000000E+00  0.00000000000E+00  0.11349068787E+03  0.11349068787E+03  0.00000000000E+00 0. -1.
         21   -1    0    0  502  503 -0.00000000000E+00 -0.00000000000E+00 -0.81557478706E+02  0.81557478706E+02  0.00000000000E+00 0. -1.
         24    1    1    2    0    0 -0.59330396553E+02  0.19616414586E+02  0.13367788498E+02  0.10271715241E+03  0.80419002446E+02 0. -1.
          1    1    1    2  501    0  0.54774957783E+02  0.46717709413E+01  0.32598978979E+02  0.63912556469E+02  0.00000000000E+00 0. -1.
         -2    1    1    2    0  503  0.45554387695E+01 -0.24288185527E+02 -0.14033558315E+02  0.28418457692E+02  0.00000000000E+00 0.  1.
<mgrwt>
<rscale>  2 0.90764553E+02</rscale>
<asrwt>0</asrwt>
<pdfrwt beam="1">  1       21 0.17460106E-01 0.90764553E+02</pdfrwt>
<pdfrwt beam="2">  1       21 0.12547304E-01 0.90764553E+02</pdfrwt>
<totfact> 0.15880662E+06</totfact>
</mgrwt>
</event>
<event>
 5    1  0.1854763E+000  0.6999681E+02  0.7546771E-02  0.1360104E+00
         21   -1    0    0  503  502  0.00000000000E+00  0.00000000000E+00  0.32744213632E+03  0.32744213632E+03  0.00000000000E+00 0.  1.
         21   -1    0    0  501  503 -0.00000000000E+00 -0.00000000000E+00 -0.59469947131E+02  0.59469947131E+02  0.00000000000E+00 0. -1.
         24    1    1    2    0    0  0.65382867835E+01 -0.27506563411E+02  0.21345343867E+03  0.22984548431E+03  0.80419002446E+02 0.  1.
          1    1    1    2  501    0  0.20241951811E+02  0.87397942115E+01 -0.46189595422E+02  0.51182021660E+02  0.00000000000E+00 0. -1.
         -2    1    1    2    0  502 -0.26780238595E+02  0.18766769200E+02  0.10070834594E+03  0.10588457747E+03  0.00000000000E+00 0.  1.
<mgrwt>
<rscale>  2 0.69996812E+02</rscale>
<asrwt>0</asrwt>
<pdfrwt beam="1">  1       21 0.50375712E-01 0.69996812E+02</pdfrwt>
<pdfrwt beam="2">  1       21 0.91492229E-02 0.69996812E+02</pdfrwt>
<totfact> 0.36305646E+05</totfact>
</mgrwt>
</event>
<event>
 5    1  0.1854763E+000  0.1273945E+03  0.7546771E-02  0.1231374E+00
         21   -1    0    0  501  502  0.00000000000E+00  0.00000000000E+00  0.66697501334E+02  0.66697501334E+02  0.00000000000E+00 0. -1.
         21   -1    0    0  502  503 -0.00000000000E+00 -0.00000000000E+00 -0.33629363635E+03  0.33629363635E+03  0.00000000000E+00 0. -1.
         24    1    1    2    0    0  0.10762108104E+03  0.11217906783E+02 -0.34921862449E+02  0.13926554114E+03  0.80419002446E+02 0. -1.
          1    1    1    2  501    0 -0.92213239384E+02 -0.28789460640E+02 -0.18048927276E+03  0.20471563727E+03  0.00000000000E+00 0. -1.
         -2    1    1    2    0  503 -0.15407841659E+02  0.17571553857E+02 -0.54184999811E+02  0.59009959279E+02  0.00000000000E+00 0.  1.
<mgrwt>
<rscale>  2 0.12739448E+03</rscale>
<asrwt>0</asrwt>
<pdfrwt beam="1">  1       21 0.10261154E-01 0.12739448E+03</pdfrwt>
<pdfrwt beam="2">  1       21 0.51737482E-01 0.12739448E+03</pdfrwt>
<totfact> 0.27917958E+05</totfact>
</mgrwt>
</event>
<event>
 5    1  0.1854763E+000  0.1501369E+03  0.7546771E-02  0.1200305E+00
         21   -1    0    0  501  502  0.00000000000E+00  0.00000000000E+00  0.36799544382E+03  0.36799544382E+03  0.00000000000E+00 0. -1.
         21   -1    0    0  502  503 -0.00000000000E+00 -0.00000000000E+00 -0.83171549269E+02  0.83171549269E+02  0.00000000000E+00 0. -1.
         24    1    1    2    0    0 -0.75469220242E+02 -0.65119214973E+02  0.11124041390E+03  0.16964009256E+03  0.80419002446E+02 0. -1.
          1    1    1    2  501    0  0.57636965580E+02  0.10984530795E+03  0.19314956372E+03  0.22955340434E+03  0.00000000000E+00 0. -1.
         -2    1    1    2    0  503  0.17832254662E+02 -0.44726092975E+02 -0.19566083075E+02  0.51973496188E+02  0.00000000000E+00 0.  1.
<mgrwt>
<rscale>  2 0.15013691E+03</rscale>
<asrwt>0</asrwt>
<pdfrwt beam="1">  1       21 0.56614683E-01 0.15013691E+03</pdfrwt>
<pdfrwt beam="2">  1       21 0.12795623E-01 0.15013691E+03</pdfrwt>
<totfact> 0.15557287E+05</totfact>
</mgrwt>
</event>
<event>
 5    1  0.1854763E+000  0.1138974E+03  0.7546771E-02  0.1253518E+00
         21   -1    0    0  503  502  0.00000000000E+00  0.00000000000E+00  0.39684636829E+02  0.39684636829E+02  0.00000000000E+00 0.  1.
         21   -1    0    0  501  503 -0.00000000000E+00 -0.00000000000E+00 -0.15274031765E+04  0.15274031765E+04  0.00000000000E+00 0.  1.
         24    1    1    2    0    0 -0.49089844233E+02  0.33471000674E+02 -0.46260178563E+03  0.47328400429E+03  0.80419002446E+02 0.  1.
          1    1    1    2  501    0  0.85883083475E+01 -0.71641353372E+02 -0.10348011301E+04  0.10373136562E+04  0.00000000000E+00 0. -1.
         -2    1    1    2    0  502  0.40501535886E+02  0.38170352697E+02  0.96843759851E+01  0.56490152879E+02  0.00000000000E+00 0.  1.
<mgrwt>
<rscale>  2 0.11389741E+03</rscale>
<asrwt>0</asrwt>
<pdfrwt beam="1">  1       21 0.61053295E-02 0.11389741E+03</pdfrwt>
<pdfrwt beam="2">  1       21 0.23498508E+00 0.11389741E+03</pdfrwt>
<totfact> 0.16942632E+04</totfact>
</mgrwt>
</event>
<event>
 5    1  0.1854763E+000  0.6997314E+02  0.7546771E-02  0.1360184E+00
         21   -1    0    0  501  502  0.00000000000E+00  0.00000000000E+00  0.13886914200E+04  0.13886914200E+04  0.00000000000E+00 0.  1.
         21   -1    0    0  502  503 -0.00000000000E+00 -0.00000000000E+00 -0.56546491877E+01  0.56546491877E+01  0.00000000000E+00 0. -1.
         24    1    1    2    0    0 -0.23269959634E+02  0.27329993283E+02  0.10314206155E+04  0.10351734741E+04  0.80419002446E+02 0.  0.
          1    1    1    2  501    0 -0.49793014290E+01 -0.22717573805E+02  0.29319819093E+03  0.29411912683E+03  0.00000000000E+00 0. -1.
         -2    1    1    2    0  503  0.28249261063E+02 -0.46124194777E+01  0.58417964452E+02  0.65053468277E+02  0.00000000000E+00 0.  1.
<mgrwt>
<rscale>  2 0.69973140E+02</rscale>
<asrwt>0</asrwt>
<pdfrwt beam="1">  1       21 0.21364456E+00 0.69973140E+02</pdfrwt>
<pdfrwt beam="2">  1       21 0.86994713E-03 0.69973140E+02</pdfrwt>
<totfact> 0.54655508E+05</totfact>
</mgrwt>
</event>
<event>
 5    1  0.1854763E+000  0.7197123E+02  0.7546771E-02  0.1353515E+00
         21   -1    0    0  501  502  0.00000000000E+00  0.00000000000E+00  0.10203713121E+02  0.10203713121E+02  0.00000000000E+00 0. -1.
         21   -1    0    0  502  503 -0.00000000000E+00 -0.00000000000E+00 -0.56253768761E+03  0.56253768761E+03  0.00000000000E+00 0. -1.
         24    1    1    2    0    0 -0.78676098144E+01  0.23086850222E+02 -0.25184621554E+03  0.26549695699E+03  0.80419002446E+02 0. -1.
          1    1    1    2  501    0  0.31116149463E+02 -0.18528270815E+02 -0.12420851395E+03  0.12938031734E+03  0.00000000000E+00 0. -1.
         -2    1    1    2    0  503 -0.23248539649E+02 -0.45585794075E+01 -0.17627924500E+03  0.17786412640E+03  0.00000000000E+00 0.  1.
<mgrwt>
<rscale>  2 0.71971227E+02</rscale>
<asrwt>0</asrwt>
<pdfrwt beam="1">  1       21 0.15698022E-02 0.71971227E+02</pdfrwt>
<pdfrwt beam="2">  1       21 0.86544249E-01 0.71971227E+02</pdfrwt>
<totfact> 0.20589863E+06</totfact>
</mgrwt>
</event>
<event>
 5    1  0.1854763E+000  0.7694440E+02  0.7546771E-02  0.1337953E+00
         21   -1    0    0  501  502  0.00000000000E+00  0.00000000000E+00  0.14932004868E+02  0.14932004868E+02  0.00000000000E+00 0.  1.
         21   -1    0    0  502  503 -0.00000000000E+00 -0.00000000000E+00 -0.54537890178E+03  0.54537890178E+03  0.00000000000E+00 0.  1.
         24    1    1    2    0    0 -0.61944068199E+01  0.39960905685E+02 -0.15352962203E+03  0.17797136134E+03  0.80419002446E+02 0.  1.
          1    1    1    2  501    0 -0.21752277154E+02 -0.19811317919E+02 -0.15571308265E+03  0.15846833750E+03  0.00000000000E+00 0. -1.
         -2    1    1    2    0  503  0.27946683974E+02 -0.20149587766E+02 -0.22120419223E+03  0.22387120782E+03  0.00000000000E+00 0.  1.
<mgrwt>
<rscale>  2 0.76944399E+02</rscale>
<asrwt>0</asrwt>
<pdfrwt beam="1">  1       21 0.22972316E-02 0.76944399E+02</pdfrwt>
<pdfrwt beam="2">  1       21 0.83904445E-01 0.76944399E+02</pdfrwt>
<totfact> 0.12068914E+06</totfact>
</mgrwt>
</event>
<event>
 5    1  0.1854763E+000  0.1119395E+03  0.7546771E-02  0.1257020E+00
         21   -1    0    0  501  502  0.00000000000E+00  0.00000000000E+00  0.36505838116E+02  0.36505838116E+02  0.00000000000E+00 0. -1.
         21   -1    0    0  502  503 -0.00000000000E+00 -0.00000000000E+00 -0.10679584864E+04  0.10679584864E+04  0.00000000000E+00 0.  1.
         24    1    1    2    0    0 -0.56142993149E+02  0.64537120745E+02 -0.26992335468E+03  0.29435167570E+03  0.80419002446E+02 0.  1.
          1    1    1    2  501    0  0.56745370104E+02 -0.17430666685E+02 -0.13857518753E+02  0.60958149539E+02  0.00000000000E+00 0. -1.
         -2    1    1    2    0  503 -0.60237695456E+00 -0.47106454060E+02 -0.74767177481E+03  0.74915449923E+03  0.00000000000E+00 0.  1.
<mgrwt>
<rscale>  2 0.11193949E+03</rscale>
<asrwt>0</asrwt>
<pdfrwt beam="1">  1       21 0.56162817E-02 0.11193949E+03</pdfrwt>
<pdfrwt beam="2">  1       21 0.16430134E+00 0.11193949E+03</pdfrwt>
<totfact> 0.54490352E+04</totfact>
</mgrwt>
</event>
<event>
 5    1  0.1854763E+000  0.7130613E+02  0.7546771E-02  0.1355707E+00
         21   -1    0    0  503  502  0.00000000000E+00  0.00000000000E+00  0.13231510949E+03  0.13231510949E+03  0.00000000000E+00 0.  1.
         21   -1    0    0  501  503 -0.00000000000E+00 -0.00000000000E+00 -0.87862767878E+02  0.87862767878E+02  0.00000000000E+00 0.  1.
         24    1    1    2    0    0 -0.10800639714E+02  0.10396153693E+02 -0.56186002167E+02  0.99241204264E+02  0.80419002446E+02 0.  1.
          1    1    1    2  501    0  0.83241657866E+01  0.24473509311E+02  0.18857213321E+02  0.31997482530E+02  0.00000000000E+00 0. -1.
         -2    1    1    2    0  502  0.24764739275E+01 -0.34869663004E+02  0.81781130456E+02  0.88939190573E+02  0.00000000000E+00 0.  1.
<mgrwt>
<rscale>  2 0.71306127E+02</rscale>
<asrwt>0</asrwt>
<pdfrwt beam="1">  1       21 0.20356171E-01 0.71306127E+02</pdfrwt>
<pdfrwt beam="2">  1       21 0.13517349E-01 0.71306127E+02</pdfrwt>
<totfact> 0.10464659E+06</totfact>
</mgrwt>
</event>
<event>
 5    1  0.1854763E+000  0.8078371E+02  0.7546771E-02  0.1326842E+00
         21   -1    0    0  501  502  0.00000000000E+00  0.00000000000E+00  0.13995706232E+04  0.13995706232E+04  0.00000000000E+00 0. -1.
         21   -1    0    0  502  503 -0.00000000000E+00 -0.00000000000E+00 -0.48959824872E+01  0.48959824872E+01  0.00000000000E+00 0. -1.
         24    1    1    2    0    0 -0.55377448982E+02 -0.19581909643E+02  0.96205678982E+03  0.96719728899E+03  0.80419002446E+02 0. -1.
          1    1    1    2  501    0  0.28670751626E+02  0.20521755868E+02  0.29330075520E+03  0.29541240235E+03  0.00000000000E+00 0. -1.
         -2    1    1    2    0  503  0.26706697356E+02 -0.93984622528E+00  0.13931709571E+03  0.14185691436E+03  0.00000000000E+00 0.  1.
<mgrwt>
<rscale>  2 0.80783706E+02</rscale>
<asrwt>0</asrwt>
<pdfrwt beam="1">  1       21 0.21531824E+00 0.80783706E+02</pdfrwt>
<pdfrwt beam="2">  1       21 0.75322919E-03 0.80783706E+02</pdfrwt>
<totfact> 0.66342624E+05</totfact>
</mgrwt>
</event>
<event>
 5    1  0.1854763E+000  0.1340610E+03  0.7546771E-02  0.1221551E+00
         21   -1    0    0  503  502  0.00000000000E+00  0.00000000000E+00  0.24248038725E+03  0.24248038725E+03  0.00000000000E+00 0.  1.
         21   -1    0    0  501  503 -0.00000000000E+00 -0.00000000000E+00 -0.13766526112E+03  0.13766526112E+03  0.00000000000E+00 0.  1.
         24    1    1    2    0    0 -0.82863645962E+02  0.71483673114E+02 -0.71918136871E+02  0.15367411529E+03  0.80419002446E+02 0.  1.
          1    1    1    2  501    0 -0.91209947180E+01 -0.30096907202E+02  0.12718398326E+02  0.33923060353E+02  0.00000000000E+00 0. -1.
         -2    1    1    2    0  502  0.91984640680E+02 -0.41386765912E+02  0.16401486468E+03  0.19254847272E+03  0.00000000000E+00 0.  1.
<mgrwt>
<rscale>  2 0.13406099E+03</rscale>
<asrwt>0</asrwt>
<pdfrwt beam="1">  1       21 0.37304675E-01 0.13406099E+03</pdfrwt>
<pdfrwt beam="2">  1       21 0.21179271E-01 0.13406099E+03</pdfrwt>
<totfact> 0.14645193E+05</totfact>
</mgrwt>
</event>
<event>
 5    1  0.1854763E+000  0.6774931E+02  0.7546771E-02  0.1367918E+00
         21   -1    0    0  501  502  0.00000000000E+00  0.00000000000E+00  0.42119676090E+02  0.42119676090E+02  0.00000000000E+00 0. -1.
         21   -1    0    0  502  503 -0.00000000000E+00 -0.00000000000E+00 -0.27956881848E+03  0.27956881848E+03  0.00000000000E+00 0. -1.
         24    1    1    2    0    0 -0.81253912688E+00  0.41711386888E+02 -0.14726316189E+03  0.17289926206E+03  0.80419002446E+02 0. -1.
          1    1    1    2  501    0  0.86870986427E+01 -0.19927009666E+02  0.23939597982E+02  0.32336600759E+02  0.00000000000E+00 0. -1.
         -2    1    1    2    0  503 -0.78745595159E+01 -0.21784377222E+02 -0.11412557849E+03  0.11645263176E+03  0.00000000000E+00 0.  1.
<mgrwt>
<rscale>  2 0.67749313E+02</rscale>
<asrwt>0</asrwt>
<pdfrwt beam="1">  1       21 0.64799503E-02 0.67749313E+02</pdfrwt>
<pdfrwt beam="2">  1       21 0.43010587E-01 0.67749313E+02</pdfrwt>
<totfact> 0.89288005E+05</totfact>
</mgrwt>
</event>
<event>
 5    1  0.1854763E+000  0.1089888E+03  0.7546771E-02  0.1262454E+00
         21   -1    0    0  503  502  0.00000000000E+00  0.00000000000E+00  0.10020416627E+03  0.10020416627E+03  0.00000000000E+00 0.  1.
         21   -1    0    0  501  503 -0.00000000000E+00 -0.00000000000E+00 -0.19188273686E+03  0.19188273686E+03  0.00000000000E+00 0.  1.
         24    1    1    2    0    0  0.49397936718E+01  0.87985150429E+02 -0.71402964138E+02  0.13903736009E+03  0.80419002446E+02 0.  1.
          1    1    1    2  501    0 -0.24545415428E+02 -0.56258312137E+02 -0.68571049033E+02  0.92029690147E+02  0.00000000000E+00 0. -1.
         -2    1    1    2    0  502  0.19605621756E+02 -0.31726838292E+02  0.48295442583E+02  0.61019852890E+02  0.00000000000E+00 0.  1.
<mgrwt>
<rscale>  2 0.10898883E+03</rscale>
<asrwt>0</asrwt>
<pdfrwt beam="1">  1       21 0.15416026E-01 0.10898883E+03</pdfrwt>
<pdfrwt beam="2">  1       21 0.29520421E-01 0.10898883E+03</pdfrwt>
<totfact> 0.41538340E+05</totfact>
</mgrwt>
</event>
<event>
 5    1  0.1854763E+000  0.9888350E+02  0.7546771E-02  0.1282661E+00
         21   -1    0    0  501  502  0.00000000000E+00  0.00000000000E+00  0.77373684616E+03  0.77373684616E+03  0.00000000000E+00 0.  1.
         21   -1    0    0  502  503 -0.00000000000E+00 -0.00000000000E+00 -0.19452635091E+02  0.19452635091E+02  0.00000000000E+00 0. -1.
         24    1    1    2    0    0  0.68862408799E+02 -0.11490423489E+02  0.55981862405E+03  0.56985802527E+03  0.80419002446E+02 0.  1.
          1    1    1    2  501    0 -0.58391518972E+02  0.33199115722E+02  0.18604778696E+03  0.19780174368E+03  0.00000000000E+00 0. -1.
         -2    1    1    2    0  503 -0.10470889827E+02 -0.21708692233E+02  0.84178000671E+01  0.25529712302E+02  0.00000000000E+00 0.  1.
<mgrwt>
<rscale>  2 0.98883505E+02</rscale>
<asrwt>0</asrwt>
<pdfrwt beam="1">  1       21 0.11903641E+00 0.98883505E+02</pdfrwt>
<pdfrwt beam="2">  1       21 0.29927137E-02 0.98883505E+02</pdfrwt>
<totfact> 0.35081678E+05</totfact>
</mgrwt>
</event>
<event>
 5    1  0.1854763E+000  0.1135145E+03  0.7546771E-02  0.1254197E+00
         21   -1    0    0  503  502  0.00000000000E+00  0.00000000000E+00  0.49195862620E+03  0.49195862620E+03  0.00000000000E+00 0. -1.
         21   -1    0    0  501  503 -0.00000000000E+00 -0.00000000000E+00 -0.68671191956E+02  0.68671191956E+02  0.00000000000E+00 0. -1.
         24    1    1    2    0    0 -0.82358036324E+02  0.47347766728E+02  0.17687245501E+01  0.12447891991E+03  0.80419002446E+02 0. -1.
          1    1    1    2  501    0  0.70447918368E+02 -0.20782012786E+02  0.20656957519E+03  0.21923911752E+03  0.00000000000E+00 0. -1.
         -2    1    1    2    0  502  0.11910117956E+02 -0.26565753942E+02  0.21494913450E+03  0.21691178072E+03  0.00000000000E+00 0.  1.
<mgrwt>
<rscale>  2 0.11351453E+03</rscale>
<asrwt>0</asrwt>
<pdfrwt beam="1">  1       21 0.75685940E-01 0.11351453E+03</pdfrwt>
<pdfrwt beam="2">  1       21 0.10564799E-01 0.11351453E+03</pdfrwt>
<totfact> 0.11824977E+05</totfact>
</mgrwt>
</event>
<event>
 5    1  0.1854763E+000  0.9731197E+02  0.7546771E-02  0.1286052E+00
         21   -1    0    0  501  502  0.00000000000E+00  0.00000000000E+00  0.63962268830E+03  0.63962268830E+03  0.00000000000E+00 0.  1.
         21   -1    0    0  502  503 -0.00000000000E+00 -0.00000000000E+00 -0.15777120380E+02  0.15777120380E+02  0.00000000000E+00 0. -1.
         24    1    1    2    0    0  0.50033036030E+02 -0.63216776593E+02  0.37785165505E+03  0.39463749785E+03  0.80419002446E+02 0.  0.
          1    1    1    2  501    0 -0.35722221889E+02  0.41676171564E+02  0.20558361344E+03  0.21278534378E+03  0.00000000000E+00 0. -1.
         -2    1    1    2    0  503 -0.14310814141E+02  0.21540605029E+02  0.40410299431E+02  0.47976967042E+02  0.00000000000E+00 0.  1.
<mgrwt>
<rscale>  2 0.97311974E+02</rscale>
<asrwt>0</asrwt>
<pdfrwt beam="1">  1       21 0.98403470E-01 0.97311974E+02</pdfrwt>
<pdfrwt beam="2">  1       21 0.24272498E-02 0.97311974E+02</pdfrwt>
<totfact> 0.77207183E+05</totfact>
</mgrwt>
</event>
<event>
 5    1  0.1854763E+000  0.7949435E+02  0.7546771E-02  0.1330493E+00
         21   -1    0    0  501  502  0.00000000000E+00  0.00000000000E+00  0.71523236213E+03  0.71523236213E+03  0.00000000000E+00 0. -1.
         21   -1    0    0  502  503 -0.00000000000E+00 -0.00000000000E+00 -0.24429806865E+02  0.24429806865E+02  0.00000000000E+00 0.  1.
         24    1    1    2    0    0 -0.72352558320E+01 -0.80030930031E+01  0.24877184504E+03  0.26166972554E+03  0.80419002446E+02 0.  0.
          1    1    1    2  501    0  0.18016587677E+02 -0.31834173616E+02  0.43450442034E+03  0.43604140095E+03  0.00000000000E+00 0. -1.
         -2    1    1    2    0  503 -0.10781331845E+02  0.39837266619E+02  0.75262898773E+01  0.41951042506E+02  0.00000000000E+00 0.  1.
<mgrwt>
<rscale>  2 0.79494355E+02</rscale>
<asrwt>0</asrwt>
<pdfrwt beam="1">  1       21 0.11003573E+00 0.79494355E+02</pdfrwt>
<pdfrwt beam="2">  1       21 0.37584324E-02 0.79494355E+02</pdfrwt>
<totfact> 0.29303515E+05</totfact>
</mgrwt>
</event>
<event>
 5    1  0.1854763E+000  0.9982118E+02  0.7546771E-02  0.1280672E+00
         21   -1    0    0  501  502  0.00000000000E+00  0.00000000000E+00  0.11345472342E+03  0.11345472342E+03  0.00000000000E+00 0. -1.
         21   -1    0    0  502  503 -0.00000000000E+00 -0.00000000000E+00 -0.22982382557E+03  0.22982382557E+03  0.00000000000E+00 0.  1.
         24    1    1    2    0    0  0.18514630892E+02 -0.23037532412E+02 -0.15586580254E+03  0.17786197967E+03  0.80419002446E+02 0.  1.
          1    1    1    2  501    0 -0.18353781234E+02 -0.43610887682E+02  0.75925494602E+02  0.89462011718E+02  0.00000000000E+00 0. -1.
         -2    1    1    2    0  503 -0.16084965837E+00  0.66648420094E+02 -0.36428794213E+02  0.75954557608E+02  0.00000000000E+00 0.  1.
<mgrwt>
<rscale>  2 0.99821178E+02</rscale>
<asrwt>0</asrwt>
<pdfrwt beam="1">  1       21 0.17454573E-01 0.99821178E+02</pdfrwt>
<pdfrwt beam="2">  1       21 0.35357512E-01 0.99821178E+02</pdfrwt>
<totfact> 0.23449204E+05</totfact>
</mgrwt>
</event>
<event>
 5    1  0.1854763E+000  0.7889855E+02  0.7546771E-02  0.1332207E+00
         21   -1    0    0  501  502  0.00000000000E+00  0.00000000000E+00  0.12357153001E+03  0.12357153001E+03  0.00000000000E+00 0.  1.
         21   -1    0    0  502  503 -0.00000000000E+00 -0.00000000000E+00 -0.90725096136E+02  0.90725096136E+02  0.00000000000E+00 0. -1.
         24    1    1    2    0    0 -0.36787815266E+02 -0.16308901108E+02  0.35783400078E+02  0.96783217982E+02  0.80419002446E+02 0.  0.
          1    1    1    2  501    0  0.43833992369E+02 -0.62142763340E+01  0.45591955936E+02  0.63550472566E+02  0.00000000000E+00 0. -1.
         -2    1    1    2    0  503 -0.70461771026E+01  0.22523177442E+02 -0.48528922142E+02  0.53962935595E+02  0.00000000000E+00 0.  1.
<mgrwt>
<rscale>  2 0.78898553E+02</rscale>
<asrwt>0</asrwt>
<pdfrwt beam="1">  1       21 0.19011005E-01 0.78898553E+02</pdfrwt>
<pdfrwt beam="2">  1       21 0.13957707E-01 0.78898553E+02</pdfrwt>
<totfact> 0.11230949E+06</totfact>
</mgrwt>
</event>
<event>
 5    1  0.1854763E+000  0.9406873E+02  0.7546771E-02  0.1293287E+00
         21   -1    0    0  503  502  0.00000000000E+00  0.00000000000E+00  0.13333144852E+03  0.13333144852E+03  0.00000000000E+00 0. -1.
         21   -1    0    0  501  503 -0.00000000000E+00 -0.00000000000E+00 -0.84678620833E+02  0.84678620833E+02  0.00000000000E+00 0.  1.
         24    1    1    2    0    0  0.33571984106E+02 -0.35492466885E+02  0.73134471733E+02  0.11917491444E+03  0.80419002446E+02 0. -1.
          1    1    1    2  501    0  0.26255719947E+02  0.44165257239E+01 -0.15539286932E+02  0.30827552089E+02  0.00000000000E+00 0. -1.
         -2    1    1    2    0  502 -0.59827704053E+02  0.31075941161E+02 -0.89423571104E+01  0.68007602825E+02  0.00000000000E+00 0.  1.
<mgrwt>
<rscale>  2 0.94068726E+02</rscale>
<asrwt>0</asrwt>
<pdfrwt beam="1">  1       21 0.20512530E-01 0.94068726E+02</pdfrwt>
<pdfrwt beam="2">  1       21 0.13027480E-01 0.94068726E+02</pdfrwt>
<totfact> 0.11090501E+06</totfact>
</mgrwt>
</event>
<event>
 5    1  0.1854763E+000  0.7366584E+02  0.7546771E-02  0.1348053E+00
         21   -1    0    0  503  502  0.00000000000E+00  0.00000000000E+00  0.16474151254E+03  0.16474151254E+03  0.00000000000E+00 0. -1.
         21   -1    0    0  501  503 -0.00000000000E+00 -0.00000000000E+00 -0.74941958265E+02  0.74941958265E+02  0.00000000000E+00 0. -1.
         24    1    1    2    0    0  0.24388219265E+02  0.12914475637E+02 -0.40988784419E+02  0.94386785740E+02  0.80419002446E+02 0. -1.
          1    1    1    2  501    0 -0.26003747035E+02  0.17825602106E+02  0.53417985367E+02  0.62027639895E+02  0.00000000000E+00 0. -1.
         -2    1    1    2    0  502  0.16155277701E+01 -0.30740077743E+02  0.77370353327E+02  0.83269045171E+02  0.00000000000E+00 0.  1.
<mgrwt>
<rscale>  2 0.73665843E+02</rscale>
<asrwt>0</asrwt>
<pdfrwt beam="1">  1       21 0.25344848E-01 0.73665843E+02</pdfrwt>
<pdfrwt beam="2">  1       21 0.11529532E-01 0.73665843E+02</pdfrwt>
<totfact> 0.92397065E+05</totfact>
</mgrwt>
</event>
<event>
 5    1  0.1854763E+000  0.7396259E+02  0.7546771E-02  0.1347114E+00
         21   -1    0    0  501  502  0.00000000000E+00  0.00000000000E+00  0.30251774816E+03  0.30251774816E+03  0.00000000000E+00 0.  1.
         21   -1    0    0  502  503 -0.00000000000E+00 -0.00000000000E+00 -0.26142358167E+02  0.26142358167E+02  0.00000000000E+00 0. -1.
         24    1    1    2    0    0 -0.28007041801E+02  0.26179958668E+01  0.24160860222E+03  0.25618973616E+03  0.80419002446E+02 0.  1.
          1    1    1    2  501    0  0.16702327420E+02 -0.29313590420E+02  0.24578996622E+02  0.41741842311E+02  0.00000000000E+00 0. -1.
         -2    1    1    2    0  503  0.11304714381E+02  0.26695594553E+02  0.10187791155E+02  0.30728527859E+02  0.00000000000E+00 0.  1.
<mgrwt>
<rscale>  2 0.73962592E+02</rscale>
<asrwt>0</asrwt>
<pdfrwt beam="1">  1       21 0.46541189E-01 0.73962592E+02</pdfrwt>
<pdfrwt beam="2">  1       21 0.40219015E-02 0.73962592E+02</pdfrwt>
<totfact> 0.16847867E+06</totfact>
</mgrwt>
</event>
<event>
 5    1  0.1854763E+000  0.7390793E+02  0.7546771E-02  0.1347287E+00
         21   -1    0    0  501  502  0.00000000000E+00  0.00000000000E+00  0.63064160316E+02  0.63064160316E+02  0.00000000000E+00 0. -1.
         21   -1    0    0  502  503 -0.00000000000E+00 -0.00000000000E+00 -0.32086761812E+03  0.32086761812E+03  0.00000000000E+00 0.  1.
         24    1    1    2    0    0 -0.55868622646E+01  0.20861706789E+02 -0.57395675825E+02  0.10113309744E+03  0.80419002446E+02 0.  0.
          1    1    1    2  501    0  0.22090040356E+02 -0.35944744489E+02  0.29707593841E+02  0.51599764254E+02  0.00000000000E+00 0. -1.
         -2    1    1    2    0  503 -0.16503178091E+02  0.15083037700E+02 -0.23011537582E+03  0.23119891674E+03  0.00000000000E+00 0.  1.
<mgrwt>
<rscale>  2 0.73907926E+02</rscale>
<asrwt>0</asrwt>
<pdfrwt beam="1">  1       21 0.97021784E-02 0.73907926E+02</pdfrwt>
<pdfrwt beam="2">  1       21 0.49364249E-01 0.73907926E+02</pdfrwt>
<totfact> 0.34199356E+05</totfact>
</mgrwt>
</event>
<event>
 5    1  0.1854763E+000  0.1031002E+03  0.7546771E-02  0.1273908E+00
         21   -1    0    0  501  502  0.00000000000E+00  0.00000000000E+00  0.41072445984E+02  0.41072445984E+02  0.00000000000E+00 0. -1.
         21   -1    0    0  502  503 -0.00000000000E+00 -0.00000000000E+00 -0.60127649450E+03  0.60127649450E+03  0.00000000000E+00 0.  1.
         24    1    1    2    0    0  0.11746872079E+02  0.18794906628E+02 -0.23282924084E+03  0.24732146866E+03  0.80419002446E+02 0.  0.
          1    1    1    2  501    0  0.61460401337E+01 -0.69109210792E+02 -0.64399823412E+01  0.69680199470E+02  0.00000000000E+00 0. -1.
         -2    1    1    2    0  503 -0.17892912213E+02  0.50314304164E+02 -0.32093482534E+03  0.32534727235E+03  0.00000000000E+00 0.  1.
<mgrwt>
<rscale>  2 0.10310024E+03</rscale>
<asrwt>0</asrwt>
<pdfrwt beam="1">  1       21 0.63188379E-02 0.10310024E+03</pdfrwt>
<pdfrwt beam="2">  1       21 0.92504075E-01 0.10310024E+03</pdfrwt>
<totfact> 0.18324783E+05</totfact>
</mgrwt>
</event>
<event>
 5    1  0.1854763E+000  0.8532553E+02  0.7546771E-02  0.1314583E+00
         21   -1    0    0  501  502  0.00000000000E+00  0.00000000000E+00  0.33915767550E+02  0.33915767550E+02  0.00000000000E+00 0. -1.
         21   -1    0    0  502  503 -0.00000000000E+00 -0.00000000000E+00 -0.42158975447E+03  0.42158975447E+03  0.00000000000E+00 0.  1.
         24    1    1    2    0    0 -0.38026797278E+02 -0.49218352947E+02 -0.34197069109E+03  0.35676274063E+03  0.80419002446E+02 0.  1.
          1    1    1    2  501    0  0.17063202361E+02  0.44273083422E+02  0.84256866892E+00  0.47454912417E+02  0.00000000000E+00 0. -1.
         -2    1    1    2    0  503  0.20963594917E+02  0.49452695254E+01 -0.46545864494E+02  0.51287868975E+02  0.00000000000E+00 0.  1.
<mgrwt>
<rscale>  2 0.85325531E+02</rscale>
<asrwt>0</asrwt>
<pdfrwt beam="1">  1       21 0.52178103E-02 0.85325531E+02</pdfrwt>
<pdfrwt beam="2">  1       21 0.64859964E-01 0.85325531E+02</pdfrwt>
<totfact> 0.55387563E+05</totfact>
</mgrwt>
</event>
<event>
 5    1  0.1854763E+000  0.1253356E+03  0.7546771E-02  0.1234546E+00
         21   -1    0    0  501  502  0.00000000000E+00  0.00000000000E+00  0.20768368396E+04  0.20768368396E+04  0.00000000000E+00 0. -1.
         21   -1    0    0  502  503 -0.00000000000E+00 -0.00000000000E+00 -0.20729430334E+03  0.20729430334E+03  0.00000000000E+00 0. -1.
         24    1    1    2    0    0  0.39897145723E+02  0.22708303243E+02 -0.14934981852E+03  0.17572715646E+03  0.80419002446E+02 0. -1.
          1    1    1    2  501    0  0.16615445267E+02 -0.77558021311E+02  0.20276174951E+04  0.20291683090E+04  0.00000000000E+00 0. -1.
         -2    1    1    2    0  503 -0.56512590990E+02  0.54849718068E+02 -0.87251403403E+01  0.79235677485E+02  0.00000000000E+00 0.  1.
<mgrwt>
<rscale>  2 0.12533558E+03</rscale>
<asrwt>0</asrwt>
<pdfrwt beam="1">  1       21 0.31951335E+00 0.12533558E+03</pdfrwt>
<pdfrwt beam="2">  1       21 0.31891433E-01 0.12533558E+03</pdfrwt>
<totfact> 0.28318037E+02</totfact>
</mgrwt>
</event>
<event>
 5    1  0.1854763E+000  0.6971477E+02  0.7546771E-02  0.1361066E+00
         21   -1    0    0  501  502  0.00000000000E+00  0.00000000000E+00  0.60260401852E+03  0.60260401852E+03  0.00000000000E+00 0.  1.
         21   -1    0    0  502  503 -0.00000000000E+00 -0.00000000000E+00 -0.90583629999E+01  0.90583629999E+01  0.00000000000E+00 0.  1.
         24    1    1    2    0    0 -0.62019720735E+01  0.45728307861E+02  0.32009270874E+03  0.33325080756E+03  0.80419002446E+02 0.  1.
          1    1    1    2  501    0  0.68139266389E+01 -0.23343350921E+02  0.20384285195E+03  0.20528821184E+03  0.00000000000E+00 0. -1.
         -2    1    1    2    0  503 -0.61195456539E+00 -0.22384956940E+02  0.69610094838E+02  0.73123362129E+02  0.00000000000E+00 0.  1.
<mgrwt>
<rscale>  2 0.69714772E+02</rscale>
<asrwt>0</asrwt>
<pdfrwt beam="1">  1       21 0.92708279E-01 0.69714772E+02</pdfrwt>
<pdfrwt beam="2">  1       21 0.13935948E-02 0.69714772E+02</pdfrwt>
<totfact> 0.21259568E+06</totfact>
</mgrwt>
</event>
<event>
 5    1  0.1854763E+000  0.7582442E+02  0.7546771E-02  0.1341337E+00
         21   -1    0    0  501  502  0.00000000000E+00  0.00000000000E+00  0.29081178280E+02  0.29081178280E+02  0.00000000000E+00 0.  1.
         21   -1    0    0  502  503 -0.00000000000E+00 -0.00000000000E+00 -0.38102199770E+03  0.38102199770E+03  0.00000000000E+00 0.  1.
         24    1    1    2    0    0 -0.73360415991E+00  0.40806695764E+02 -0.15907855044E+03  0.18286313395E+03  0.80419002446E+02 0.  0.
          1    1    1    2  501    0  0.23195438505E+02 -0.24283016364E+02 -0.12447568508E+01  0.33604206147E+02  0.00000000000E+00 0. -1.
         -2    1    1    2    0  503 -0.22461834345E+02 -0.16523679400E+02 -0.19161751213E+03  0.19363583588E+03  0.00000000000E+00 0.  1.
<mgrwt>
<rscale>  2 0.75824416E+02</rscale>
<asrwt>0</asrwt>
<pdfrwt beam="1">  1       21 0.44740275E-02 0.75824416E+02</pdfrwt>
<pdfrwt beam="2">  1       21 0.58618768E-01 0.75824416E+02</pdfrwt>
<totfact> 0.88319150E+05</totfact>
</mgrwt>
</event>
<event>
 5    1  0.1854763E+000  0.9427493E+02  0.7546771E-02  0.1292818E+00
         21   -1    0    0  503  502  0.00000000000E+00  0.00000000000E+00  0.10458676175E+03  0.10458676175E+03  0.00000000000E+00 0.  1.
         21   -1    0    0  501  503 -0.00000000000E+00 -0.00000000000E+00 -0.17699227898E+03  0.17699227898E+03  0.00000000000E+00 0. -1.
         24    1    1    2    0    0  0.29631637068E+02  0.36292492311E+02 -0.56714114326E+02  0.10899030063E+03  0.80419002446E+02 0.  1.
          1    1    1    2  501    0 -0.38026874958E+02  0.16909909382E+02 -0.79107500187E+02  0.89386715122E+02  0.00000000000E+00 0. -1.
         -2    1    1    2    0  502  0.83952378902E+01 -0.53202401693E+02  0.63416097284E+02  0.83202024974E+02  0.00000000000E+00 0.  1.
<mgrwt>
<rscale>  2 0.94274928E+02</rscale>
<asrwt>0</asrwt>
<pdfrwt beam="1">  1       21 0.16090271E-01 0.94274928E+02</pdfrwt>
<pdfrwt beam="2">  1       21 0.27229581E-01 0.94274928E+02</pdfrwt>
<totfact> 0.44904503E+05</totfact>
</mgrwt>
</event>
<event>
 5    1  0.1854763E+000  0.7237605E+02  0.7546771E-02  0.1352195E+00
         21   -1    0    0  501  502  0.00000000000E+00  0.00000000000E+00  0.53629122814E+02  0.53629122814E+02  0.00000000000E+00 0. -1.
         21   -1    0    0  502  503 -0.00000000000E+00 -0.00000000000E+00 -0.70428726037E+03  0.70428726037E+03  0.00000000000E+00 0. -1.
         24    1    1    2    0    0 -0.10079442851E+02  0.34068571400E+02 -0.53303020501E+03  0.54023205952E+03  0.80419002446E+02 0. -1.
          1    1    1    2  501    0 -0.15660006746E+02 -0.25086336790E+02  0.44417486971E+02  0.53361720865E+02  0.00000000000E+00 0. -1.
         -2    1    1    2    0  503  0.25739449597E+02 -0.89822346107E+01 -0.16204541952E+03  0.16432260280E+03  0.00000000000E+00 0.  1.
<mgrwt>
<rscale>  2 0.72376054E+02</rscale>
<asrwt>0</asrwt>
<pdfrwt beam="1">  1       21 0.82506348E-02 0.72376054E+02</pdfrwt>
<pdfrwt beam="2">  1       21 0.10835188E+00 0.72376054E+02</pdfrwt>
<totfact> 0.82249251E+04</totfact>
</mgrwt>
</event>
<event>
 5    1  0.1854763E+000  0.9061377E+02  0.7546771E-02  0.1301372E+00
         21   -1    0    0  503  502  0.00000000000E+00  0.00000000000E+00  0.41473414341E+02  0.41473414341E+02  0.00000000000E+00 0. -1.
         21   -1    0    0  501  503 -0.00000000000E+00 -0.00000000000E+00 -0.22189465684E+03  0.22189465684E+03  0.00000000000E+00 0. -1.
         24    1    1    2    0    0 -0.66225575694E+02  0.22798673806E+02 -0.11478271278E+03  0.15667767394E+03  0.80419002446E+02 0. -1.
          1    1    1    2  501    0  0.43237458041E+02 -0.27333881313E+02 -0.65692183539E+02  0.83259124567E+02  0.00000000000E+00 0. -1.
         -2    1    1    2    0  502  0.22988117653E+02  0.45352075063E+01  0.53653823577E-01  0.23431272674E+02  0.00000000000E+00 0.  1.
<mgrwt>
<rscale>  2 0.90613772E+02</rscale>
<asrwt>0</asrwt>
<pdfrwt beam="1">  1       21 0.63805253E-02 0.90613772E+02</pdfrwt>
<pdfrwt beam="2">  1       21 0.34137639E-01 0.90613772E+02</pdfrwt>
<totfact> 0.14523269E+06</totfact>
</mgrwt>
</event>
<event>
 5    1  0.1854763E+000  0.1322243E+03  0.7546771E-02  0.1224192E+00
         21   -1    0    0  501  502  0.00000000000E+00  0.00000000000E+00  0.21507757944E+03  0.21507757944E+03  0.00000000000E+00 0.  1.
         21   -1    0    0  502  503 -0.00000000000E+00 -0.00000000000E+00 -0.11652009583E+03  0.11652009583E+03  0.00000000000E+00 0.  1.
         24    1    1    2    0    0  0.94829954892E+02 -0.26128654227E+02  0.11081691080E+03  0.16859131232E+03  0.80419002446E+02 0.  1.
          1    1    1    2  501    0 -0.52143532598E+01 -0.30792010492E+02  0.34904774905E+02  0.46836745203E+02  0.00000000000E+00 0. -1.
         -2    1    1    2    0  503 -0.89615601632E+02  0.56920664719E+02 -0.47164202095E+02  0.11616961775E+03  0.00000000000E+00 0.  1.
<mgrwt>
<rscale>  2 0.13222434E+03</rscale>
<asrwt>0</asrwt>
<pdfrwt beam="1">  1       21 0.33088858E-01 0.13222434E+03</pdfrwt>
<pdfrwt beam="2">  1       21 0.17926169E-01 0.13222434E+03</pdfrwt>
<totfact> 0.25237717E+05</totfact>
</mgrwt>
</event>
<event>
 5    1  0.1854763E+000  0.7828766E+02  0.7546771E-02  0.1333982E+00
         21   -1    0    0  503  502  0.00000000000E+00  0.00000000000E+00  0.99310005643E+03  0.99310005643E+03  0.00000000000E+00 0.  1.
         21   -1    0    0  501  503 -0.00000000000E+00 -0.00000000000E+00 -0.11092735851E+02  0.11092735851E+02  0.00000000000E+00 0.  1.
         24    1    1    2    0    0  0.54523159568E+02  0.13601850151E+02  0.24024942677E+03  0.25950874412E+03  0.80419002446E+02 0.  1.
          1    1    1    2  501    0 -0.22238378362E+02  0.25222056253E+01  0.13404145283E+03  0.13589708632E+03  0.00000000000E+00 0. -1.
         -2    1    1    2    0  502 -0.32284781206E+02 -0.16124055776E+02  0.60771644097E+03  0.60878696184E+03  0.00000000000E+00 0.  1.
<mgrwt>
<rscale>  2 0.78287664E+02</rscale>
<asrwt>0</asrwt>
<pdfrwt beam="1">  1       21 0.15278455E+00 0.78287664E+02</pdfrwt>
<pdfrwt beam="2">  1       21 0.17065755E-02 0.78287664E+02</pdfrwt>
<totfact> 0.46869722E+05</totfact>
</mgrwt>
</event>
<event>
 5    1  0.1854763E+000  0.7400552E+02  0.7546771E-02  0.1346979E+00
         21   -1    0    0  501  502  0.00000000000E+00  0.00000000000E+00  0.24822304102E+02  0.24822304102E+02  0.00000000000E+00 0. -1.
         21   -1    0    0  502  503 -0.00000000000E+00 -0.00000000000E+00 -0.42050901084E+03  0.42050901084E+03  0.00000000000E+00 0. -1.
         24    1    1    2    0    0 -0.38128239237E+02 -0.24925979917E+02 -0.27473661121E+03  0.28986632884E+03  0.80419002446E+02 0. -1.
          1    1    1    2  501    0  0.93071381259E+01  0.25094648069E+02  0.41525991015E+01  0.27085203730E+02  0.00000000000E+00 0. -1.
         -2    1    1    2    0  503  0.28821101111E+02 -0.16866815170E+00 -0.12510269462E+03  0.12837978237E+03  0.00000000000E+00 0.  1.
<mgrwt>
<rscale>  2 0.74005524E+02</rscale>
<asrwt>0</asrwt>
<pdfrwt beam="1">  1       21 0.38188166E-02 0.74005524E+02</pdfrwt>
<pdfrwt beam="2">  1       21 0.64693684E-01 0.74005524E+02</pdfrwt>
<totfact> 0.93068745E+05</totfact>
</mgrwt>
</event>
<event>
 5    1  0.1854763E+000  0.9413406E+02  0.7546771E-02  0.1293138E+00
         21   -1    0    0  501  502  0.00000000000E+00  0.00000000000E+00  0.11274944714E+03  0.11274944714E+03  0.00000000000E+00 0. -1.
         21   -1    0    0  502  503 -0.00000000000E+00 -0.00000000000E+00 -0.10249298729E+03  0.10249298729E+03  0.00000000000E+00 0.  1.
         24    1    1    2    0    0  0.45918692757E+02 -0.38456246952E+02 -0.46102142915E+02  0.11036318594E+03  0.80419002446E+02 0.  1.
          1    1    1    2  501    0 -0.34106125878E+01  0.44875844622E+02  0.34125496668E+02  0.56480290647E+02  0.00000000000E+00 0. -1.
         -2    1    1    2    0  503 -0.42508080169E+02 -0.64195976698E+01  0.22233106102E+02  0.48398957849E+02  0.00000000000E+00 0.  1.
<mgrwt>
<rscale>  2 0.94134055E+02</rscale>
<asrwt>0</asrwt>
<pdfrwt beam="1">  1       21 0.17346069E-01 0.94134055E+02</pdfrwt>
<pdfrwt beam="2">  1       21 0.15768152E-01 0.94134055E+02</pdfrwt>
<totfact> 0.10715421E+06</totfact>
</mgrwt>
</event>
<event>
 5    1  0.1854763E+000  0.1081249E+03  0.7546771E-02  0.1264082E+00
         21   -1    0    0  501  502  0.00000000000E+00  0.00000000000E+00  0.75193776943E+03  0.75193776943E+03  0.00000000000E+00 0.  1.
         21   -1    0    0  502  503 -0.00000000000E+00 -0.00000000000E+00 -0.20455635670E+02  0.20455635670E+02  0.00000000000E+00 0.  1.
         24    1    1    2    0    0  0.39850939799E+02  0.77626715830E+02  0.43020539923E+03  0.44627111255E+03  0.80419002446E+02 0.  1.
          1    1    1    2  501    0 -0.87842149382E+01 -0.62350095140E+02  0.27642647888E+03  0.28350713399E+03  0.00000000000E+00 0. -1.
         -2    1    1    2    0  503 -0.31066724861E+02 -0.15276620689E+02  0.24850255640E+02  0.42615158555E+02  0.00000000000E+00 0.  1.
<mgrwt>
<rscale>  2 0.10812488E+03</rscale>
<asrwt>0</asrwt>
<pdfrwt beam="1">  1       21 0.11568271E+00 0.10812488E+03</pdfrwt>
<pdfrwt beam="2">  1       21 0.31470215E-02 0.10812488E+03</pdfrwt>
<totfact> 0.34527594E+05</totfact>
</mgrwt>
</event>
<event>
 5    1  0.1854763E+000  0.6864742E+02  0.7546771E-02  0.1364754E+00
         21   -1    0    0  503  502  0.00000000000E+00  0.00000000000E+00  0.40505614537E+02  0.40505614537E+02  0.00000000000E+00 0.  1.
         21   -1    0    0  501  503 -0.00000000000E+00 -0.00000000000E+00 -0.48410870350E+03  0.48410870350E+03  0.00000000000E+00 0.  1.
         24    1    1    2    0    0  0.17422215504E+02 -0.17635186541E+02 -0.26345873066E+03  0.27657232710E+03  0.80419002446E+02 0.  1.
          1    1    1    2  501    0  0.34961017922E+01  0.29085308770E+02 -0.20875257653E+03  0.21079804582E+03  0.00000000000E+00 0. -1.
         -2    1    1    2    0  502 -0.20918317297E+02 -0.11450122229E+02  0.28608218232E+02  0.37243945119E+02  0.00000000000E+00 0.  1.
<mgrwt>
<rscale>  2 0.68647422E+02</rscale>
<asrwt>0</asrwt>
<pdfrwt beam="1">  1       21 0.62316328E-02 0.68647422E+02</pdfrwt>
<pdfrwt beam="2">  1       21 0.74478264E-01 0.68647422E+02</pdfrwt>
<totfact> 0.30662113E+05</totfact>
</mgrwt>
</event>
<event>
 5    1  0.1854763E+000  0.7514814E+02  0.7546771E-02  0.1343413E+00
         21   -1    0    0  501  502  0.00000000000E+00  0.00000000000E+00  0.20382899690E+03  0.20382899690E+03  0.00000000000E+00 0. -1.
         21   -1    0    0  502  503 -0.00000000000E+00 -0.00000000000E+00 -0.43532986741E+02  0.43532986741E+02  0.00000000000E+00 0.  1.
         24    1    1    2    0    0  0.11057656644E+02  0.11080750926E+02  0.84507546707E+02  0.11770215043E+03  0.80419002446E+02 0.  0.
          1    1    1    2  501    0  0.27701350781E+02 -0.10440535218E+02  0.84836809539E+02  0.89853513362E+02  0.00000000000E+00 0. -1.
         -2    1    1    2    0  503 -0.38759007424E+02 -0.64021570767E+00 -0.90483460888E+01  0.39806319845E+02  0.00000000000E+00 0.  1.
<mgrwt>
<rscale>  2 0.75148142E+02</rscale>
<asrwt>0</asrwt>
<pdfrwt beam="1">  1       21 0.31358307E-01 0.75148142E+02</pdfrwt>
<pdfrwt beam="2">  1       21 0.66973827E-02 0.75148142E+02</pdfrwt>
<totfact> 0.15663534E+06</totfact>
</mgrwt>
</event>
<event>
 5    1  0.1854763E+000  0.1026623E+03  0.7546771E-02  0.1274795E+00
         21   -1    0    0  501  502  0.00000000000E+00  0.00000000000E+00  0.12026288134E+03  0.12026288134E+03  0.00000000000E+00 0. -1.
         21   -1    0    0  502  503 -0.00000000000E+00 -0.00000000000E+00 -0.28962475251E+03  0.28962475251E+03  0.00000000000E+00 0. -1.
         24    1    1    2    0    0 -0.33289606844E+02 -0.46054474851E+02 -0.19471352452E+03  0.21819666625E+03  0.80419002446E+02 0. -1.
          1    1    1    2  501    0 -0.27932618090E+02 -0.34187815896E+01  0.87173070997E+02  0.91602748473E+02  0.00000000000E+00 0. -1.
         -2    1    1    2    0  503  0.61222224934E+02  0.49473256441E+02 -0.61821417638E+02  0.10008821912E+03  0.00000000000E+00 0.  1.
<mgrwt>
<rscale>  2 0.10266234E+03</rscale>
<asrwt>0</asrwt>
<pdfrwt beam="1">  1       21 0.18501982E-01 0.10266234E+03</pdfrwt>
<pdfrwt beam="2">  1       21 0.44557654E-01 0.10266234E+03</pdfrwt>
<totfact> 0.13318968E+05</totfact>
</mgrwt>
</event>
<event>
 5    1  0.1854763E+000  0.7098323E+02  0.7546771E-02  0.1356781E+00
         21   -1    0    0  501  502  0.00000000000E+00  0.00000000000E+00  0.41774174057E+03  0.41774174057E+03  0.00000000000E+00 0. -1.
         21   -1    0    0  502  503 -0.00000000000E+00 -0.00000000000E+00 -0.18746035413E+02  0.18746035413E+02  0.00000000000E+00 0. -1.
         24    1    1    2    0    0  0.70432273550E+01  0.21878176136E+02  0.12673475873E+03  0.15184589776E+03  0.80419002446E+02 0. -1.
          1    1    1    2  501    0  0.23183422219E+02 -0.50315052234E+01  0.22402281415E+03  0.22527540561E+03  0.00000000000E+00 0. -1.
         -2    1    1    2    0  503 -0.30226649574E+02 -0.16846670913E+02  0.48238132279E+02  0.59366472617E+02  0.00000000000E+00 0.  1.
<mgrwt>
<rscale>  2 0.70983225E+02</rscale>
<asrwt>0</asrwt>
<pdfrwt beam="1">  1       21 0.64267953E-01 0.70983225E+02</pdfrwt>
<pdfrwt beam="2">  1       21 0.28840058E-02 0.70983225E+02</pdfrwt>
<totfact> 0.14868700E+06</totfact>
</mgrwt>
</event>
<event>
 5    1  0.1854763E+000  0.8645970E+02  0.7546771E-02  0.1311659E+00
         21   -1    0    0  501  502  0.00000000000E+00  0.00000000000E+00  0.55809596833E+03  0.55809596833E+03  0.00000000000E+00 0.  1.
         21   -1    0    0  502  503 -0.00000000000E+00 -0.00000000000E+00 -0.29718525792E+02  0.29718525792E+02  0.00000000000E+00 0.  1.
         24    1    1    2    0    0 -0.48102228377E+02  0.42735536283E+02  0.37678461783E+03  0.39060723832E+03  0.80419002446E+02 0.  1.
          1    1    1    2  501    0  0.37957215660E+02 -0.15745178682E+02  0.16155608361E+03  0.16670041698E+03  0.00000000000E+00 0. -1.
         -2    1    1    2    0  503  0.10145012717E+02 -0.26990357601E+02 -0.99632589072E+01  0.30506838815E+02  0.00000000000E+00 0.  1.
<mgrwt>
<rscale>  2 0.86459704E+02</rscale>
<asrwt>0</asrwt>
<pdfrwt beam="1">  1       21 0.85860911E-01 0.86459704E+02</pdfrwt>
<pdfrwt beam="2">  1       21 0.45720813E-02 0.86459704E+02</pdfrwt>
<totfact> 0.37427914E+05</totfact>
</mgrwt>
</event>
<event>
 5    1  0.1854763E+000  0.9503103E+02  0.7546771E-02  0.1291106E+00
         21   -1    0    0  501  502  0.00000000000E+00  0.00000000000E+00  0.26811202276E+03  0.26811202276E+03  0.00000000000E+00 0. -1.
         21   -1    0    0  502  503 -0.00000000000E+00 -0.00000000000E+00 -0.78975876350E+02  0.78975876350E+02  0.00000000000E+00 0.  1.
         24    1    1    2    0    0 -0.94766345991E+01  0.37817264777E+02 -0.38644826514E+02  0.97368324876E+02  0.80419002446E+02 0.  1.
          1    1    1    2  501    0  0.33246213831E+02 -0.59731882689E+02  0.17429444013E+03  0.18722115373E+03  0.00000000000E+00 0. -1.
         -2    1    1    2    0  503 -0.23769579232E+02  0.21914617913E+02  0.53486532798E+02  0.62498420507E+02  0.00000000000E+00 0.  1.
<mgrwt>
<rscale>  2 0.95031026E+02</rscale>
<asrwt>0</asrwt>
<pdfrwt beam="1">  1       21 0.41248003E-01 0.95031026E+02</pdfrwt>
<pdfrwt beam="2">  1       21 0.12150135E-01 0.95031026E+02</pdfrwt>
<totfact> 0.33076634E+05</totfact>
</mgrwt>
</event>
<event>
 5    1  0.1854763E+000  0.1317287E+03  0.7546771E-02  0.1224913E+00
         21   -1    0    0  503  502  0.00000000000E+00  0.00000000000E+00  0.74695907150E+02  0.74695907150E+02  0.00000000000E+00 0. -1.
         21   -1    0    0  501  503 -0.00000000000E+00 -0.00000000000E+00 -0.30053459087E+03  0.30053459087E+03  0.00000000000E+00 0.  1.
         24    1    1    2    0    0 -0.51062960962E+01 -0.60691279852E+02 -0.10038294297E+03  0.14231464051E+03  0.80419002446E+02 0.  1.
          1    1    1    2  501    0  0.61586466297E+02  0.81704001106E+02 -0.13757137140E+03  0.17144771465E+03  0.00000000000E+00 0. -1.
         -2    1    1    2    0  502 -0.56480170201E+02 -0.21012721254E+02  0.12115630657E+02  0.61468142860E+02  0.00000000000E+00 0.  1.
<mgrwt>
<rscale>  2 0.13172871E+03</rscale>
<asrwt>0</asrwt>
<pdfrwt beam="1">  1       21 0.11491678E-01 0.13172871E+03</pdfrwt>
<pdfrwt beam="2">  1       21 0.46236091E-01 0.13172871E+03</pdfrwt>
<totfact> 0.28800656E+05</totfact>
</mgrwt>
</event>
<event>
 5    1  0.3462069E+000  0.1523351E+03  0.7546771E-02  0.1197633E+00
         21   -1    0    0  503  502  0.00000000000E+00  0.00000000000E+00  0.77756473432E+03  0.77756473432E+03  0.00000000000E+00 0.  1.
         21   -1    0    0  501  503 -0.00000000000E+00 -0.00000000000E+00 -0.71418881014E+02  0.71418881014E+02  0.00000000000E+00 0. -1.
         24    1    1    2    0    0 -0.53375741054E+02 -0.31345776286E+02  0.27122181014E+03  0.28958593487E+03  0.80419002446E+02 0.  0.
          1    1    1    2  501    0  0.11920488625E+03  0.57505906600E+02  0.14608238809E+02  0.13315455246E+03  0.00000000000E+00 0. -1.
         -2    1    1    2    0  502 -0.65829145200E+02 -0.26160130313E+02  0.42031580436E+03  0.42624312800E+03  0.00000000000E+00 0.  1.
<mgrwt>
<rscale>  2 0.15233508E+03</rscale>
<asrwt>0</asrwt>
<pdfrwt beam="1">  1       21 0.11962534E+00 0.15233508E+03</pdfrwt>
<pdfrwt beam="2">  1       21 0.10987521E-01 0.15233508E+03</pdfrwt>
<totfact> 0.37415201E+04</totfact>
</mgrwt>
</event>
<event>
 5    1  0.1854763E+000  0.1061548E+03  0.7546771E-02  0.1267861E+00
         21   -1    0    0  501  502  0.00000000000E+00  0.00000000000E+00  0.16094559381E+04  0.16094559381E+04  0.00000000000E+00 0. -1.
         21   -1    0    0  502  503 -0.00000000000E+00 -0.00000000000E+00 -0.72876653323E+02  0.72876653323E+02  0.00000000000E+00 0.  1.
         24    1    1    2    0    0  0.65773201959E+02  0.11723423263E+02  0.28915347518E+03  0.30747439066E+03  0.80419002446E+02 0.  1.
          1    1    1    2  501    0 -0.71416007182E+02  0.21089437442E+02  0.13056580323E+04  0.13077797627E+04  0.00000000000E+00 0. -1.
         -2    1    1    2    0  503  0.56428052235E+01 -0.32812860704E+02 -0.58232222751E+02  0.67078438003E+02  0.00000000000E+00 0.  1.
<mgrwt>
<rscale>  2 0.10615483E+03</rscale>
<asrwt>0</asrwt>
<pdfrwt beam="1">  1       21 0.24760858E+00 0.10615483E+03</pdfrwt>
<pdfrwt beam="2">  1       21 0.11211794E-01 0.10615483E+03</pdfrwt>
<totfact> 0.50965037E+03</totfact>
</mgrwt>
</event>
<event>
 5    1  0.1854763E+000  0.7723422E+02  0.7546771E-02  0.1337089E+00
         21   -1    0    0  503  502  0.00000000000E+00  0.00000000000E+00  0.67907017499E+02  0.67907017499E+02  0.00000000000E+00 0.  1.
         21   -1    0    0  501  503 -0.00000000000E+00 -0.00000000000E+00 -0.53025862566E+03  0.53025862566E+03  0.00000000000E+00 0.  1.
         24    1    1    2    0    0 -0.30465212260E+02  0.47563423119E+00  0.36547682142E+02  0.93441449102E+02  0.80419002446E+02 0.  1.
          1    1    1    2  501    0 -0.10620715591E+02  0.19940119952E+02 -0.28838443038E+03  0.28926802047E+03  0.00000000000E+00 0. -1.
         -2    1    1    2    0  502  0.41085927851E+02 -0.20415754183E+02 -0.21051485993E+03  0.21545617359E+03  0.00000000000E+00 0.  1.
<mgrwt>
<rscale>  2 0.77234217E+02</rscale>
<asrwt>0</asrwt>
<pdfrwt beam="1">  1       21 0.10447234E-01 0.77234217E+02</pdfrwt>
<pdfrwt beam="2">  1       21 0.81578246E-01 0.77234217E+02</pdfrwt>
<totfact> 0.10410681E+05</totfact>
</mgrwt>
</event>
<event>
 5    1  0.1854763E+000  0.7508509E+02  0.7546771E-02  0.1343608E+00
         21   -1    0    0  503  502  0.00000000000E+00  0.00000000000E+00  0.48903054246E+02  0.48903054246E+02  0.00000000000E+00 0.  1.
         21   -1    0    0  501  503 -0.00000000000E+00 -0.00000000000E+00 -0.13258682911E+03  0.13258682911E+03  0.00000000000E+00 0.  1.
         24    1    1    2    0    0 -0.52841860902E+02  0.53231984196E+01 -0.54676314669E+02  0.11080304168E+03  0.80419002446E+02 0.  1.
          1    1    1    2  501    0  0.20999495581E+02  0.20891598834E+01 -0.31480844367E+02  0.37899696117E+02  0.00000000000E+00 0. -1.
         -2    1    1    2    0  502  0.31842365321E+02 -0.74123583030E+01  0.24733841700E+01  0.32787145562E+02  0.00000000000E+00 0.  1.
<mgrwt>
<rscale>  2 0.75085095E+02</rscale>
<asrwt>0</asrwt>
<pdfrwt beam="1">  1       21 0.75235470E-02 0.75085095E+02</pdfrwt>
<pdfrwt beam="2">  1       21 0.20397973E-01 0.75085095E+02</pdfrwt>
<totfact> 0.28697526E+06</totfact>
</mgrwt>
</event>
<event>
 5    1  0.1854763E+000  0.1492277E+03  0.7546771E-02  0.1201425E+00
         21   -1    0    0  501  502  0.00000000000E+00  0.00000000000E+00  0.46814652070E+02  0.46814652070E+02  0.00000000000E+00 0. -1.
         21   -1    0    0  502  503 -0.00000000000E+00 -0.00000000000E+00 -0.51095825095E+03  0.51095825095E+03  0.00000000000E+00 0. -1.
         24    1    1    2    0    0  0.13107417265E+03  0.19954941726E+02 -0.26032446802E+03  0.30300937781E+03  0.80419002446E+02 0. -1.
          1    1    1    2  501    0 -0.10809784348E+03 -0.37565548002E+02 -0.11881253976E+03  0.16496282540E+03  0.00000000000E+00 0. -1.
         -2    1    1    2    0  503 -0.22976329175E+02  0.17610606276E+02 -0.85006591098E+02  0.89800699807E+02  0.00000000000E+00 0.  1.
<mgrwt>
<rscale>  2 0.14922770E+03</rscale>
<asrwt>0</asrwt>
<pdfrwt beam="1">  1       21 0.72022544E-02 0.14922770E+03</pdfrwt>
<pdfrwt beam="2">  1       21 0.78608959E-01 0.14922770E+03</pdfrwt>
<totfact> 0.20873681E+05</totfact>
</mgrwt>
</event>
<event>
 5    1  0.1854763E+000  0.7296983E+02  0.7546771E-02  0.1350276E+00
         21   -1    0    0  501  502  0.00000000000E+00  0.00000000000E+00  0.32380945602E+03  0.32380945602E+03  0.00000000000E+00 0.  1.
         21   -1    0    0  502  503 -0.00000000000E+00 -0.00000000000E+00 -0.19083837221E+02  0.19083837221E+02  0.00000000000E+00 0. -1.
         24    1    1    2    0    0  0.90779790926E+01  0.75179086087E+00  0.21218637937E+03  0.22709744701E+03  0.80419002446E+02 0.  1.
          1    1    1    2  501    0 -0.85188224253E+01 -0.32324783212E+02  0.68111127680E+02  0.75872179743E+02  0.00000000000E+00 0. -1.
         -2    1    1    2    0  503 -0.55915666732E+00  0.31572992351E+02  0.24428111750E+02  0.39923666488E+02  0.00000000000E+00 0.  1.
<mgrwt>
<rscale>  2 0.72969826E+02</rscale>
<asrwt>0</asrwt>
<pdfrwt beam="1">  1       21 0.49816835E-01 0.72969826E+02</pdfrwt>
<pdfrwt beam="2">  1       21 0.29359752E-02 0.72969826E+02</pdfrwt>
<totfact> 0.24487299E+06</totfact>
</mgrwt>
</event>
<event>
 5    1  0.1854763E+000  0.7476831E+02  0.7546771E-02  0.1344590E+00
         21   -1    0    0  501  502  0.00000000000E+00  0.00000000000E+00  0.95003534058E+02  0.95003534058E+02  0.00000000000E+00 0. -1.
         21   -1    0    0  502  503 -0.00000000000E+00 -0.00000000000E+00 -0.19231203230E+03  0.19231203230E+03  0.00000000000E+00 0.  1.
         24    1    1    2    0    0  0.47208636741E-01 -0.11754419844E+02 -0.89327599141E+02  0.12076756409E+03  0.80419002446E+02 0.  0.
          1    1    1    2  501    0  0.19078944783E+02  0.33962313629E+02  0.71727056942E+02  0.81622396305E+02  0.00000000000E+00 0. -1.
         -2    1    1    2    0  503 -0.19126153419E+02 -0.22207893785E+02 -0.79707956048E+02  0.84925605964E+02  0.00000000000E+00 0.  1.
<mgrwt>
<rscale>  2 0.74768309E+02</rscale>
<asrwt>0</asrwt>
<pdfrwt beam="1">  1       21 0.14615928E-01 0.74768309E+02</pdfrwt>
<pdfrwt beam="2">  1       21 0.29586466E-01 0.74768309E+02</pdfrwt>
<totfact> 0.45568603E+05</totfact>
</mgrwt>
</event>
<event>
 5    1  0.1854763E+000  0.1046368E+03  0.7546771E-02  0.1270837E+00
         21   -1    0    0  503  502  0.00000000000E+00  0.00000000000E+00  0.61782846058E+02  0.61782846058E+02  0.00000000000E+00 0.  1.
         21   -1    0    0  501  503 -0.00000000000E+00 -0.00000000000E+00 -0.26094699956E+03  0.26094699956E+03  0.00000000000E+00 0. -1.
         24    1    1    2    0    0  0.62829845435E+02  0.43921352999E+02 -0.19304102034E+03  0.22273016458E+03  0.80419002446E+02 0. -1.
          1    1    1    2  501    0 -0.36476671277E+02  0.10283984081E+02 -0.11187280418E+02  0.39515352955E+02  0.00000000000E+00 0. -1.
         -2    1    1    2    0  502 -0.26353174158E+02 -0.54205337080E+02  0.50641472538E+01  0.60484328083E+02  0.00000000000E+00 0.  1.
<mgrwt>
<rscale>  2 0.10463683E+03</rscale>
<asrwt>0</asrwt>
<pdfrwt beam="1">  1       21 0.95050533E-02 0.10463683E+03</pdfrwt>
<pdfrwt beam="2">  1       21 0.40145692E-01 0.10463683E+03</pdfrwt>
<totfact> 0.53545627E+05</totfact>
</mgrwt>
</event>
<event>
 5    1  0.1854763E+000  0.7014603E+02  0.7546771E-02  0.1359597E+00
         21   -1    0    0  503  502  0.00000000000E+00  0.00000000000E+00  0.51833255025E+03  0.51833255025E+03  0.00000000000E+00 0. -1.
         21   -1    0    0  501  503 -0.00000000000E+00 -0.00000000000E+00 -0.99407532578E+01  0.99407532578E+01  0.00000000000E+00 0.  1.
         24    1    1    2    0    0  0.11012788600E+02  0.55072808426E+01  0.23998798813E+03  0.25340296379E+03  0.80419002446E+02 0.  1.
          1    1    1    2  501    0  0.62647715611E+01  0.23966248705E+02  0.98636835989E+02  0.10169982229E+03  0.00000000000E+00 0. -1.
         -2    1    1    2    0  502 -0.17277560161E+02 -0.29473529547E+02  0.16976697288E+03  0.17317051743E+03  0.00000000000E+00 0.  1.
<mgrwt>
<rscale>  2 0.70146028E+02</rscale>
<asrwt>0</asrwt>
<pdfrwt beam="1">  1       21 0.79743448E-01 0.70146028E+02</pdfrwt>
<pdfrwt beam="2">  1       21 0.15293471E-02 0.70146028E+02</pdfrwt>
<totfact> 0.25674667E+06</totfact>
</mgrwt>
</event>
<event>
 5    1  0.1854763E+000  0.9226568E+02  0.7546771E-02  0.1297456E+00
         21   -1    0    0  501  502  0.00000000000E+00  0.00000000000E+00  0.17044134710E+03  0.17044134710E+03  0.00000000000E+00 0.  1.
         21   -1    0    0  502  503 -0.00000000000E+00 -0.00000000000E+00 -0.23750489506E+03  0.23750489506E+03  0.00000000000E+00 0.  1.
         24    1    1    2    0    0 -0.55922224169E+02 -0.15612932058E+02  0.47875357421E+02  0.11013775286E+03  0.80419002446E+02 0.  1.
          1    1    1    2  501    0  0.41586847613E+02  0.39583235906E+02  0.81334944801E+02  0.99557378958E+02  0.00000000000E+00 0. -1.
         -2    1    1    2    0  503  0.14335376556E+02 -0.23970303848E+02 -0.19627385018E+03  0.19825111034E+03  0.00000000000E+00 0.  1.
<mgrwt>
<rscale>  2 0.92265681E+02</rscale>
<asrwt>0</asrwt>
<pdfrwt beam="1">  1       21 0.26221746E-01 0.92265681E+02</pdfrwt>
<pdfrwt beam="2">  1       21 0.36539215E-01 0.92265681E+02</pdfrwt>
<totfact> 0.10402707E+05</totfact>
</mgrwt>
</event>
<event>
 5    1  0.1854763E+000  0.6353335E+02  0.7546771E-02  0.1383575E+00
         21   -1    0    0  503  502  0.00000000000E+00  0.00000000000E+00  0.26027317367E+02  0.26027317367E+02  0.00000000000E+00 0. -1.
         21   -1    0    0  501  503 -0.00000000000E+00 -0.00000000000E+00 -0.20282831135E+03  0.20282831135E+03  0.00000000000E+00 0.  1.
         24    1    1    2    0    0 -0.99102550016E+00  0.18363135680E+02 -0.12513465613E+03  0.14988023553E+03  0.80419002446E+02 0.  1.
          1    1    1    2  501    0 -0.19776639335E+02 -0.10256385217E+02 -0.52115043315E+02  0.56677038038E+02  0.00000000000E+00 0. -1.
         -2    1    1    2    0  502  0.20767664836E+02 -0.81067504630E+01  0.44870545909E+00  0.22298355150E+02  0.00000000000E+00 0.  1.
<mgrwt>
<rscale>  2 0.63533349E+02</rscale>
<asrwt>0</asrwt>
<pdfrwt beam="1">  1       21 0.40042027E-02 0.63533349E+02</pdfrwt>
<pdfrwt beam="2">  1       21 0.31204355E-01 0.63533349E+02</pdfrwt>
<totfact> 0.36711096E+06</totfact>
</mgrwt>
</event>
<event>
 5    1  0.1854763E+000  0.7321658E+02  0.7546771E-02  0.1349484E+00
         21   -1    0    0  503  502  0.00000000000E+00  0.00000000000E+00  0.27350306784E+03  0.27350306784E+03  0.00000000000E+00 0.  1.
         21   -1    0    0  501  503 -0.00000000000E+00 -0.00000000000E+00 -0.46536714356E+02  0.46536714356E+02  0.00000000000E+00 0.  1.
         24    1    1    2    0    0  0.13203387077E+02  0.23103497559E+02  0.89764440862E+02  0.12342192604E+03  0.80419002446E+02 0.  1.
          1    1    1    2  501    0  0.19985691823E+02  0.20379054466E+01 -0.23322327781E+02  0.30781681393E+02  0.00000000000E+00 0. -1.
         -2    1    1    2    0  502 -0.33189078900E+02 -0.25141403005E+02  0.16052424041E+03  0.16583617477E+03  0.00000000000E+00 0.  1.
<mgrwt>
<rscale>  2 0.73216575E+02</rscale>
<asrwt>0</asrwt>
<pdfrwt beam="1">  1       21 0.42077394E-01 0.73216575E+02</pdfrwt>
<pdfrwt beam="2">  1       21 0.71594947E-02 0.73216575E+02</pdfrwt>
<totfact> 0.78998961E+05</totfact>
</mgrwt>
</event>
<event>
 5    1  0.1854763E+000  0.1131719E+03  0.7546771E-02  0.1254806E+00
         21   -1    0    0  503  502  0.00000000000E+00  0.00000000000E+00  0.56951114802E+02  0.56951114802E+02  0.00000000000E+00 0. -1.
         21   -1    0    0  501  503 -0.00000000000E+00 -0.00000000000E+00 -0.43827043780E+03  0.43827043780E+03  0.00000000000E+00 0.  1.
         24    1    1    2    0    0 -0.57988450076E+02  0.32232462762E+02 -0.15559079122E+03  0.18728935438E+03  0.80419002446E+02 0.  1.
          1    1    1    2  501    0  0.94287933528E+01 -0.63590484159E+02 -0.23994307178E+03  0.24840557464E+03  0.00000000000E+00 0. -1.
         -2    1    1    2    0  502  0.48559656724E+02  0.31358021397E+02  0.14214540000E+02  0.59526623577E+02  0.00000000000E+00 0.  1.
<mgrwt>
<rscale>  2 0.11317191E+03</rscale>
<asrwt>0</asrwt>
<pdfrwt beam="1">  1       21 0.87617099E-02 0.11317191E+03</pdfrwt>
<pdfrwt beam="2">  1       21 0.67426221E-01 0.11317191E+03</pdfrwt>
<totfact> 0.21066915E+05</totfact>
</mgrwt>
</event>
<event>
 5    1  0.1854763E+000  0.8841641E+02  0.7546771E-02  0.1306733E+00
         21   -1    0    0  501  502  0.00000000000E+00  0.00000000000E+00  0.13836850021E+03  0.13836850021E+03  0.00000000000E+00 0. -1.
         21   -1    0    0  502  503 -0.00000000000E+00 -0.00000000000E+00 -0.17768291647E+03  0.17768291647E+03  0.00000000000E+00 0.  1.
         24    1    1    2    0    0  0.12011337466E+02  0.21233554038E+02  0.40705034430E+02  0.93376934128E+02  0.80419002446E+02 0. -1.
          1    1    1    2  501    0 -0.42240124321E+02 -0.39202610651E+02  0.57094649902E+02  0.81122572888E+02  0.00000000000E+00 0. -1.
         -2    1    1    2    0  503  0.30228786856E+02  0.17969056613E+02 -0.13711410059E+03  0.14155190967E+03  0.00000000000E+00 0.  1.
<mgrwt>
<rscale>  2 0.88416410E+02</rscale>
<asrwt>0</asrwt>
<pdfrwt beam="1">  1       21 0.21287462E-01 0.88416410E+02</pdfrwt>
<pdfrwt beam="2">  1       21 0.27335833E-01 0.88416410E+02</pdfrwt>
<totfact> 0.26814290E+05</totfact>
</mgrwt>
</event>
<event>
 5    1  0.2103716E+000  0.1367444E+03  0.7546771E-02  0.1217778E+00
         21   -1    0    0  501  502  0.00000000000E+00  0.00000000000E+00  0.89453496999E+02  0.89453496999E+02  0.00000000000E+00 0. -1.
         21   -1    0    0  502  503 -0.00000000000E+00 -0.00000000000E+00 -0.12113555990E+04  0.12113555990E+04  0.00000000000E+00 0.  1.
         24    1    1    2    0    0 -0.19275711292E+02 -0.79685243867E+02  0.22359387101E+02  0.11699764648E+03  0.80419002446E+02 0. -1.
          1    1    1    2  501    0 -0.57932596532E+02  0.20825550127E+02 -0.36019852861E+02  0.71325444823E+02  0.00000000000E+00 0. -1.
         -2    1    1    2    0  503  0.77208307825E+02  0.58859693739E+02 -0.11082416362E+04  0.11124860047E+04  0.00000000000E+00 0.  1.
<mgrwt>
<rscale>  2 0.13674438E+03</rscale>
<asrwt>0</asrwt>
<pdfrwt beam="1">  1       21 0.13762077E-01 0.13674438E+03</pdfrwt>
<pdfrwt beam="2">  1       21 0.18636239E+00 0.13674438E+03</pdfrwt>
<totfact> 0.79712181E+03</totfact>
</mgrwt>
</event>
<event>
 5    1  0.1854763E+000  0.1088786E+03  0.7546771E-02  0.1262661E+00
         21   -1    0    0  501  502  0.00000000000E+00  0.00000000000E+00  0.13309188073E+03  0.13309188073E+03  0.00000000000E+00 0. -1.
         21   -1    0    0  502  503 -0.00000000000E+00 -0.00000000000E+00 -0.31861182837E+03  0.31861182837E+03  0.00000000000E+00 0.  1.
         24    1    1    2    0    0 -0.22081948658E+02 -0.17363581101E+02 -0.13318942267E+03  0.15810042591E+03  0.80419002446E+02 0.  0.
          1    1    1    2  501    0 -0.13208936147E+02  0.68876062959E+02  0.10390151957E+03  0.12535515072E+03  0.00000000000E+00 0. -1.
         -2    1    1    2    0  503  0.35290884806E+02 -0.51512481857E+02 -0.15623204455E+03  0.16824813247E+03  0.00000000000E+00 0.  1.
<mgrwt>
<rscale>  2 0.10887855E+03</rscale>
<asrwt>0</asrwt>
<pdfrwt beam="1">  1       21 0.20475674E-01 0.10887855E+03</pdfrwt>
<pdfrwt beam="2">  1       21 0.49017204E-01 0.10887855E+03</pdfrwt>
<totfact> 0.90859993E+04</totfact>
</mgrwt>
</event>
<event>
 5    1  0.1854763E+000  0.1452628E+03  0.7546771E-02  0.1206418E+00
         21   -1    0    0  503  502  0.00000000000E+00  0.00000000000E+00  0.25722450872E+03  0.25722450872E+03  0.00000000000E+00 0.  1.
         21   -1    0    0  501  503 -0.00000000000E+00 -0.00000000000E+00 -0.24135769506E+03  0.24135769506E+03  0.00000000000E+00 0. -1.
         24    1    1    2    0    0  0.70530311228E+02 -0.85162641833E+02  0.40995800768E+02  0.14274127644E+03  0.80419002446E+02 0.  1.
          1    1    1    2  501    0  0.28764064455E+02  0.19879665760E+02 -0.16708934526E+03  0.17070858740E+03  0.00000000000E+00 0. -1.
         -2    1    1    2    0  502 -0.99294375682E+02  0.65282976073E+02  0.14196035814E+03  0.18513233994E+03  0.00000000000E+00 0.  1.
<mgrwt>
<rscale>  2 0.14526283E+03</rscale>
<asrwt>0</asrwt>
<pdfrwt beam="1">  1       21 0.39573001E-01 0.14526283E+03</pdfrwt>
<pdfrwt beam="2">  1       21 0.37131953E-01 0.14526283E+03</pdfrwt>
<totfact> 0.44106092E+04</totfact>
</mgrwt>
</event>
<event>
 5    1  0.2054453E+000  0.7333954E+02  0.7546771E-02  0.1349091E+00
         21   -1    0    0  501  502  0.00000000000E+00  0.00000000000E+00  0.66542117783E+02  0.66542117783E+02  0.00000000000E+00 0. -1.
         21   -1    0    0  502  503 -0.00000000000E+00 -0.00000000000E+00 -0.13235152024E+04  0.13235152024E+04  0.00000000000E+00 0.  1.
         24    1    1    2    0    0  0.93128338322E-01  0.40926274638E+01 -0.57116505384E+02  0.98723195927E+02  0.80419002446E+02 0.  0.
          1    1    1    2  501    0  0.35270359633E-01 -0.35124150114E+02  0.38772444067E+02  0.52316437036E+02  0.00000000000E+00 0. -1.
         -2    1    1    2    0  503 -0.12839869795E+00  0.31031522650E+02 -0.12386290233E+04  0.12390176872E+04  0.00000000000E+00 0.  1.
<mgrwt>
<rscale>  2 0.73339542E+02</rscale>
<asrwt>0</asrwt>
<pdfrwt beam="1">  1       21 0.10237249E-01 0.73339542E+02</pdfrwt>
<pdfrwt beam="2">  1       21 0.20361773E+00 0.73339542E+02</pdfrwt>
<totfact> 0.11446257E+04</totfact>
</mgrwt>
</event>
<event>
 5    1  0.1854763E+000  0.1053855E+03  0.7546771E-02  0.1269362E+00
         21   -1    0    0  503  502  0.00000000000E+00  0.00000000000E+00  0.19936282077E+03  0.19936282077E+03  0.00000000000E+00 0.  1.
         21   -1    0    0  501  503 -0.00000000000E+00 -0.00000000000E+00 -0.10027112174E+03  0.10027112174E+03  0.00000000000E+00 0. -1.
         24    1    1    2    0    0  0.57139334631E+02  0.21147998580E+02  0.14739773126E+03  0.17862096333E+03  0.80419002446E+02 0.  1.
          1    1    1    2  501    0 -0.81885971025E+02 -0.92089273810E+01 -0.43294826674E+02  0.93083610861E+02  0.00000000000E+00 0. -1.
         -2    1    1    2    0  502  0.24746636394E+02 -0.11939071199E+02 -0.50112055570E+01  0.27929368325E+02  0.00000000000E+00 0.  1.
<mgrwt>
<rscale>  2 0.10538554E+03</rscale>
<asrwt>0</asrwt>
<pdfrwt beam="1">  1       21 0.30671203E-01 0.10538554E+03</pdfrwt>
<pdfrwt beam="2">  1       21 0.15426326E-01 0.10538554E+03</pdfrwt>
<totfact> 0.38564378E+05</totfact>
</mgrwt>
</event>
<event>
 5    1  0.1854763E+000  0.9643430E+02  0.7546771E-02  0.1287978E+00
         21   -1    0    0  503  502  0.00000000000E+00  0.00000000000E+00  0.13837726140E+04  0.13837726140E+04  0.00000000000E+00 0.  1.
         21   -1    0    0  501  503 -0.00000000000E+00 -0.00000000000E+00 -0.10090991476E+02  0.10090991476E+02  0.00000000000E+00 0.  1.
         24    1    1    2    0    0  0.60517661090E+02 -0.47040079929E+02  0.43627832725E+03  0.45020123413E+03  0.80419002446E+02 0.  1.
          1    1    1    2  501    0 -0.21652427987E+02  0.12165340602E+01  0.53628966443E+02  0.57847849006E+02  0.00000000000E+00 0. -1.
         -2    1    1    2    0  502 -0.38865233103E+02  0.45823545868E+02  0.88377432883E+03  0.88581452235E+03  0.00000000000E+00 0.  1.
<mgrwt>
<rscale>  2 0.96434305E+02</rscale>
<asrwt>0</asrwt>
<pdfrwt beam="1">  1       21 0.21288794E+00 0.96434305E+02</pdfrwt>
<pdfrwt beam="2">  1       21 0.15524613E-02 0.96434305E+02</pdfrwt>
<totfact> 0.21867248E+05</totfact>
</mgrwt>
</event>
<event>
 5    1  0.1854763E+000  0.7404435E+02  0.7546771E-02  0.1346856E+00
         21   -1    0    0  501  502  0.00000000000E+00  0.00000000000E+00  0.45894533481E+03  0.45894533481E+03  0.00000000000E+00 0. -1.
         21   -1    0    0  502  503 -0.00000000000E+00 -0.00000000000E+00 -0.66965673408E+02  0.66965673408E+02  0.00000000000E+00 0.  1.
         24    1    1    2    0    0 -0.17467217757E+02 -0.23008378109E+02  0.84781106277E+01  0.85869572455E+02  0.80419002446E+02 0.  0.
          1    1    1    2  501    0  0.14284757186E+02 -0.17169561488E+02  0.39693119826E+03  0.39755908276E+03  0.00000000000E+00 0. -1.
         -2    1    1    2    0  503  0.31824605708E+01  0.40177939597E+02 -0.13429647485E+02  0.42482353009E+02  0.00000000000E+00 0.  1.
<mgrwt>
<rscale>  2 0.74044353E+02</rscale>
<asrwt>0</asrwt>
<pdfrwt beam="1">  1       21 0.70606973E-01 0.74044353E+02</pdfrwt>
<pdfrwt beam="2">  1       21 0.10302412E-01 0.74044353E+02</pdfrwt>
<totfact> 0.14628040E+05</totfact>
</mgrwt>
</event>
<event>
 5    1  0.1854763E+000  0.6491601E+02  0.7546771E-02  0.1378288E+00
         21   -1    0    0  503  502  0.00000000000E+00  0.00000000000E+00  0.36129099576E+02  0.36129099576E+02  0.00000000000E+00 0. -1.
         21   -1    0    0  501  503 -0.00000000000E+00 -0.00000000000E+00 -0.18173137994E+03  0.18173137994E+03  0.00000000000E+00 0.  1.
         24    1    1    2    0    0  0.94586518251E+01  0.27132522206E+01 -0.41392031147E+02  0.90979910028E+02  0.80419002446E+02 0. -1.
          1    1    1    2  501    0  0.18598875905E+02 -0.80267291896E+01 -0.94609198131E+02  0.96753537079E+02  0.00000000000E+00 0. -1.
         -2    1    1    2    0  502 -0.28057527730E+02  0.53134769691E+01 -0.96010510885E+01  0.30127032410E+02  0.00000000000E+00 0.  1.
<mgrwt>
<rscale>  2 0.64916011E+02</rscale>
<asrwt>0</asrwt>
<pdfrwt beam="1">  1       21 0.55583229E-02 0.64916011E+02</pdfrwt>
<pdfrwt beam="2">  1       21 0.27958674E-01 0.64916011E+02</pdfrwt>
<totfact> 0.26376802E+06</totfact>
</mgrwt>
</event>
<event>
 5    1  0.1854763E+000  0.1145711E+03  0.7546771E-02  0.1252332E+00
         21   -1    0    0  501  502  0.00000000000E+00  0.00000000000E+00  0.78930066530E+03  0.78930066530E+03  0.00000000000E+00 0. -1.
         21   -1    0    0  502  503 -0.00000000000E+00 -0.00000000000E+00 -0.34588643773E+02  0.34588643773E+02  0.00000000000E+00 0. -1.
         24    1    1    2    0    0  0.69662878596E+02 -0.47027197693E+02  0.14358753394E+03  0.18479466939E+03  0.80419002446E+02 0. -1.
          1    1    1    2  501    0 -0.60876140419E+02  0.67283908796E+02  0.61029024642E+03  0.61699855245E+03  0.00000000000E+00 0. -1.
         -2    1    1    2    0  503 -0.87867381770E+01 -0.20256711103E+02  0.83424116460E+00  0.22096087228E+02  0.00000000000E+00 0.  1.
<mgrwt>
<rscale>  2 0.11457108E+03</rscale>
<asrwt>0</asrwt>
<pdfrwt beam="1">  1       21 0.12143086E+00 0.11457108E+03</pdfrwt>
<pdfrwt beam="2">  1       21 0.53213304E-02 0.11457108E+03</pdfrwt>
<totfact> 0.12827046E+05</totfact>
</mgrwt>
</event>
<event>
 5    1  0.1854763E+000  0.1261274E+03  0.7546771E-02  0.1233318E+00
         21   -1    0    0  503  502  0.00000000000E+00  0.00000000000E+00  0.28229218237E+02  0.28229218237E+02  0.00000000000E+00 0. -1.
         21   -1    0    0  501  503 -0.00000000000E+00 -0.00000000000E+00 -0.59296033023E+03  0.59296033023E+03  0.00000000000E+00 0.  1.
         24    1    1    2    0    0 -0.16330062205E+02  0.62625331967E+02 -0.20451858411E+03  0.22909314773E+03  0.80419002446E+02 0.  0.
          1    1    1    2  501    0 -0.16163620333E+02  0.39062445190E+02 -0.15647496096E+03  0.16208501058E+03  0.00000000000E+00 0. -1.
         -2    1    1    2    0  502  0.32493682538E+02 -0.10168777716E+03 -0.20373756692E+03  0.23001139016E+03  0.00000000000E+00 0.  1.
<mgrwt>
<rscale>  2 0.12612738E+03</rscale>
<asrwt>0</asrwt>
<pdfrwt beam="1">  1       21 0.43429571E-02 0.12612738E+03</pdfrwt>
<pdfrwt beam="2">  1       21 0.91224657E-01 0.12612738E+03</pdfrwt>
<totfact> 0.35273427E+05</totfact>
</mgrwt>
</event>
<event>
 5    1  0.1854763E+000  0.8209883E+02  0.7546771E-02  0.1323199E+00
         21   -1    0    0  501  502  0.00000000000E+00  0.00000000000E+00  0.48051718860E+02  0.48051718860E+02  0.00000000000E+00 0. -1.
         21   -1    0    0  502  503 -0.00000000000E+00 -0.00000000000E+00 -0.15021271399E+03  0.15021271399E+03  0.00000000000E+00 0.  1.
         24    1    1    2    0    0 -0.53737138564E+01 -0.49508801787E+02 -0.65595648735E+02  0.11510865885E+03  0.80419002446E+02 0. -1.
          1    1    1    2  501    0  0.25917590989E+02  0.38184940871E+02 -0.91041285394E+01  0.47039306845E+02  0.00000000000E+00 0. -1.
         -2    1    1    2    0  503 -0.20543877133E+02  0.11323860915E+02 -0.27461217860E+02  0.36116467159E+02  0.00000000000E+00 0.  1.
<mgrwt>
<rscale>  2 0.82098828E+02</rscale>
<asrwt>0</asrwt>
<pdfrwt beam="1">  1       21 0.73925722E-02 0.82098828E+02</pdfrwt>
<pdfrwt beam="2">  1       21 0.23109648E-01 0.82098828E+02</pdfrwt>
<totfact> 0.23610430E+06</totfact>
</mgrwt>
</event>
<event>
 5    1  0.1854763E+000  0.8714854E+02  0.7546771E-02  0.1309908E+00
         21   -1    0    0  503  502  0.00000000000E+00  0.00000000000E+00  0.23116370756E+03  0.23116370756E+03  0.00000000000E+00 0.  1.
         21   -1    0    0  501  503 -0.00000000000E+00 -0.00000000000E+00 -0.79000927525E+02  0.79000927525E+02  0.00000000000E+00 0. -1.
         24    1    1    2    0    0 -0.12636095631E+02 -0.65620666542E+02 -0.30844235011E+02  0.10901525388E+03  0.80419002446E+02 0. -1.
          1    1    1    2  501    0  0.13136567666E+02  0.18922312699E+02  0.16812912295E+02  0.28518368602E+02  0.00000000000E+00 0. -1.
         -2    1    1    2    0  502 -0.50047203415E+00  0.46698353843E+02  0.16619410275E+03  0.17263101260E+03  0.00000000000E+00 0.  1.
<mgrwt>
<rscale>  2 0.87148544E+02</rscale>
<asrwt>0</asrwt>
<pdfrwt beam="1">  1       21 0.35563647E-01 0.87148544E+02</pdfrwt>
<pdfrwt beam="2">  1       21 0.12153989E-01 0.87148544E+02</pdfrwt>
<totfact> 0.44293187E+05</totfact>
</mgrwt>
</event>
<event>
 5    1  0.1854763E+000  0.8616530E+02  0.7546771E-02  0.1312413E+00
         21   -1    0    0  503  502  0.00000000000E+00  0.00000000000E+00  0.78451499760E+03  0.78451499760E+03  0.00000000000E+00 0. -1.
         21   -1    0    0  501  503 -0.00000000000E+00 -0.00000000000E+00 -0.22375040193E+02  0.22375040193E+02  0.00000000000E+00 0. -1.
         24    1    1    2    0    0  0.35666922561E+02 -0.54137593417E+02  0.31641061997E+03  0.33284516636E+03  0.80419002446E+02 0. -1.
          1    1    1    2  501    0 -0.34210528619E+02  0.31986120155E+02  0.25686825451E+02  0.53416150673E+02  0.00000000000E+00 0. -1.
         -2    1    1    2    0  502 -0.14563939420E+01  0.22151473262E+02  0.42004251198E+03  0.42062872076E+03  0.00000000000E+00 0.  1.
<mgrwt>
<rscale>  2 0.86165298E+02</rscale>
<asrwt>0</asrwt>
<pdfrwt beam="1">  1       21 0.12069459E+00 0.86165298E+02</pdfrwt>
<pdfrwt beam="2">  1       21 0.34423145E-02 0.86165298E+02</pdfrwt>
<totfact> 0.27107026E+05</totfact>
</mgrwt>
</event>
<event>
 5    1  0.1854763E+000  0.8474696E+02  0.7546771E-02  0.1316096E+00
         21   -1    0    0  503  502  0.00000000000E+00  0.00000000000E+00  0.10568859348E+03  0.10568859348E+03  0.00000000000E+00 0. -1.
         21   -1    0    0  501  503 -0.00000000000E+00 -0.00000000000E+00 -0.10974496396E+03  0.10974496396E+03  0.00000000000E+00 0.  1.
         24    1    1    2    0    0 -0.26216296036E+02 -0.36388181112E+02 -0.51217492038E+02  0.10536527581E+03  0.80419002446E+02 0.  1.
          1    1    1    2  501    0  0.47249666506E+02  0.26487234659E+02 -0.35489297230E+01  0.54283510267E+02  0.00000000000E+00 0. -1.
         -2    1    1    2    0  502 -0.21033370470E+02  0.99009464536E+01  0.50710051279E+02  0.55784771351E+02  0.00000000000E+00 0.  1.
<mgrwt>
<rscale>  2 0.84746962E+02</rscale>
<asrwt>0</asrwt>
<pdfrwt beam="1">  1       21 0.16259784E-01 0.84746962E+02</pdfrwt>
<pdfrwt beam="2">  1       21 0.16883841E-01 0.84746962E+02</pdfrwt>
<totfact> 0.10622609E+06</totfact>
</mgrwt>
</event>
<event>
 5    1  0.1854763E+000  0.6548216E+02  0.7546771E-02  0.1376167E+00
         21   -1    0    0  503  502  0.00000000000E+00  0.00000000000E+00  0.10274162776E+04  0.10274162776E+04  0.00000000000E+00 0.  1.
         21   -1    0    0  501  503 -0.00000000000E+00 -0.00000000000E+00 -0.29925064277E+03  0.29925064277E+03  0.00000000000E+00 0.  1.
         24    1    1    2    0    0 -0.29508026824E+01  0.31836495736E+01 -0.26997745366E+03  0.28173371168E+03  0.80419002446E+02 0.  1.
          1    1    1    2  501    0 -0.18011761794E+02 -0.17444624655E+02 -0.16472199592E+02  0.30001197504E+02  0.00000000000E+00 0. -1.
         -2    1    1    2    0  502  0.20962564477E+02  0.14260975081E+02  0.10146152881E+04  0.10149320112E+04  0.00000000000E+00 0.  1.
<mgrwt>
<rscale>  2 0.65482160E+02</rscale>
<asrwt>0</asrwt>
<pdfrwt beam="1">  1       21 0.15806404E+00 0.65482160E+02</pdfrwt>
<pdfrwt beam="2">  1       21 0.46038561E-01 0.65482160E+02</pdfrwt>
<totfact> 0.14440030E+03</totfact>
</mgrwt>
</event>
<event>
 5    1  0.1854763E+000  0.6506439E+02  0.7546771E-02  0.1377729E+00
         21   -1    0    0  501  502  0.00000000000E+00  0.00000000000E+00  0.19857552576E+03  0.19857552576E+03  0.00000000000E+00 0.  1.
         21   -1    0    0  502  503 -0.00000000000E+00 -0.00000000000E+00 -0.30743359739E+02  0.30743359739E+02  0.00000000000E+00 0. -1.
         24    1    1    2    0    0 -0.25463362506E+02 -0.65470696896E+01  0.45476045707E+02  0.96054847036E+02  0.80419002446E+02 0. -1.
          1    1    1    2  501    0  0.10775604788E+02  0.21817490083E+02  0.98028101695E+02  0.10100309527E+03  0.00000000000E+00 0. -1.
         -2    1    1    2    0  503  0.14687757717E+02 -0.15270420393E+02  0.24328018617E+02  0.32260943191E+02  0.00000000000E+00 0.  1.
<mgrwt>
<rscale>  2 0.65064391E+02</rscale>
<asrwt>0</asrwt>
<pdfrwt beam="1">  1       21 0.30550080E-01 0.65064391E+02</pdfrwt>
<pdfrwt beam="2">  1       21 0.47297478E-02 0.65064391E+02</pdfrwt>
<totfact> 0.29138884E+06</totfact>
</mgrwt>
</event>
<event>
 5    1  0.1854763E+000  0.7461812E+02  0.7546771E-02  0.1345058E+00
         21   -1    0    0  503  502  0.00000000000E+00  0.00000000000E+00  0.21108087102E+02  0.21108087102E+02  0.00000000000E+00 0. -1.
         21   -1    0    0  501  503 -0.00000000000E+00 -0.00000000000E+00 -0.78894701212E+03  0.78894701212E+03  0.00000000000E+00 0. -1.
         24    1    1    2    0    0 -0.30605197406E+02  0.26042719155E+02 -0.86302594162E+02  0.12462044392E+03  0.80419002446E+02 0. -1.
          1    1    1    2  501    0  0.31576436688E+02  0.16560610164E+01 -0.55493137129E+03  0.55583148591E+03  0.00000000000E+00 0. -1.
         -2    1    1    2    0  502 -0.97123928159E+00 -0.27698780171E+02 -0.12660495957E+03  0.12960316939E+03  0.00000000000E+00 0.  1.
<mgrwt>
<rscale>  2 0.74618117E+02</rscale>
<asrwt>0</asrwt>
<pdfrwt beam="1">  1       21 0.32473978E-02 0.74618117E+02</pdfrwt>
<pdfrwt beam="2">  1       21 0.12137647E+00 0.74618117E+02</pdfrwt>
<totfact> 0.29518285E+05</totfact>
</mgrwt>
</event>
<event>
 5    1  0.1854763E+000  0.8626910E+02  0.7546771E-02  0.1312147E+00
         21   -1    0    0  503  502  0.00000000000E+00  0.00000000000E+00  0.23193267709E+02  0.23193267709E+02  0.00000000000E+00 0.  1.
         21   -1    0    0  501  503 -0.00000000000E+00 -0.00000000000E+00 -0.39781061391E+03  0.39781061391E+03  0.00000000000E+00 0. -1.
         24    1    1    2    0    0  0.60420796730E+02  0.22037013693E+01 -0.12131346782E+03  0.15760616234E+03  0.80419002446E+02 0.  0.
          1    1    1    2  501    0 -0.28735652630E+02  0.18408814936E+02 -0.13205376874E+03  0.13639215534E+03  0.00000000000E+00 0. -1.
         -2    1    1    2    0  502 -0.31685144099E+02 -0.20612516305E+02 -0.12125010964E+03  0.12700556395E+03  0.00000000000E+00 0.  1.
<mgrwt>
<rscale>  2 0.86269103E+02</rscale>
<asrwt>0</asrwt>
<pdfrwt beam="1">  1       21 0.35681952E-02 0.86269103E+02</pdfrwt>
<pdfrwt beam="2">  1       21 0.61201630E-01 0.86269103E+02</pdfrwt>
<totfact> 0.11725991E+06</totfact>
</mgrwt>
</event>
<event>
 5    1  0.1854763E+000  0.7930955E+02  0.7546771E-02  0.1331022E+00
         21   -1    0    0  503  502  0.00000000000E+00  0.00000000000E+00  0.18491710388E+03  0.18491710388E+03  0.00000000000E+00 0.  1.
         21   -1    0    0  501  503 -0.00000000000E+00 -0.00000000000E+00 -0.70601415849E+02  0.70601415849E+02  0.00000000000E+00 0.  1.
         24    1    1    2    0    0  0.11502471592E+02  0.31397367073E+01  0.49812944679E+01  0.81450561989E+02  0.80419002446E+02 0.  1.
          1    1    1    2  501    0  0.30257180262E+02 -0.15191954171E+02 -0.18825262128E+02  0.38738648958E+02  0.00000000000E+00 0. -1.
         -2    1    1    2    0  502 -0.41759651854E+02  0.12052217464E+02  0.12815965570E+03  0.13532930879E+03  0.00000000000E+00 0.  1.
<mgrwt>
<rscale>  2 0.79309549E+02</rscale>
<asrwt>0</asrwt>
<pdfrwt beam="1">  1       21 0.28448785E-01 0.79309549E+02</pdfrwt>
<pdfrwt beam="2">  1       21 0.10861756E-01 0.79309549E+02</pdfrwt>
<totfact> 0.82640018E+05</totfact>
</mgrwt>
</event>
<event>
 5    1  0.1854763E+000  0.1158493E+03  0.7546771E-02  0.1250106E+00
         21   -1    0    0  503  502  0.00000000000E+00  0.00000000000E+00  0.51342390909E+03  0.51342390909E+03  0.00000000000E+00 0.  1.
         21   -1    0    0  501  503 -0.00000000000E+00 -0.00000000000E+00 -0.35036415405E+02  0.35036415405E+02  0.00000000000E+00 0. -1.
         24    1    1    2    0    0  0.33515493955E+02 -0.24972159239E+02  0.14822302914E+03  0.17373594732E+03  0.80419002446E+02 0.  1.
          1    1    1    2  501    0 -0.13611446728E+02 -0.56027644500E+02  0.33773937083E+02  0.66821009094E+02  0.00000000000E+00 0. -1.
         -2    1    1    2    0  502 -0.19904047226E+02  0.80999803739E+02  0.29639052747E+03  0.30790336808E+03  0.00000000000E+00 0.  1.
<mgrwt>
<rscale>  2 0.11584927E+03</rscale>
<asrwt>0</asrwt>
<pdfrwt beam="1">  1       21 0.78988288E-01 0.11584927E+03</pdfrwt>
<pdfrwt beam="2">  1       21 0.53902181E-02 0.11584927E+03</pdfrwt>
<totfact> 0.34068470E+05</totfact>
</mgrwt>
</event>
<event>
 5    1  0.1854763E+000  0.6435597E+02  0.7546771E-02  0.1380411E+00
         21   -1    0    0  503  502  0.00000000000E+00  0.00000000000E+00  0.93139297840E+03  0.93139297840E+03  0.00000000000E+00 0. -1.
         21   -1    0    0  501  503 -0.00000000000E+00 -0.00000000000E+00 -0.84156838623E+01  0.84156838623E+01  0.00000000000E+00 0. -1.
         24    1    1    2    0    0 -0.20349906016E+02 -0.15436295226E-01  0.57122013150E+03  0.57721206978E+03  0.80419002446E+02 0. -1.
          1    1    1    2  501    0  0.15200794504E+02 -0.19982996713E+02  0.25851262961E+02  0.36037093499E+02  0.00000000000E+00 0. -1.
         -2    1    1    2    0  502  0.51491115118E+01  0.19998433008E+02  0.32590590007E+03  0.32655949898E+03  0.00000000000E+00 0.  1.
<mgrwt>
<rscale>  2 0.64355975E+02</rscale>
<asrwt>0</asrwt>
<pdfrwt beam="1">  1       21 0.14329115E+00 0.64355975E+02</pdfrwt>
<pdfrwt beam="2">  1       21 0.12947213E-02 0.64355975E+02</pdfrwt>
<totfact> 0.85202628E+05</totfact>
</mgrwt>
</event>
<event>
 5    1  0.1854763E+000  0.8388513E+02  0.7546771E-02  0.1318374E+00
         21   -1    0    0  503  502  0.00000000000E+00  0.00000000000E+00  0.34953680988E+03  0.34953680988E+03  0.00000000000E+00 0.  1.
         21   -1    0    0  501  503 -0.00000000000E+00 -0.00000000000E+00 -0.32659197015E+02  0.32659197015E+02  0.00000000000E+00 0.  1.
         24    1    1    2    0    0 -0.18769790688E+02  0.21963557281E+02  0.73098724151E+02  0.11245151096E+03  0.80419002446E+02 0.  1.
          1    1    1    2  501    0 -0.30266800025E+02 -0.95108894282E+01  0.14379919957E+02  0.34832718806E+02  0.00000000000E+00 0. -1.
         -2    1    1    2    0  502  0.49036590713E+02 -0.12452667853E+02  0.22939896875E+03  0.23491177712E+03  0.00000000000E+00 0.  1.
<mgrwt>
<rscale>  2 0.83885133E+02</rscale>
<asrwt>0</asrwt>
<pdfrwt beam="1">  1       21 0.53774892E-01 0.83885133E+02</pdfrwt>
<pdfrwt beam="2">  1       21 0.50244921E-02 0.83885133E+02</pdfrwt>
<totfact> 0.87278225E+05</totfact>
</mgrwt>
</event>
<event>
 5    1  0.1854763E+000  0.1395931E+03  0.7546771E-02  0.1213878E+00
         21   -1    0    0  503  502  0.00000000000E+00  0.00000000000E+00  0.69979430080E+02  0.69979430080E+02  0.00000000000E+00 0.  1.
         21   -1    0    0  501  503 -0.00000000000E+00 -0.00000000000E+00 -0.27846656550E+03  0.27846656550E+03  0.00000000000E+00 0. -1.
         24    1    1    2    0    0 -0.85794307131E+02 -0.17116256202E+02 -0.88003495874E+02  0.14786974201E+03  0.80419002446E+02 0.  1.
          1    1    1    2  501    0  0.12045089210E+03 -0.26071131478E+01 -0.91001550401E+02  0.15098508741E+03  0.00000000000E+00 0. -1.
         -2    1    1    2    0  502 -0.34656584967E+02  0.19723369350E+02 -0.29482089142E+02  0.49591166151E+02  0.00000000000E+00 0.  1.
<mgrwt>
<rscale>  2 0.13959310E+03</rscale>
<asrwt>0</asrwt>
<pdfrwt beam="1">  1       21 0.10766066E-01 0.13959310E+03</pdfrwt>
<pdfrwt beam="2">  1       21 0.42841010E-01 0.13959310E+03</pdfrwt>
<totfact> 0.37677031E+05</totfact>
</mgrwt>
</event>
<event>
 5    1  0.1854763E+000  0.1555999E+03  0.7546771E-02  0.1193756E+00
         21   -1    0    0  501  502  0.00000000000E+00  0.00000000000E+00  0.38121851349E+03  0.38121851349E+03  0.00000000000E+00 0. -1.
         21   -1    0    0  502  503 -0.00000000000E+00 -0.00000000000E+00 -0.25253154128E+03  0.25253154128E+03  0.00000000000E+00 0.  1.
         24    1    1    2    0    0 -0.83834614342E+02  0.71119326940E+02  0.30755884738E+03  0.33637161263E+03  0.80419002446E+02 0. -1.
          1    1    1    2  501    0 -0.23463555638E+02 -0.63181404240E+02  0.20825431583E+02  0.70541667726E+02  0.00000000000E+00 0. -1.
         -2    1    1    2    0  503  0.10729816998E+03 -0.79379227000E+01 -0.19969730676E+03  0.22683677441E+03  0.00000000000E+00 0.  1.
<mgrwt>
<rscale>  2 0.15559993E+03</rscale>
<asrwt>0</asrwt>
<pdfrwt beam="1">  1       21 0.58649002E-01 0.15559993E+03</pdfrwt>
<pdfrwt beam="2">  1       21 0.38851006E-01 0.15559993E+03</pdfrwt>
<totfact> 0.17801071E+04</totfact>
</mgrwt>
</event>
<event>
 5    1  0.1854763E+000  0.7336347E+02  0.7546771E-02  0.1349015E+00
         21   -1    0    0  503  502  0.00000000000E+00  0.00000000000E+00  0.32269051140E+02  0.32269051140E+02  0.00000000000E+00 0.  1.
         21   -1    0    0  501  503 -0.00000000000E+00 -0.00000000000E+00 -0.17617902868E+03  0.17617902868E+03  0.00000000000E+00 0. -1.
         24    1    1    2    0    0  0.11651937524E+02 -0.19578315861E+02 -0.58077741535E+02  0.10178073549E+03  0.80419002446E+02 0.  1.
          1    1    1    2  501    0  0.30522286229E+01  0.38812326538E+02 -0.56852186548E+02  0.68904890292E+02  0.00000000000E+00 0. -1.
         -2    1    1    2    0  502 -0.14704166147E+02 -0.19234010677E+02 -0.28980049460E+02  0.37762454045E+02  0.00000000000E+00 0.  1.
<mgrwt>
<rscale>  2 0.73363472E+02</rscale>
<asrwt>0</asrwt>
<pdfrwt beam="1">  1       21 0.49644694E-02 0.73363472E+02</pdfrwt>
<pdfrwt beam="2">  1       21 0.27104466E-01 0.73363472E+02</pdfrwt>
<totfact> 0.33963234E+06</totfact>
</mgrwt>
</event>
<event>
 5    1  0.1854763E+000  0.7626554E+02  0.7546771E-02  0.1339996E+00
         21   -1    0    0  503  502  0.00000000000E+00  0.00000000000E+00  0.19879085520E+03  0.19879085520E+03  0.00000000000E+00 0. -1.
         21   -1    0    0  501  503 -0.00000000000E+00 -0.00000000000E+00 -0.29744538242E+02  0.29744538242E+02  0.00000000000E+00 0.  1.
         24    1    1    2    0    0 -0.45093477908E+01  0.98721353620E+01  0.75278217316E+02  0.11068793625E+03  0.80419002446E+02 0.  0.
          1    1    1    2  501    0 -0.17440353275E+02 -0.34338542640E+02  0.50740585136E+02  0.63701714364E+02  0.00000000000E+00 0. -1.
         -2    1    1    2    0  502  0.21949701065E+02  0.24466407278E+02  0.43027514505E+02  0.54145742828E+02  0.00000000000E+00 0.  1.
<mgrwt>
<rscale>  2 0.76265538E+02</rscale>
<asrwt>0</asrwt>
<pdfrwt beam="1">  1       21 0.30583208E-01 0.76265538E+02</pdfrwt>
<pdfrwt beam="2">  1       21 0.45760829E-02 0.76265538E+02</pdfrwt>
<totfact> 0.30998677E+06</totfact>
</mgrwt>
</event>
<event>
 5    1  0.1854763E+000  0.7239149E+02  0.7546771E-02  0.1352144E+00
         21   -1    0    0  501  502  0.00000000000E+00  0.00000000000E+00  0.32989503258E+03  0.32989503258E+03  0.00000000000E+00 0.  1.
         21   -1    0    0  502  503 -0.00000000000E+00 -0.00000000000E+00 -0.17408735961E+02  0.17408735961E+02  0.00000000000E+00 0. -1.
         24    1    1    2    0    0 -0.22140394848E+01  0.26999889706E+02  0.18415515084E+03  0.20276644582E+03  0.80419002446E+02 0.  0.
          1    1    1    2  501    0  0.25616235816E+02 -0.26001305260E+02  0.10625781628E+03  0.11235204908E+03  0.00000000000E+00 0. -1.
         -2    1    1    2    0  503 -0.23402196331E+02 -0.99858444560E+00  0.22073329503E+02  0.32185273642E+02  0.00000000000E+00 0.  1.
<mgrwt>
<rscale>  2 0.72391493E+02</rscale>
<asrwt>0</asrwt>
<pdfrwt beam="1">  1       21 0.50753077E-01 0.72391493E+02</pdfrwt>
<pdfrwt beam="2">  1       21 0.26782673E-02 0.72391493E+02</pdfrwt>
<totfact> 0.27330323E+06</totfact>
</mgrwt>
</event>
<event>
 5    1  0.1854763E+000  0.8509807E+02  0.7546771E-02  0.1315176E+00
         21   -1    0    0  501  502  0.00000000000E+00  0.00000000000E+00  0.21755225409E+02  0.21755225409E+02  0.00000000000E+00 0. -1.
         21   -1    0    0  502  503 -0.00000000000E+00 -0.00000000000E+00 -0.53449167047E+03  0.53449167047E+03  0.00000000000E+00 0.  1.
         24    1    1    2    0    0  0.14793068313E+02  0.33416879068E+02 -0.12901979676E+03  0.15636126946E+03  0.80419002446E+02 0. -1.
          1    1    1    2  501    0 -0.18470297595E+02 -0.56007802969E+02 -0.10660560944E+03  0.12183095605E+03  0.00000000000E+00 0. -1.
         -2    1    1    2    0  503  0.36772292812E+01  0.22590923901E+02 -0.27711103886E+03  0.27805467037E+03  0.00000000000E+00 0.  1.
<mgrwt>
<rscale>  2 0.85098075E+02</rscale>
<asrwt>0</asrwt>
<pdfrwt beam="1">  1       21 0.33469580E-02 0.85098075E+02</pdfrwt>
<pdfrwt beam="2">  1       21 0.82229482E-01 0.85098075E+02</pdfrwt>
<totfact> 0.68788252E+05</totfact>
</mgrwt>
</event>
<event>
 5    1  0.1854763E+000  0.7466602E+02  0.7546771E-02  0.1344908E+00
         21   -1    0    0  503  502  0.00000000000E+00  0.00000000000E+00  0.38638930388E+02  0.38638930388E+02  0.00000000000E+00 0. -1.
         21   -1    0    0  501  503 -0.00000000000E+00 -0.00000000000E+00 -0.32187030675E+03  0.32187030675E+03  0.00000000000E+00 0. -1.
         24    1    1    2    0    0  0.45775476149E+02  0.21248422759E+01 -0.51303216459E+02  0.10582601355E+03  0.80419002446E+02 0. -1.
          1    1    1    2  501    0 -0.13645736825E+02 -0.16637688366E+02 -0.21409602737E+03  0.21517464475E+03  0.00000000000E+00 0. -1.
         -2    1    1    2    0  502 -0.32129739324E+02  0.14512846090E+02 -0.17832132530E+02  0.39508578831E+02  0.00000000000E+00 0.  1.
<mgrwt>
<rscale>  2 0.74666016E+02</rscale>
<asrwt>0</asrwt>
<pdfrwt beam="1">  1       21 0.59444506E-02 0.74666016E+02</pdfrwt>
<pdfrwt beam="2">  1       21 0.49518511E-01 0.74666016E+02</pdfrwt>
<totfact> 0.77931465E+05</totfact>
</mgrwt>
</event>
<event>
 5    1  0.1854763E+000  0.1344557E+03  0.7546771E-02  0.1220990E+00
         21   -1    0    0  501  502  0.00000000000E+00  0.00000000000E+00  0.11483800200E+04  0.11483800200E+04  0.00000000000E+00 0. -1.
         21   -1    0    0  502  503 -0.00000000000E+00 -0.00000000000E+00 -0.43164193965E+02  0.43164193965E+02  0.00000000000E+00 0. -1.
         24    1    1    2    0    0 -0.92936949565E+02 -0.72565629352E+01  0.15412970139E+03  0.19726407454E+03  0.80419002446E+02 0. -1.
          1    1    1    2  501    0 -0.12100239573E+02  0.35104178852E+02  0.83291148006E+03  0.83373871973E+03  0.00000000000E+00 0. -1.
         -2    1    1    2    0  503  0.10503718914E+03 -0.27847615916E+02  0.11817464461E+03  0.16054141971E+03  0.00000000000E+00 0.  1.
<mgrwt>
<rscale>  2 0.13445575E+03</rscale>
<asrwt>0</asrwt>
<pdfrwt beam="1">  1       21 0.17667383E+00 0.13445575E+03</pdfrwt>
<pdfrwt beam="2">  1       21 0.66406461E-02 0.13445575E+03</pdfrwt>
<totfact> 0.33111202E+04</totfact>
</mgrwt>
</event>
<event>
 5    1  0.1854763E+000  0.2016886E+03  0.7546771E-02  0.1148322E+00
         21   -1    0    0  503  502  0.00000000000E+00  0.00000000000E+00  0.87803137086E+02  0.87803137086E+02  0.00000000000E+00 0. -1.
         21   -1    0    0  501  503 -0.00000000000E+00 -0.00000000000E+00 -0.55255305181E+03  0.55255305181E+03  0.00000000000E+00 0. -1.
         24    1    1    2    0    0 -0.98279681528E+02 -0.15721537024E+03 -0.27051924249E+03  0.33767357752E+03  0.80419002446E+02 0. -1.
          1    1    1    2  501    0  0.57267369543E+02  0.14876569485E+03 -0.20477044466E+03  0.25950282963E+03  0.00000000000E+00 0. -1.
         -2    1    1    2    0  502  0.41012311985E+02  0.84496753909E+01  0.10539772435E+02  0.43179781745E+02  0.00000000000E+00 0.  1.
<mgrwt>
<rscale>  2 0.20168864E+03</rscale>
<asrwt>0</asrwt>
<pdfrwt beam="1">  1       21 0.13508175E-01 0.20168864E+03</pdfrwt>
<pdfrwt beam="2">  1       21 0.85008163E-01 0.20168864E+03</pdfrwt>
<totfact> 0.56576221E+04</totfact>
</mgrwt>
</event>
<event>
 5    1  0.1854763E+000  0.9205494E+02  0.7546771E-02  0.1297950E+00
         21   -1    0    0  501  502  0.00000000000E+00  0.00000000000E+00  0.88823721171E+02  0.88823721171E+02  0.00000000000E+00 0.  1.
         21   -1    0    0  502  503 -0.00000000000E+00 -0.00000000000E+00 -0.11026667577E+03  0.11026667577E+03  0.00000000000E+00 0. -1.
         24    1    1    2    0    0 -0.33846876674E+02 -0.44284962613E+02 -0.47322487675E+02  0.10868947865E+03  0.80419002446E+02 0. -1.
          1    1    1    2  501    0  0.44917431120E+02  0.47039296538E+01  0.17623737800E+02  0.48479879400E+02  0.00000000000E+00 0. -1.
         -2    1    1    2    0  503 -0.11070554446E+02  0.39581032959E+02  0.82557952800E+01  0.41921038890E+02  0.00000000000E+00 0.  1.
<mgrwt>
<rscale>  2 0.92054937E+02</rscale>
<asrwt>0</asrwt>
<pdfrwt beam="1">  1       21 0.13665188E-01 0.92054937E+02</pdfrwt>
<pdfrwt beam="2">  1       21 0.16964104E-01 0.92054937E+02</pdfrwt>
<totfact> 0.14393245E+06</totfact>
</mgrwt>
</event>
<event>
 5    1  0.1854763E+000  0.1448831E+03  0.7546771E-02  0.1206905E+00
         21   -1    0    0  503  502  0.00000000000E+00  0.00000000000E+00  0.11088575815E+03  0.11088575815E+03  0.00000000000E+00 0.  1.
         21   -1    0    0  501  503 -0.00000000000E+00 -0.00000000000E+00 -0.59437734132E+03  0.59437734132E+03  0.00000000000E+00 0. -1.
         24    1    1    2    0    0 -0.89655130409E+02 -0.48227411454E+02  0.29721487767E+02  0.13309586175E+03  0.80419002446E+02 0.  1.
          1    1    1    2  501    0 -0.31145899508E+02  0.15950511937E+02 -0.40586152262E+03  0.40736723166E+03  0.00000000000E+00 0. -1.
         -2    1    1    2    0  502  0.12080102992E+03  0.32276899517E+02 -0.10735154831E+03  0.16480000606E+03  0.00000000000E+00 0.  1.
<mgrwt>
<rscale>  2 0.14488314E+03</rscale>
<asrwt>0</asrwt>
<pdfrwt beam="1">  1       21 0.17059348E-01 0.14488314E+03</pdfrwt>
<pdfrwt beam="2">  1       21 0.91442667E-01 0.14488314E+03</pdfrwt>
<totfact> 0.32264927E+04</totfact>
</mgrwt>
</event>
<event>
 5    1  0.1854763E+000  0.7377894E+02  0.7546771E-02  0.1347695E+00
         21   -1    0    0  501  502  0.00000000000E+00  0.00000000000E+00  0.60826823861E+02  0.60826823861E+02  0.00000000000E+00 0.  1.
         21   -1    0    0  502  503 -0.00000000000E+00 -0.00000000000E+00 -0.11413595182E+03  0.11413595182E+03  0.00000000000E+00 0. -1.
         24    1    1    2    0    0 -0.26027387194E+01  0.47437578950E+02  0.72266434058E+01  0.93683181387E+02  0.80419002446E+02 0.  1.
          1    1    1    2  501    0 -0.11746236204E+02 -0.22557930040E+02 -0.30698829714E+02  0.39865428863E+02  0.00000000000E+00 0. -1.
         -2    1    1    2    0  503  0.14348974923E+02 -0.24879648911E+02 -0.29836941651E+02  0.41414165431E+02  0.00000000000E+00 0.  1.
<mgrwt>
<rscale>  2 0.73778936E+02</rscale>
<asrwt>0</asrwt>
<pdfrwt beam="1">  1       21 0.93579729E-02 0.73778936E+02</pdfrwt>
<pdfrwt beam="2">  1       21 0.17559377E-01 0.73778936E+02</pdfrwt>
<totfact> 0.25929390E+06</totfact>
</mgrwt>
</event>
<event>
 5    1  0.1854763E+000  0.6583523E+02  0.7546771E-02  0.1374857E+00
         21   -1    0    0  503  502  0.00000000000E+00  0.00000000000E+00  0.59262825957E+02  0.59262825957E+02  0.00000000000E+00 0.  1.
         21   -1    0    0  501  503 -0.00000000000E+00 -0.00000000000E+00 -0.25593178210E+03  0.25593178210E+03  0.00000000000E+00 0.  1.
         24    1    1    2    0    0  0.25870922352E+02 -0.96044220499E+01 -0.94552260684E+02  0.12715697189E+03  0.80419002446E+02 0.  1.
          1    1    1    2  501    0 -0.16463821144E+02 -0.13762810729E+02 -0.14049869376E+03  0.14212795402E+03  0.00000000000E+00 0. -1.
         -2    1    1    2    0  502 -0.94071012082E+01  0.23367232779E+02  0.38381998301E+02  0.45909682143E+02  0.00000000000E+00 0.  1.
<mgrwt>
<rscale>  2 0.65835235E+02</rscale>
<asrwt>0</asrwt>
<pdfrwt beam="1">  1       21 0.91173579E-02 0.65835235E+02</pdfrwt>
<pdfrwt beam="2">  1       21 0.39374120E-01 0.65835235E+02</pdfrwt>
<totfact> 0.59636531E+05</totfact>
</mgrwt>
</event>
<event>
 5    1  0.1854763E+000  0.8289763E+02  0.7546771E-02  0.1321024E+00
         21   -1    0    0  503  502  0.00000000000E+00  0.00000000000E+00  0.20870019709E+03  0.20870019709E+03  0.00000000000E+00 0.  1.
         21   -1    0    0  501  503 -0.00000000000E+00 -0.00000000000E+00 -0.47768982199E+02  0.47768982199E+02  0.00000000000E+00 0. -1.
         24    1    1    2    0    0  0.18378854961E+02  0.55063230901E+02  0.11717064902E+03  0.15351194954E+03  0.80419002446E+02 0.  1.
          1    1    1    2  501    0  0.43380938982E+01 -0.37886373116E+02 -0.12307287031E+02  0.40070757924E+02  0.00000000000E+00 0. -1.
         -2    1    1    2    0  502 -0.22716948859E+02 -0.17176857785E+02  0.56067852910E+02  0.62886471827E+02  0.00000000000E+00 0.  1.
<mgrwt>
<rscale>  2 0.82897628E+02</rscale>
<asrwt>0</asrwt>
<pdfrwt beam="1">  1       21 0.32107722E-01 0.82897628E+02</pdfrwt>
<pdfrwt beam="2">  1       21 0.73490743E-02 0.82897628E+02</pdfrwt>
<totfact> 0.12838188E+06</totfact>
</mgrwt>
</event>
<event>
 5    1  0.1854763E+000  0.7055749E+02  0.7546771E-02  0.1358207E+00
         21   -1    0    0  501  502  0.00000000000E+00  0.00000000000E+00  0.94004844960E+01  0.94004844960E+01  0.00000000000E+00 0.  1.
         21   -1    0    0  502  503 -0.00000000000E+00 -0.00000000000E+00 -0.55852350437E+03  0.55852350437E+03  0.00000000000E+00 0.  1.
         24    1    1    2    0    0  0.40599776170E+02 -0.22962140120E+02 -0.29635347807E+03  0.31059330582E+03  0.80419002446E+02 0.  1.
          1    1    1    2  501    0 -0.21367245151E+02  0.52511117029E+01 -0.12324831915E+03  0.12519697086E+03  0.00000000000E+00 0. -1.
         -2    1    1    2    0  503 -0.19232531019E+02  0.17711028418E+02 -0.12952122266E+03  0.13213371219E+03  0.00000000000E+00 0.  1.
<mgrwt>
<rscale>  2 0.70557486E+02</rscale>
<asrwt>0</asrwt>
<pdfrwt beam="1">  1       21 0.14462279E-02 0.70557486E+02</pdfrwt>
<pdfrwt beam="2">  1       21 0.85926722E-01 0.70557486E+02</pdfrwt>
<totfact> 0.23783494E+06</totfact>
</mgrwt>
</event>
<event>
 5    1  0.1854763E+000  0.2117048E+03  0.7546771E-02  0.1140223E+00
         21   -1    0    0  503  502  0.00000000000E+00  0.00000000000E+00  0.58381941242E+03  0.58381941242E+03  0.00000000000E+00 0.  1.
         21   -1    0    0  501  503 -0.00000000000E+00 -0.00000000000E+00 -0.13332056110E+03  0.13332056110E+03  0.00000000000E+00 0. -1.
         24    1    1    2    0    0  0.17897127981E+03 -0.22085525839E+02  0.27327044635E+03  0.33713860985E+03  0.80419002446E+02 0.  1.
          1    1    1    2  501    0  0.22346177554E+02 -0.48026920933E+01 -0.62061264492E+02  0.66136359538E+02  0.00000000000E+00 0. -1.
         -2    1    1    2    0  502 -0.20131745736E+03  0.26888217932E+02  0.23928966947E+03  0.31386500413E+03  0.00000000000E+00 0.  1.
<mgrwt>
<rscale>  2 0.21170478E+03</rscale>
<asrwt>0</asrwt>
<pdfrwt beam="1">  1       21 0.89818369E-01 0.21170478E+03</pdfrwt>
<pdfrwt beam="2">  1       21 0.20510856E-01 0.21170478E+03</pdfrwt>
<totfact> 0.22982258E+04</totfact>
</mgrwt>
</event>
<event>
 5    1  0.1854763E+000  0.7106908E+02  0.7546771E-02  0.1356495E+00
         21   -1    0    0  501  502  0.00000000000E+00  0.00000000000E+00  0.91452344008E+03  0.91452344008E+03  0.00000000000E+00 0.  1.
         21   -1    0    0  502  503 -0.00000000000E+00 -0.00000000000E+00 -0.10016318406E+02  0.10016318406E+02  0.00000000000E+00 0. -1.
         24    1    1    2    0    0  0.20366634211E+02 -0.20810121829E+01  0.23903528235E+03  0.25303006257E+03  0.80419002446E+02 0. -1.
          1    1    1    2  501    0 -0.23249089683E+02  0.26105495215E+02  0.60986970444E+03  0.61087075020E+03  0.00000000000E+00 0. -1.
         -2    1    1    2    0  503  0.28824554715E+01 -0.24024483032E+02  0.55602134880E+02  0.60638945718E+02  0.00000000000E+00 0.  1.
<mgrwt>
<rscale>  2 0.71069078E+02</rscale>
<asrwt>0</asrwt>
<pdfrwt beam="1">  1       21 0.14069585E+00 0.71069078E+02</pdfrwt>
<pdfrwt beam="2">  1       21 0.15409728E-02 0.71069078E+02</pdfrwt>
<totfact> 0.67838602E+05</totfact>
</mgrwt>
</event>
<event>
 5    1  0.1854763E+000  0.7271641E+02  0.7546771E-02  0.1351092E+00
         21   -1    0    0  503  502  0.00000000000E+00  0.00000000000E+00  0.17367350186E+02  0.17367350186E+02  0.00000000000E+00 0.  1.
         21   -1    0    0  501  503 -0.00000000000E+00 -0.00000000000E+00 -0.31763956621E+03  0.31763956621E+03  0.00000000000E+00 0. -1.
         24    1    1    2    0    0 -0.16895245621E+02 -0.32263904819E+02 -0.15295571089E+03  0.17660428739E+03  0.80419002446E+02 0.  1.
          1    1    1    2  501    0 -0.99782686477E+01  0.28274184989E+02 -0.92223335327E+02  0.96974939860E+02  0.00000000000E+00 0. -1.
         -2    1    1    2    0  502  0.26873514269E+02  0.39897198293E+01 -0.55093169810E+02  0.61427689141E+02  0.00000000000E+00 0.  1.
<mgrwt>
<rscale>  2 0.72716412E+02</rscale>
<asrwt>0</asrwt>
<pdfrwt beam="1">  1       21 0.26719001E-02 0.72716412E+02</pdfrwt>
<pdfrwt beam="2">  1       21 0.48867625E-01 0.72716412E+02</pdfrwt>
<totfact> 0.29630574E+06</totfact>
</mgrwt>
</event>
<event>
 5    1  0.3229663E+000  0.9427743E+02  0.7546771E-02  0.1292812E+00
         21   -1    0    0  501  502  0.00000000000E+00  0.00000000000E+00  0.29530807277E+03  0.29530807277E+03  0.00000000000E+00 0.  1.
         21   -1    0    0  502  503 -0.00000000000E+00 -0.00000000000E+00 -0.36023645298E+03  0.36023645298E+03  0.00000000000E+00 0.  1.
         24    1    1    2    0    0 -0.70606749186E+00  0.40267580296E+02  0.22481283453E+03  0.24213633159E+03  0.80419002446E+02 0.  1.
          1    1    1    2  501    0 -0.27121271314E+02  0.19017099483E+02  0.54072977924E+02  0.63412146881E+02  0.00000000000E+00 0. -1.
         -2    1    1    2    0  503  0.27827338806E+02 -0.59284679779E+02 -0.34381419266E+03  0.34999604728E+03  0.00000000000E+00 0.  1.
<mgrwt>
<rscale>  2 0.94277434E+02</rscale>
<asrwt>0</asrwt>
<pdfrwt beam="1">  1       21 0.45432011E-01 0.94277434E+02</pdfrwt>
<pdfrwt beam="2">  1       21 0.55420993E-01 0.94277434E+02</pdfrwt>
<totfact> 0.15404938E+04</totfact>
</mgrwt>
</event>
<event>
 5    1  0.1854763E+000  0.7084468E+02  0.7546771E-02  0.1357244E+00
         21   -1    0    0  501  502  0.00000000000E+00  0.00000000000E+00  0.62370339831E+02  0.62370339831E+02  0.00000000000E+00 0. -1.
         21   -1    0    0  502  503 -0.00000000000E+00 -0.00000000000E+00 -0.19742770444E+03  0.19742770444E+03  0.00000000000E+00 0.  1.
         24    1    1    2    0    0  0.16134891342E+02  0.60848814897E+01  0.11343962445E+02  0.83025670366E+02  0.80419002446E+02 0.  0.
          1    1    1    2  501    0 -0.11620333075E+00  0.24720617241E+02  0.15808463046E+01  0.24771384601E+02  0.00000000000E+00 0. -1.
         -2    1    1    2    0  503 -0.16018688011E+02 -0.30805498731E+02 -0.14798217336E+03  0.15200098931E+03  0.00000000000E+00 0.  1.
<mgrwt>
<rscale>  2 0.70844679E+02</rscale>
<asrwt>0</asrwt>
<pdfrwt beam="1">  1       21 0.95954369E-02 0.70844679E+02</pdfrwt>
<pdfrwt beam="2">  1       21 0.30373493E-01 0.70844679E+02</pdfrwt>
<totfact> 0.90198320E+05</totfact>
</mgrwt>
</event>
<event>
 5    1  0.1854763E+000  0.8555078E+02  0.7546771E-02  0.1313998E+00
         21   -1    0    0  503  502  0.00000000000E+00  0.00000000000E+00  0.73360742161E+02  0.73360742161E+02  0.00000000000E+00 0.  1.
         21   -1    0    0  501  503 -0.00000000000E+00 -0.00000000000E+00 -0.40497628866E+03  0.40497628866E+03  0.00000000000E+00 0. -1.
         24    1    1    2    0    0 -0.74109841817E+01  0.29310235505E+02 -0.85307354468E+02  0.12107259505E+03  0.80419002446E+02 0. -1.
          1    1    1    2  501    0 -0.39134634643E+01 -0.56030257223E+02 -0.29515252598E+03  0.30044919456E+03  0.00000000000E+00 0. -1.
         -2    1    1    2    0  502  0.11324447646E+02  0.26720021718E+02  0.48844333947E+02  0.56815241210E+02  0.00000000000E+00 0.  1.
<mgrwt>
<rscale>  2 0.85550782E+02</rscale>
<asrwt>0</asrwt>
<pdfrwt beam="1">  1       21 0.11286268E-01 0.85550782E+02</pdfrwt>
<pdfrwt beam="2">  1       21 0.62304043E-01 0.85550782E+02</pdfrwt>
<totfact> 0.16216118E+05</totfact>
</mgrwt>
</event>
<event>
 5    1  0.1854763E+000  0.1160112E+03  0.7546771E-02  0.1249826E+00
         21   -1    0    0  501  502  0.00000000000E+00  0.00000000000E+00  0.86485886202E+01  0.86485886202E+01  0.00000000000E+00 0. -1.
         21   -1    0    0  502  503 -0.00000000000E+00 -0.00000000000E+00 -0.18658711110E+04  0.18658711110E+04  0.00000000000E+00 0. -1.
         24    1    1    2    0    0  0.10153808169E+03  0.10321588572E+02 -0.10138471925E+04  0.10221398451E+04  0.80419002446E+02 0. -1.
          1    1    1    2  501    0 -0.55875180347E+02 -0.45796098722E+01 -0.21063951330E+03  0.21797250553E+03  0.00000000000E+00 0. -1.
         -2    1    1    2    0  503 -0.45662901344E+02 -0.57419786999E+01 -0.63273581659E+03  0.63440734901E+03  0.00000000000E+00 0.  1.
<mgrwt>
<rscale>  2 0.11601123E+03</rscale>
<asrwt>0</asrwt>
<pdfrwt beam="1">  1       21 0.13305520E-02 0.11601123E+03</pdfrwt>
<pdfrwt beam="2">  1       21 0.28705712E+00 0.11601123E+03</pdfrwt>
<totfact> 0.10344831E+05</totfact>
</mgrwt>
</event>
<event>
 5    1  0.1854763E+000  0.7190259E+02  0.7546771E-02  0.1353740E+00
         21   -1    0    0  501  502  0.00000000000E+00  0.00000000000E+00  0.26470442753E+02  0.26470442753E+02  0.00000000000E+00 0. -1.
         21   -1    0    0  502  503 -0.00000000000E+00 -0.00000000000E+00 -0.67074017421E+03  0.67074017421E+03  0.00000000000E+00 0. -1.
         24    1    1    2    0    0  0.13084280992E+02  0.46473415689E+02 -0.34844856649E+03  0.36085259625E+03  0.80419002446E+02 0. -1.
          1    1    1    2  501    0 -0.15933521789E+01 -0.29300045811E+02  0.91120003073E+01  0.30725559479E+02  0.00000000000E+00 0. -1.
         -2    1    1    2    0  503 -0.11490928813E+02 -0.17173369878E+02 -0.30493316527E+03  0.30563246124E+03  0.00000000000E+00 0.  1.
<mgrwt>
<rscale>  2 0.71902588E+02</rscale>
<asrwt>0</asrwt>
<pdfrwt beam="1">  1       21 0.40723761E-02 0.71902588E+02</pdfrwt>
<pdfrwt beam="2">  1       21 0.10319079E+00 0.71902588E+02</pdfrwt>
<totfact> 0.29910220E+05</totfact>
</mgrwt>
</event>
<event>
 5    1  0.1854763E+000  0.8457762E+02  0.7546771E-02  0.1316541E+00
         21   -1    0    0  503  502  0.00000000000E+00  0.00000000000E+00  0.32950247250E+02  0.32950247250E+02  0.00000000000E+00 0.  1.
         21   -1    0    0  501  503 -0.00000000000E+00 -0.00000000000E+00 -0.27727068249E+03  0.27727068249E+03  0.00000000000E+00 0.  1.
         24    1    1    2    0    0 -0.70116301321E+01 -0.63792569105E+02 -0.11811771098E+03  0.15664502683E+03  0.80419002446E+02 0.  1.
          1    1    1    2  501    0 -0.53136996673E+01  0.25218951906E+02 -0.10450147000E+03  0.10763265384E+03  0.00000000000E+00 0. -1.
         -2    1    1    2    0  502  0.12325329799E+02  0.38573617199E+02 -0.21701254254E+02  0.45943249065E+02  0.00000000000E+00 0.  1.
<mgrwt>
<rscale>  2 0.84577624E+02</rscale>
<asrwt>0</asrwt>
<pdfrwt beam="1">  1       21 0.50692687E-02 0.84577624E+02</pdfrwt>
<pdfrwt beam="2">  1       21 0.42657029E-01 0.84577624E+02</pdfrwt>
<totfact> 0.13749913E+06</totfact>
</mgrwt>
</event>
<event>
 5    1  0.1854763E+000  0.8721303E+02  0.7546771E-02  0.1309745E+00
         21   -1    0    0  501  502  0.00000000000E+00  0.00000000000E+00  0.11531034347E+03  0.11531034347E+03  0.00000000000E+00 0. -1.
         21   -1    0    0  502  503 -0.00000000000E+00 -0.00000000000E+00 -0.76734484949E+02  0.76734484949E+02  0.00000000000E+00 0.  1.
         24    1    1    2    0    0  0.25700093521E+02  0.14694649758E+02  0.52602477531E+02  0.10055179827E+03  0.80419002446E+02 0.  1.
          1    1    1    2  501    0 -0.54054799341E+02  0.48818649029E+01  0.43422884915E-01  0.54274817570E+02  0.00000000000E+00 0. -1.
         -2    1    1    2    0  503  0.28354705820E+02 -0.19576514661E+02 -0.14070041897E+02  0.37218212577E+02  0.00000000000E+00 0.  1.
<mgrwt>
<rscale>  2 0.87213027E+02</rscale>
<asrwt>0</asrwt>
<pdfrwt beam="1">  1       21 0.17740053E-01 0.87213027E+02</pdfrwt>
<pdfrwt beam="2">  1       21 0.11805305E-01 0.87213027E+02</pdfrwt>
<totfact> 0.17148101E+06</totfact>
</mgrwt>
</event>
<event>
 5    1  0.1946532E+000  0.9206602E+02  0.7546771E-02  0.1297924E+00
         21   -1    0    0  501  502  0.00000000000E+00  0.00000000000E+00  0.62195474532E+03  0.62195474532E+03  0.00000000000E+00 0. -1.
         21   -1    0    0  502  503 -0.00000000000E+00 -0.00000000000E+00 -0.12519590742E+03  0.12519590742E+03  0.00000000000E+00 0.  1.
         24    1    1    2    0    0 -0.37378981597E+02 -0.36660401625E+02  0.47573166279E+03  0.48531330524E+03  0.80419002446E+02 0. -1.
          1    1    1    2  501    0  0.56598859982E+02  0.13708770079E+02  0.13339365477E+03  0.14555146328E+03  0.00000000000E+00 0. -1.
         -2    1    1    2    0  503 -0.19219878385E+02  0.22951631547E+02 -0.11236647966E+03  0.11628588421E+03  0.00000000000E+00 0.  1.
<mgrwt>
<rscale>  2 0.92066016E+02</rscale>
<asrwt>0</asrwt>
<pdfrwt beam="1">  1       21 0.95685343E-01 0.92066016E+02</pdfrwt>
<pdfrwt beam="2">  1       21 0.19260909E-01 0.92066016E+02</pdfrwt>
<totfact> 0.24262502E+04</totfact>
</mgrwt>
</event>
<event>
 5    1  0.1854763E+000  0.9613259E+02  0.7546771E-02  0.1288645E+00
         21   -1    0    0  503  502  0.00000000000E+00  0.00000000000E+00  0.20283787612E+03  0.20283787612E+03  0.00000000000E+00 0.  1.
         21   -1    0    0  501  503 -0.00000000000E+00 -0.00000000000E+00 -0.56002310121E+02  0.56002310121E+02  0.00000000000E+00 0. -1.
         24    1    1    2    0    0 -0.56299426851E+02 -0.50354783386E+02  0.81498397157E+02  0.13716571863E+03  0.80419002446E+02 0.  0.
          1    1    1    2  501    0  0.33281257022E+02  0.48530530835E+02  0.74048650192E+01  0.59310087827E+02  0.00000000000E+00 0. -1.
         -2    1    1    2    0  502  0.23018169830E+02  0.18242525514E+01  0.57932303820E+02  0.62364379782E+02  0.00000000000E+00 0.  1.
<mgrwt>
<rscale>  2 0.96132588E+02</rscale>
<asrwt>0</asrwt>
<pdfrwt beam="1">  1       21 0.31205827E-01 0.96132588E+02</pdfrwt>
<pdfrwt beam="2">  1       21 0.86157401E-02 0.96132588E+02</pdfrwt>
<totfact> 0.10372308E+06</totfact>
</mgrwt>
</event>
<event>
 5    1  0.1854763E+000  0.8777909E+02  0.7546771E-02  0.1308321E+00
         21   -1    0    0  501  502  0.00000000000E+00  0.00000000000E+00  0.62744984034E+03  0.62744984034E+03  0.00000000000E+00 0. -1.
         21   -1    0    0  502  503 -0.00000000000E+00 -0.00000000000E+00 -0.16297360964E+02  0.16297360964E+02  0.00000000000E+00 0. -1.
         24    1    1    2    0    0 -0.11674522683E+02  0.67867617377E+02  0.23424605107E+03  0.25706173649E+03  0.80419002446E+02 0. -1.
          1    1    1    2  501    0  0.86864047916E+01 -0.21071198945E+02  0.25587084669E+03  0.25688390226E+03  0.00000000000E+00 0. -1.
         -2    1    1    2    0  503  0.29881178916E+01 -0.46796418432E+02  0.12103558161E+03  0.12980156256E+03  0.00000000000E+00 0.  1.
<mgrwt>
<rscale>  2 0.87779093E+02</rscale>
<asrwt>0</asrwt>
<pdfrwt beam="1">  1       21 0.96530726E-01 0.87779093E+02</pdfrwt>
<pdfrwt beam="2">  1       21 0.25072868E-02 0.87779093E+02</pdfrwt>
<totfact> 0.76575431E+05</totfact>
</mgrwt>
</event>
<event>
 5    1  0.1854763E+000  0.9649688E+02  0.7546771E-02  0.1287840E+00
         21   -1    0    0  501  502  0.00000000000E+00  0.00000000000E+00  0.11703261427E+02  0.11703261427E+02  0.00000000000E+00 0. -1.
         21   -1    0    0  502  503 -0.00000000000E+00 -0.00000000000E+00 -0.13178310355E+04  0.13178310355E+04  0.00000000000E+00 0. -1.
         24    1    1    2    0    0 -0.39304191943E+02  0.40364522282E+02 -0.90884791935E+03  0.91413668049E+03  0.80419002446E+02 0. -1.
          1    1    1    2  501    0  0.36954328350E+02  0.14640130616E+02 -0.50460268369E+02  0.64235461329E+02  0.00000000000E+00 0. -1.
         -2    1    1    2    0  503  0.23498635934E+01 -0.55004652898E+02 -0.34681958636E+03  0.35116215511E+03  0.00000000000E+00 0.  1.
<mgrwt>
<rscale>  2 0.96496879E+02</rscale>
<asrwt>0</asrwt>
<pdfrwt beam="1">  1       21 0.18005025E-02 0.96496879E+02</pdfrwt>
<pdfrwt beam="2">  1       21 0.20274315E+00 0.96496879E+02</pdfrwt>
<totfact> 0.19895518E+05</totfact>
</mgrwt>
</event>
<event>
 5    1  0.1854763E+000  0.1182646E+03  0.7546771E-02  0.1245988E+00
         21   -1    0    0  503  502  0.00000000000E+00  0.00000000000E+00  0.54000326485E+03  0.54000326485E+03  0.00000000000E+00 0.  1.
         21   -1    0    0  501  503 -0.00000000000E+00 -0.00000000000E+00 -0.27722693090E+02  0.27722693090E+02  0.00000000000E+00 0.  1.
         24    1    1    2    0    0  0.28479426690E+02 -0.83667818781E+02  0.18644648603E+03  0.22145177749E+03  0.80419002446E+02 0.  1.
          1    1    1    2  501    0  0.25194287407E+02  0.13162580789E+02  0.71318228800E+02  0.76774314781E+02  0.00000000000E+00 0. -1.
         -2    1    1    2    0  502 -0.53673714097E+02  0.70505237993E+02  0.25451585693E+03  0.26949986568E+03  0.00000000000E+00 0.  1.
<mgrwt>
<rscale>  2 0.11826461E+03</rscale>
<asrwt>0</asrwt>
<pdfrwt beam="1">  1       21 0.83077418E-01 0.11826461E+03</pdfrwt>
<pdfrwt beam="2">  1       21 0.42650301E-02 0.11826461E+03</pdfrwt>
<totfact> 0.45004402E+05</totfact>
</mgrwt>
</event>
<event>
 5    1  0.1854763E+000  0.1185977E+03  0.7546771E-02  0.1245428E+00
         21   -1    0    0  503  502  0.00000000000E+00  0.00000000000E+00  0.58967086510E+03  0.58967086510E+03  0.00000000000E+00 0. -1.
         21   -1    0    0  501  503 -0.00000000000E+00 -0.00000000000E+00 -0.77561927129E+02  0.77561927129E+02  0.00000000000E+00 0. -1.
         24    1    1    2    0    0  0.74061635243E+01 -0.69006779265E+02  0.67105075549E+02  0.12564670295E+03  0.80419002446E+02 0. -1.
          1    1    1    2  501    0  0.19949714281E+02  0.92673579677E+02 -0.31845272293E+00  0.94797072118E+02  0.00000000000E+00 0. -1.
         -2    1    1    2    0  502 -0.27355877805E+02 -0.23666800411E+02  0.44532231515E+03  0.44678901716E+03  0.00000000000E+00 0.  1.
<mgrwt>
<rscale>  2 0.11859769E+03</rscale>
<asrwt>0</asrwt>
<pdfrwt beam="1">  1       21 0.90718592E-01 0.11859769E+03</pdfrwt>
<pdfrwt beam="2">  1       21 0.11932605E-01 0.11859769E+03</pdfrwt>
<totfact> 0.63426900E+04</totfact>
</mgrwt>
</event>
<event>
 5    1  0.1854763E+000  0.6870148E+02  0.7546771E-02  0.1364565E+00
         21   -1    0    0  501  502  0.00000000000E+00  0.00000000000E+00  0.66265146188E+03  0.66265146188E+03  0.00000000000E+00 0. -1.
         21   -1    0    0  502  503 -0.00000000000E+00 -0.00000000000E+00 -0.49124945903E+02  0.49124945903E+02  0.00000000000E+00 0.  1.
         24    1    1    2    0    0  0.23451434844E+02  0.10838956240E+02  0.16810231560E+03  0.18813042612E+03  0.80419002446E+02 0.  1.
          1    1    1    2  501    0  0.17265825891E+01 -0.24316478509E+02  0.47897023143E+03  0.47959019466E+03  0.00000000000E+00 0. -1.
         -2    1    1    2    0  503 -0.25178017433E+02  0.13477522268E+02 -0.33546031058E+02  0.44055786999E+02  0.00000000000E+00 0.  1.
<mgrwt>
<rscale>  2 0.68701481E+02</rscale>
<asrwt>0</asrwt>
<pdfrwt beam="1">  1       21 0.10194637E+00 0.68701481E+02</pdfrwt>
<pdfrwt beam="2">  1       21 0.75576845E-02 0.68701481E+02</pdfrwt>
<totfact> 0.11021396E+05</totfact>
</mgrwt>
</event>
<event>
 5    1  0.1854763E+000  0.8007384E+02  0.7546771E-02  0.1328842E+00
         21   -1    0    0  501  502  0.00000000000E+00  0.00000000000E+00  0.32005670051E+02  0.32005670051E+02  0.00000000000E+00 0. -1.
         21   -1    0    0  502  503 -0.00000000000E+00 -0.00000000000E+00 -0.50668899964E+03  0.50668899964E+03  0.00000000000E+00 0.  1.
         24    1    1    2    0    0  0.12629035523E+02  0.37079330476E+02 -0.49378712927E+02  0.10217554762E+03  0.80419002446E+02 0.  0.
          1    1    1    2  501    0 -0.29223142697E+02  0.91353518272E+00 -0.43151304367E+02  0.52123523329E+02  0.00000000000E+00 0. -1.
         -2    1    1    2    0  503  0.16594107174E+02 -0.37992865659E+02 -0.38215331229E+03  0.38439559874E+03  0.00000000000E+00 0.  1.
<mgrwt>
<rscale>  2 0.80073840E+02</rscale>
<asrwt>0</asrwt>
<pdfrwt beam="1">  1       21 0.49239494E-02 0.80073840E+02</pdfrwt>
<pdfrwt beam="2">  1       21 0.77952152E-01 0.80073840E+02</pdfrwt>
<totfact> 0.41029546E+05</totfact>
</mgrwt>
</event>
<event>
 5    1  0.1854763E+000  0.8863696E+02  0.7546771E-02  0.1306186E+00
         21   -1    0    0  501  502  0.00000000000E+00  0.00000000000E+00  0.50670341206E+02  0.50670341206E+02  0.00000000000E+00 0. -1.
         21   -1    0    0  502  503 -0.00000000000E+00 -0.00000000000E+00 -0.35782403811E+03  0.35782403811E+03  0.00000000000E+00 0. -1.
         24    1    1    2    0    0 -0.44643475601E+02  0.73065689916E+00 -0.18935179514E+03  0.21051102596E+03  0.80419002446E+02 0. -1.
          1    1    1    2  501    0  0.37150251889E+02  0.33637342044E+02  0.21335484425E+02  0.54468476120E+02  0.00000000000E+00 0. -1.
         -2    1    1    2    0  503  0.74932237115E+01 -0.34367998943E+02 -0.13913738618E+03  0.14351487723E+03  0.00000000000E+00 0.  1.
<mgrwt>
<rscale>  2 0.88636961E+02</rscale>
<asrwt>0</asrwt>
<pdfrwt beam="1">  1       21 0.77954370E-02 0.88636961E+02</pdfrwt>
<pdfrwt beam="2">  1       21 0.55049853E-01 0.88636961E+02</pdfrwt>
<totfact> 0.39727301E+05</totfact>
</mgrwt>
</event>
<event>
 5    1  0.1854763E+000  0.7846172E+02  0.7546771E-02  0.1333474E+00
         21   -1    0    0  501  502  0.00000000000E+00  0.00000000000E+00  0.90279947327E+02  0.90279947327E+02  0.00000000000E+00 0. -1.
         21   -1    0    0  502  503 -0.00000000000E+00 -0.00000000000E+00 -0.16802418112E+03  0.16802418112E+03  0.00000000000E+00 0. -1.
         24    1    1    2    0    0  0.28104739300E+02  0.11637962448E+02 -0.10821269218E+03  0.13821187085E+03  0.80419002446E+02 0. -1.
          1    1    1    2  501    0 -0.39956992785E+02  0.14289724989E+02  0.63553832110E+02  0.76418892223E+02  0.00000000000E+00 0. -1.
         -2    1    1    2    0  503  0.11852253485E+02 -0.25927687436E+02 -0.33085373724E+02  0.43673365372E+02  0.00000000000E+00 0.  1.
<mgrwt>
<rscale>  2 0.78461721E+02</rscale>
<asrwt>0</asrwt>
<pdfrwt beam="1">  1       21 0.13889223E-01 0.78461721E+02</pdfrwt>
<pdfrwt beam="2">  1       21 0.25849874E-01 0.78461721E+02</pdfrwt>
<totfact> 0.64323766E+05</totfact>
</mgrwt>
</event>
<event>
 5    1  0.1854763E+000  0.8301468E+02  0.7546771E-02  0.1320708E+00
         21   -1    0    0  503  502  0.00000000000E+00  0.00000000000E+00  0.42872153686E+02  0.42872153686E+02  0.00000000000E+00 0.  1.
         21   -1    0    0  501  503 -0.00000000000E+00 -0.00000000000E+00 -0.17180824604E+03  0.17180824604E+03  0.00000000000E+00 0.  1.
         24    1    1    2    0    0 -0.19139893071E+02 -0.49964016283E+02 -0.77026441260E+02  0.12354362403E+03  0.80419002446E+02 0.  1.
          1    1    1    2  501    0  0.33679757878E+02  0.34744329658E+02 -0.50651593720E+02  0.70050542328E+02  0.00000000000E+00 0. -1.
         -2    1    1    2    0  502 -0.14539864807E+02  0.15219686626E+02 -0.12580573777E+01  0.21086233375E+02  0.00000000000E+00 0.  1.
<mgrwt>
<rscale>  2 0.83014676E+02</rscale>
<asrwt>0</asrwt>
<pdfrwt beam="1">  1       21 0.65957157E-02 0.83014676E+02</pdfrwt>
<pdfrwt beam="2">  1       21 0.26432039E-01 0.83014676E+02</pdfrwt>
<totfact> 0.22300423E+06</totfact>
</mgrwt>
</event>
<event>
 5    1  0.1854763E+000  0.1024296E+03  0.7546771E-02  0.1275268E+00
         21   -1    0    0  501  502  0.00000000000E+00  0.00000000000E+00  0.21341952830E+03  0.21341952830E+03  0.00000000000E+00 0.  1.
         21   -1    0    0  502  503 -0.00000000000E+00 -0.00000000000E+00 -0.12914855429E+03  0.12914855429E+03  0.00000000000E+00 0.  1.
         24    1    1    2    0    0  0.39045303225E+02 -0.75377466055E+02  0.16748001374E+03  0.20426225556E+03  0.80419002446E+02 0.  1.
          1    1    1    2  501    0 -0.27965656950E+01  0.28651098014E+02  0.77499603705E+01  0.29812213652E+02  0.00000000000E+00 0. -1.
         -2    1    1    2    0  503 -0.36248737531E+02  0.46726368041E+02 -0.90959000106E+02  0.10849361337E+03  0.00000000000E+00 0.  1.
<mgrwt>
<rscale>  2 0.10242962E+03</rscale>
<asrwt>0</asrwt>
<pdfrwt beam="1">  1       21 0.32833774E-01 0.10242962E+03</pdfrwt>
<pdfrwt beam="2">  1       21 0.19869008E-01 0.10242962E+03</pdfrwt>
<totfact> 0.21366231E+05</totfact>
</mgrwt>
</event>
<event>
 5    1  0.1854763E+000  0.6259811E+02  0.7546771E-02  0.1387241E+00
         21   -1    0    0  501  502  0.00000000000E+00  0.00000000000E+00  0.21811352592E+02  0.21811352592E+02  0.00000000000E+00 0. -1.
         21   -1    0    0  502  503 -0.00000000000E+00 -0.00000000000E+00 -0.25690052499E+03  0.25690052499E+03  0.00000000000E+00 0. -1.
         24    1    1    2    0    0  0.68872216004E+00  0.68181826716E+01 -0.67413124849E+02  0.10516038850E+03  0.80419002446E+02 0. -1.
          1    1    1    2  501    0 -0.18192362826E+02  0.95279243938E+01 -0.67658721161E+02  0.70706760339E+02  0.00000000000E+00 0. -1.
         -2    1    1    2    0  503  0.17503640666E+02 -0.16346107065E+02 -0.10001732638E+03  0.10284472874E+03  0.00000000000E+00 0.  1.
<mgrwt>
<rscale>  2 0.62598113E+02</rscale>
<asrwt>0</asrwt>
<pdfrwt beam="1">  1       21 0.33555927E-02 0.62598113E+02</pdfrwt>
<pdfrwt beam="2">  1       21 0.39523158E-01 0.62598113E+02</pdfrwt>
<totfact> 0.31008148E+06</totfact>
</mgrwt>
</event>
<event>
 5    1  0.1854763E+000  0.8724729E+02  0.7546771E-02  0.1309658E+00
         21   -1    0    0  503  502  0.00000000000E+00  0.00000000000E+00  0.21472147806E+02  0.21472147806E+02  0.00000000000E+00 0. -1.
         21   -1    0    0  501  503 -0.00000000000E+00 -0.00000000000E+00 -0.53401526393E+03  0.53401526393E+03  0.00000000000E+00 0. -1.
         24    1    1    2    0    0  0.44973810481E+02  0.46885357320E+02 -0.13544048697E+03  0.17038844393E+03  0.80419002446E+02 0. -1.
          1    1    1    2  501    0 -0.15098553620E+02 -0.36471206906E+02 -0.28484796299E+03  0.28756995197E+03  0.00000000000E+00 0. -1.
         -2    1    1    2    0  502 -0.29875256861E+02 -0.10414150415E+02 -0.92254666155E+02  0.97529015829E+02  0.00000000000E+00 0.  1.
<mgrwt>
<rscale>  2 0.87247287E+02</rscale>
<asrwt>0</asrwt>
<pdfrwt beam="1">  1       21 0.33034072E-02 0.87247287E+02</pdfrwt>
<pdfrwt beam="2">  1       21 0.82156198E-01 0.87247287E+02</pdfrwt>
<totfact> 0.70419255E+05</totfact>
</mgrwt>
</event>
<event>
 5    1  0.1854763E+000  0.7070169E+02  0.7546771E-02  0.1357723E+00
         21   -1    0    0  503  502  0.00000000000E+00  0.00000000000E+00  0.84929438956E+01  0.84929438956E+01  0.00000000000E+00 0.  1.
         21   -1    0    0  501  503 -0.00000000000E+00 -0.00000000000E+00 -0.17470768659E+04  0.17470768659E+04  0.00000000000E+00 0. -1.
         24    1    1    2    0    0  0.77228592496E+01 -0.15885319014E+02 -0.43180496487E+03  0.43958472398E+03  0.80419002446E+02 0. -1.
          1    1    1    2  501    0  0.22146052092E+02 -0.48955656670E+01 -0.12377091421E+04  0.12379169336E+04  0.00000000000E+00 0. -1.
         -2    1    1    2    0  502 -0.29868911342E+02  0.20780884681E+02 -0.69069815010E+02  0.78068152139E+02  0.00000000000E+00 0.  1.
<mgrwt>
<rscale>  2 0.70701690E+02</rscale>
<asrwt>0</asrwt>
<pdfrwt beam="1">  1       21 0.13066060E-02 0.70701690E+02</pdfrwt>
<pdfrwt beam="2">  1       21 0.26878120E+00 0.70701690E+02</pdfrwt>
<totfact> 0.14265793E+05</totfact>
</mgrwt>
</event>
<event>
 5    1  0.1854763E+000  0.8413320E+02  0.7546771E-02  0.1317715E+00
         21   -1    0    0  501  502  0.00000000000E+00  0.00000000000E+00  0.71364306237E+03  0.71364306237E+03  0.00000000000E+00 0. -1.
         21   -1    0    0  502  503 -0.00000000000E+00 -0.00000000000E+00 -0.11684689764E+02  0.11684689764E+02  0.00000000000E+00 0. -1.
         24    1    1    2    0    0 -0.14317569106E+02  0.62721472275E+02  0.33121896532E+03  0.34686048321E+03  0.80419002446E+02 0. -1.
          1    1    1    2  501    0  0.12146861632E+02 -0.28382442657E+02  0.27509928393E+03  0.27682616443E+03  0.00000000000E+00 0. -1.
         -2    1    1    2    0  503  0.21707074743E+01 -0.34339029617E+02  0.95640123360E+02  0.10164110449E+03  0.00000000000E+00 0.  1.
<mgrwt>
<rscale>  2 0.84133203E+02</rscale>
<asrwt>0</asrwt>
<pdfrwt beam="1">  1       21 0.10979121E+00 0.84133203E+02</pdfrwt>
<pdfrwt beam="2">  1       21 0.17976451E-02 0.84133203E+02</pdfrwt>
<totfact> 0.96701501E+05</totfact>
</mgrwt>
</event>
<event>
 5    1  0.1854763E+000  0.8603049E+02  0.7546771E-02  0.1312759E+00
         21   -1    0    0  503  502  0.00000000000E+00  0.00000000000E+00  0.63145531709E+03  0.63145531709E+03  0.00000000000E+00 0.  1.
         21   -1    0    0  501  503 -0.00000000000E+00 -0.00000000000E+00 -0.59583710526E+02  0.59583710526E+02  0.00000000000E+00 0.  1.
         24    1    1    2    0    0  0.25396670009E+02 -0.32014135119E+02 -0.15824973231E+02  0.91583521592E+02  0.80419002446E+02 0.  1.
          1    1    1    2  501    0  0.15048665156E+02 -0.14026790577E+02  0.20795885919E+02  0.29252043485E+02  0.00000000000E+00 0. -1.
         -2    1    1    2    0  502 -0.40445335165E+02  0.46040925696E+02  0.56690069388E+03  0.57020346254E+03  0.00000000000E+00 0.  1.
<mgrwt>
<rscale>  2 0.86030485E+02</rscale>
<asrwt>0</asrwt>
<pdfrwt beam="1">  1       21 0.97146967E-01 0.86030485E+02</pdfrwt>
<pdfrwt beam="2">  1       21 0.91667252E-02 0.86030485E+02</pdfrwt>
<totfact> 0.87608392E+04</totfact>
</mgrwt>
</event>
<event>
 5    1  0.1854763E+000  0.6368938E+02  0.7546771E-02  0.1382970E+00
         21   -1    0    0  503  502  0.00000000000E+00  0.00000000000E+00  0.33656550253E+03  0.33656550253E+03  0.00000000000E+00 0. -1.
         21   -1    0    0  501  503 -0.00000000000E+00 -0.00000000000E+00 -0.16612577062E+02  0.16612577062E+02  0.00000000000E+00 0. -1.
         24    1    1    2    0    0  0.64420778174E+01  0.50906707885E+01  0.26513301321E+03  0.27718251378E+03  0.80419002446E+02 0. -1.
          1    1    1    2  501    0 -0.25269984681E+02  0.40831582898E+01  0.11879957129E+02  0.28220164578E+02  0.00000000000E+00 0. -1.
         -2    1    1    2    0  502  0.18827906864E+02 -0.91738290784E+01  0.42939955124E+02  0.47775401232E+02  0.00000000000E+00 0.  1.
<mgrwt>
<rscale>  2 0.63689380E+02</rscale>
<asrwt>0</asrwt>
<pdfrwt beam="1">  1       21 0.51779303E-01 0.63689380E+02</pdfrwt>
<pdfrwt beam="2">  1       21 0.25557813E-02 0.63689380E+02</pdfrwt>
<totfact> 0.28089820E+06</totfact>
</mgrwt>
</event>
<event>
 5    1  0.1854763E+000  0.1134861E+03  0.7546771E-02  0.1254247E+00
         21   -1    0    0  503  502  0.00000000000E+00  0.00000000000E+00  0.61561617440E+03  0.61561617440E+03  0.00000000000E+00 0.  1.
         21   -1    0    0  501  503 -0.00000000000E+00 -0.00000000000E+00 -0.60432761495E+02  0.60432761495E+02  0.00000000000E+00 0. -1.
         24    1    1    2    0    0  0.36432522888E+01 -0.26101461997E+02 -0.70344452759E+00  0.84630197886E+02  0.80419002446E+02 0. -1.
          1    1    1    2  501    0 -0.37929706148E+02  0.74167438003E+02  0.93292489193E+02  0.12507181940E+03  0.00000000000E+00 0. -1.
         -2    1    1    2    0  502  0.34286453859E+02 -0.48065976006E+02  0.46259436824E+03  0.46634691860E+03  0.00000000000E+00 0.  1.
<mgrwt>
<rscale>  2 0.11348613E+03</rscale>
<asrwt>0</asrwt>
<pdfrwt beam="1">  1       21 0.94710177E-01 0.11348613E+03</pdfrwt>
<pdfrwt beam="2">  1       21 0.92973483E-02 0.11348613E+03</pdfrwt>
<totfact> 0.89199706E+04</totfact>
</mgrwt>
</event>
<event>
 5    1  0.1854763E+000  0.1790306E+03  0.7546771E-02  0.1168745E+00
         21   -1    0    0  503  502  0.00000000000E+00  0.00000000000E+00  0.12560288082E+03  0.12560288082E+03  0.00000000000E+00 0.  1.
         21   -1    0    0  501  503 -0.00000000000E+00 -0.00000000000E+00 -0.36851695902E+03  0.36851695902E+03  0.00000000000E+00 0. -1.
         24    1    1    2    0    0 -0.40436141994E+02  0.13031098239E+03 -0.19614087344E+02  0.15958684810E+03  0.80419002446E+02 0. -1.
          1    1    1    2  501    0  0.51999858999E+02 -0.15977940888E+03 -0.24432797041E+03  0.29652925988E+03  0.00000000000E+00 0. -1.
         -2    1    1    2    0  502 -0.11563717005E+02  0.29468426491E+02  0.21027979556E+02  0.38003731857E+02  0.00000000000E+00 0.  1.
<mgrwt>
<rscale>  2 0.17903056E+03</rscale>
<asrwt>0</asrwt>
<pdfrwt beam="1">  1       21 0.19323520E-01 0.17903056E+03</pdfrwt>
<pdfrwt beam="2">  1       21 0.56694917E-01 0.17903056E+03</pdfrwt>
<totfact> 0.72403805E+04</totfact>
</mgrwt>
</event>
<event>
 5    1  0.1854763E+000  0.9920080E+02  0.7546771E-02  0.1281986E+00
         21   -1    0    0  503  502  0.00000000000E+00  0.00000000000E+00  0.19888083534E+03  0.19888083534E+03  0.00000000000E+00 0.  1.
         21   -1    0    0  501  503 -0.00000000000E+00 -0.00000000000E+00 -0.71190778879E+02  0.71190778879E+02  0.00000000000E+00 0. -1.
         24    1    1    2    0    0 -0.23734373771E+02 -0.38549524169E+02  0.46928852503E+02  0.10353221462E+03  0.80419002446E+02 0.  0.
          1    1    1    2  501    0  0.16313520331E+02 -0.31606761213E+02 -0.22051876068E+02  0.41849773454E+02  0.00000000000E+00 0. -1.
         -2    1    1    2    0  502  0.74208534402E+01  0.70156285382E+02  0.10281308002E+03  0.12468962615E+03  0.00000000000E+00 0.  1.
<mgrwt>
<rscale>  2 0.99200804E+02</rscale>
<asrwt>0</asrwt>
<pdfrwt beam="1">  1       21 0.30597051E-01 0.99200804E+02</pdfrwt>
<pdfrwt beam="2">  1       21 0.10952428E-01 0.99200804E+02</pdfrwt>
<totfact> 0.71092218E+05</totfact>
</mgrwt>
</event>
<event>
 5    1  0.1854763E+000  0.9199952E+02  0.7546771E-02  0.1298081E+00
         21   -1    0    0  503  502  0.00000000000E+00  0.00000000000E+00  0.46128272668E+03  0.46128272668E+03  0.00000000000E+00 0.  1.
         21   -1    0    0  501  503 -0.00000000000E+00 -0.00000000000E+00 -0.45532180001E+02  0.45532180001E+02  0.00000000000E+00 0. -1.
         24    1    1    2    0    0  0.15325784702E+01  0.17582742655E+01  0.20062962131E+03  0.21615943474E+03  0.80419002446E+02 0.  0.
          1    1    1    2  501    0  0.24694330094E+02 -0.45945784455E+02 -0.15471130631E+02  0.54407544798E+02  0.00000000000E+00 0. -1.
         -2    1    1    2    0  502 -0.26226908564E+02  0.44187510189E+02  0.23059205600E+03  0.23624792715E+03  0.00000000000E+00 0.  1.
<mgrwt>
<rscale>  2 0.91999521E+02</rscale>
<asrwt>0</asrwt>
<pdfrwt beam="1">  1       21 0.70966570E-01 0.91999521E+02</pdfrwt>
<pdfrwt beam="2">  1       21 0.70049511E-02 0.91999521E+02</pdfrwt>
<totfact> 0.27821546E+05</totfact>
</mgrwt>
</event>
<event>
 5    1  0.1854763E+000  0.2440534E+03  0.7546771E-02  0.1117122E+00
         21   -1    0    0  503  502  0.00000000000E+00  0.00000000000E+00  0.71453390676E+03  0.71453390676E+03  0.00000000000E+00 0. -1.
         21   -1    0    0  501  503 -0.00000000000E+00 -0.00000000000E+00 -0.11737304746E+03  0.11737304746E+03  0.00000000000E+00 0. -1.
         24    1    1    2    0    0 -0.13171394006E+03 -0.17722813101E+03  0.23790432187E+03  0.33440103879E+03  0.80419002446E+02 0. -1.
          1    1    1    2  501    0  0.61558582958E+02  0.17208254141E+03  0.63468865244E+02  0.19346874954E+03  0.00000000000E+00 0. -1.
         -2    1    1    2    0  502  0.70155357101E+02  0.51455895988E+01  0.29578767219E+03  0.30403716589E+03  0.00000000000E+00 0.  1.
<mgrwt>
<rscale>  2 0.24405341E+03</rscale>
<asrwt>0</asrwt>
<pdfrwt beam="1">  1       21 0.10992829E+00 0.24405341E+03</pdfrwt>
<pdfrwt beam="2">  1       21 0.18057392E-01 0.24405341E+03</pdfrwt>
<totfact> 0.17710620E+04</totfact>
</mgrwt>
</event>
<event>
 5    1  0.1854763E+000  0.8781950E+02  0.7546771E-02  0.1308220E+00
         21   -1    0    0  501  502  0.00000000000E+00  0.00000000000E+00  0.63881537673E+02  0.63881537673E+02  0.00000000000E+00 0.  1.
         21   -1    0    0  502  503 -0.00000000000E+00 -0.00000000000E+00 -0.12652050905E+03  0.12652050905E+03  0.00000000000E+00 0.  1.
         24    1    1    2    0    0  0.66045346099E+01 -0.40894514338E+02 -0.18265433876E+02  0.92286636137E+02  0.80419002446E+02 0.  1.
          1    1    1    2  501    0 -0.31584485882E+02 -0.59024394393E+01 -0.61060951686E+01  0.32706313427E+02  0.00000000000E+00 0. -1.
         -2    1    1    2    0  503  0.24979951273E+02  0.46796953778E+02 -0.38267442330E+02  0.65409097157E+02  0.00000000000E+00 0.  1.
<mgrwt>
<rscale>  2 0.87819500E+02</rscale>
<asrwt>0</asrwt>
<pdfrwt beam="1">  1       21 0.98279288E-02 0.87819500E+02</pdfrwt>
<pdfrwt beam="2">  1       21 0.19464694E-01 0.87819500E+02</pdfrwt>
<totfact> 0.19937754E+06</totfact>
</mgrwt>
</event>
<event>
 5    1  0.1854763E+000  0.1343893E+03  0.7546771E-02  0.1221084E+00
         21   -1    0    0  501  502  0.00000000000E+00  0.00000000000E+00  0.16653546671E+03  0.16653546671E+03  0.00000000000E+00 0.  1.
         21   -1    0    0  502  503 -0.00000000000E+00 -0.00000000000E+00 -0.11590069543E+03  0.11590069543E+03  0.00000000000E+00 0.  1.
         24    1    1    2    0    0 -0.23143620528E+02  0.11277593348E+03  0.15384908665E+02  0.14127260779E+03  0.80419002446E+02 0.  1.
          1    1    1    2  501    0  0.21129884396E+02 -0.65793782494E+01  0.26591223355E+02  0.34595568969E+02  0.00000000000E+00 0. -1.
         -2    1    1    2    0  503  0.20137361316E+01 -0.10619655523E+03  0.86586392581E+01  0.10656798539E+03  0.00000000000E+00 0.  1.
<mgrwt>
<rscale>  2 0.13438928E+03</rscale>
<asrwt>0</asrwt>
<pdfrwt beam="1">  1       21 0.25620841E-01 0.13438928E+03</pdfrwt>
<pdfrwt beam="2">  1       21 0.17830876E-01 0.13438928E+03</pdfrwt>
<totfact> 0.41675125E+05</totfact>
</mgrwt>
</event>
<event>
 5    1  0.1854763E+000  0.7464507E+02  0.7546771E-02  0.1344974E+00
         21   -1    0    0  503  502  0.00000000000E+00  0.00000000000E+00  0.18196221025E+02  0.18196221025E+02  0.00000000000E+00 0.  1.
         21   -1    0    0  501  503 -0.00000000000E+00 -0.00000000000E+00 -0.16155341655E+04  0.16155341655E+04  0.00000000000E+00 0. -1.
         24    1    1    2    0    0 -0.27454728367E+02 -0.97187026006E+01 -0.26626410494E+03  0.27966409284E+03  0.80419002446E+02 0.  0.
          1    1    1    2  501    0 -0.10670404837E+02  0.21376929862E+02 -0.13075652956E+04  0.13077835574E+04  0.00000000000E+00 0. -1.
         -2    1    1    2    0  502  0.38125133203E+02 -0.11658227261E+02 -0.23508543975E+02  0.46282736354E+02  0.00000000000E+00 0.  1.
<mgrwt>
<rscale>  2 0.74645070E+02</rscale>
<asrwt>0</asrwt>
<pdfrwt beam="1">  1       21 0.27994185E-02 0.74645070E+02</pdfrwt>
<pdfrwt beam="2">  1       21 0.24854373E+00 0.74645070E+02</pdfrwt>
<totfact> 0.54505939E+04</totfact>
</mgrwt>
</event>
<event>
 5    1  0.1854763E+000  0.7477222E+02  0.7546771E-02  0.1344578E+00
         21   -1    0    0  503  502  0.00000000000E+00  0.00000000000E+00  0.19536560972E+03  0.19536560972E+03  0.00000000000E+00 0.  1.
         21   -1    0    0  501  503 -0.00000000000E+00 -0.00000000000E+00 -0.34483987911E+03  0.34483987911E+03  0.00000000000E+00 0.  1.
         24    1    1    2    0    0  0.27557646128E+02  0.37600997752E+02 -0.19199039282E+03  0.21330913197E+03  0.80419002446E+02 0.  1.
          1    1    1    2  501    0 -0.29727002710E+02 -0.13945507183E+02 -0.13951239203E+03  0.14332438520E+03  0.00000000000E+00 0. -1.
         -2    1    1    2    0  502  0.21693565819E+01 -0.23655490569E+02  0.18202851546E+03  0.18357197167E+03  0.00000000000E+00 0.  1.
<mgrwt>
<rscale>  2 0.74772218E+02</rscale>
<asrwt>0</asrwt>
<pdfrwt beam="1">  1       21 0.30056248E-01 0.74772218E+02</pdfrwt>
<pdfrwt beam="2">  1       21 0.53052289E-01 0.74772218E+02</pdfrwt>
<totfact> 0.38593102E+04</totfact>
</mgrwt>
</event>
<event>
 5    1  0.1854763E+000  0.9983349E+02  0.7546771E-02  0.1280646E+00
         21   -1    0    0  503  502  0.00000000000E+00  0.00000000000E+00  0.38141152910E+03  0.38141152910E+03  0.00000000000E+00 0. -1.
         21   -1    0    0  501  503 -0.00000000000E+00 -0.00000000000E+00 -0.77887128458E+02  0.77887128458E+02  0.00000000000E+00 0. -1.
         24    1    1    2    0    0  0.76705168400E+02 -0.22843207926E+02  0.26444680554E+03  0.28775827342E+03  0.80419002446E+02 0. -1.
          1    1    1    2  501    0 -0.20474702055E+02 -0.81096066503E+01 -0.54090804257E+02  0.58402005526E+02  0.00000000000E+00 0. -1.
         -2    1    1    2    0  502 -0.56230466345E+02  0.30952814577E+02  0.93168399360E+02  0.11313837861E+03  0.00000000000E+00 0.  1.
<mgrwt>
<rscale>  2 0.99833493E+02</rscale>
<asrwt>0</asrwt>
<pdfrwt beam="1">  1       21 0.58678696E-01 0.99833493E+02</pdfrwt>
<pdfrwt beam="2">  1       21 0.11982635E-01 0.99833493E+02</pdfrwt>
<totfact> 0.16476861E+05</totfact>
</mgrwt>
</event>
<event>
 5    1  0.1854763E+000  0.7357849E+02  0.7546771E-02  0.1348330E+00
         21   -1    0    0  501  502  0.00000000000E+00  0.00000000000E+00  0.16467802935E+03  0.16467802935E+03  0.00000000000E+00 0.  1.
         21   -1    0    0  502  503 -0.00000000000E+00 -0.00000000000E+00 -0.38029513924E+02  0.38029513924E+02  0.00000000000E+00 0. -1.
         24    1    1    2    0    0  0.21602828008E+02 -0.37208377528E+02  0.64060368535E+02  0.11145444050E+03  0.80419002446E+02 0. -1.
          1    1    1    2  501    0 -0.21334775409E+02  0.27715403112E+01  0.50266973772E+02  0.54677442604E+02  0.00000000000E+00 0. -1.
         -2    1    1    2    0  503 -0.26805259952E+00  0.34436837217E+02  0.12321173117E+02  0.36575660168E+02  0.00000000000E+00 0.  1.
<mgrwt>
<rscale>  2 0.73578488E+02</rscale>
<asrwt>0</asrwt>
<pdfrwt beam="1">  1       21 0.25335081E-01 0.73578488E+02</pdfrwt>
<pdfrwt beam="2">  1       21 0.58506945E-02 0.73578488E+02</pdfrwt>
<totfact> 0.29334609E+06</totfact>
</mgrwt>
</event>
<event>
 5    1  0.1854763E+000  0.7474914E+02  0.7546771E-02  0.1344650E+00
         21   -1    0    0  501  502  0.00000000000E+00  0.00000000000E+00  0.13282495443E+03  0.13282495443E+03  0.00000000000E+00 0.  1.
         21   -1    0    0  502  503 -0.00000000000E+00 -0.00000000000E+00 -0.42791863188E+02  0.42791863188E+02  0.00000000000E+00 0. -1.
         24    1    1    2    0    0 -0.30954410355E+02 -0.10690238654E+02  0.41600205039E+02  0.96282136124E+02  0.80419002446E+02 0. -1.
          1    1    1    2  501    0  0.13724303839E+01 -0.19996423682E+02  0.18243280278E+02  0.27102726810E+02  0.00000000000E+00 0. -1.
         -2    1    1    2    0  503  0.29581979971E+02  0.30686662336E+02  0.30189605930E+02  0.52231954688E+02  0.00000000000E+00 0.  1.
<mgrwt>
<rscale>  2 0.74749139E+02</rscale>
<asrwt>0</asrwt>
<pdfrwt beam="1">  1       21 0.20434608E-01 0.74749139E+02</pdfrwt>
<pdfrwt beam="2">  1       21 0.65833636E-02 0.74749139E+02</pdfrwt>
<totfact> 0.35815906E+06</totfact>
</mgrwt>
</event>
<event>
 5    1  0.1854763E+000  0.1305123E+03  0.7546771E-02  0.1226697E+00
         21   -1    0    0  503  502  0.00000000000E+00  0.00000000000E+00  0.15412952141E+03  0.15412952141E+03  0.00000000000E+00 0.  1.
         21   -1    0    0  501  503 -0.00000000000E+00 -0.00000000000E+00 -0.32558211292E+03  0.32558211292E+03  0.00000000000E+00 0.  1.
         24    1    1    2    0    0 -0.42731607534E+02  0.89546515356E+02 -0.22260880045E+03  0.25664462333E+03  0.80419002446E+02 0.  1.
          1    1    1    2  501    0  0.18038562439E+02 -0.10342150662E+03 -0.51243895907E+02  0.11682180719E+03  0.00000000000E+00 0. -1.
         -2    1    1    2    0  502  0.24693045095E+02  0.13874991265E+02  0.10240010485E+03  0.10624520381E+03  0.00000000000E+00 0.  1.
<mgrwt>
<rscale>  2 0.13051233E+03</rscale>
<asrwt>0</asrwt>
<pdfrwt beam="1">  1       21 0.23712234E-01 0.13051233E+03</pdfrwt>
<pdfrwt beam="2">  1       21 0.50089555E-01 0.13051233E+03</pdfrwt>
<totfact> 0.65421333E+04</totfact>
</mgrwt>
</event>
<event>
 5    1  0.1854763E+000  0.1414007E+03  0.7546771E-02  0.1211457E+00
         21   -1    0    0  503  502  0.00000000000E+00  0.00000000000E+00  0.33575181726E+02  0.33575181726E+02  0.00000000000E+00 0.  1.
         21   -1    0    0  501  503 -0.00000000000E+00 -0.00000000000E+00 -0.19469061932E+04  0.19469061932E+04  0.00000000000E+00 0. -1.
         24    1    1    2    0    0  0.72141535652E+02  0.51857683089E+02 -0.72194218901E+03  0.73182057957E+03  0.80419002446E+02 0. -1.
          1    1    1    2  501    0 -0.42757360834E+02  0.44805934506E+02 -0.11273364530E+04  0.11290364219E+04  0.00000000000E+00 0. -1.
         -2    1    1    2    0  502 -0.29384174817E+02 -0.96663617595E+02 -0.64052369485E+02  0.11962437349E+03  0.00000000000E+00 0.  1.
<mgrwt>
<rscale>  2 0.14140068E+03</rscale>
<asrwt>0</asrwt>
<pdfrwt beam="1">  1       21 0.51654130E-02 0.14140068E+03</pdfrwt>
<pdfrwt beam="2">  1       21 0.29952401E+00 0.14140068E+03</pdfrwt>
<totfact> 0.93101259E+03</totfact>
</mgrwt>
</event>
<event>
 5    1  0.1854763E+000  0.1227768E+03  0.7546771E-02  0.1238585E+00
         21   -1    0    0  501  502  0.00000000000E+00  0.00000000000E+00  0.58568625244E+03  0.58568625244E+03  0.00000000000E+00 0.  1.
         21   -1    0    0  502  503 -0.00000000000E+00 -0.00000000000E+00 -0.30224190256E+02  0.30224190256E+02  0.00000000000E+00 0.  1.
         24    1    1    2    0    0 -0.65873949633E+02  0.44282857197E+02  0.29173930782E+03  0.31285681767E+03  0.80419002446E+02 0.  1.
          1    1    1    2  501    0 -0.28875135969E+02 -0.24247352672E+01  0.13375421513E+03  0.13685701620E+03  0.00000000000E+00 0. -1.
         -2    1    1    2    0  503  0.94749085602E+02 -0.41858121930E+02  0.12996853923E+03  0.16619660882E+03  0.00000000000E+00 0.  1.
<mgrwt>
<rscale>  2 0.12277684E+03</rscale>
<asrwt>0</asrwt>
<pdfrwt beam="1">  1       21 0.90105569E-01 0.12277684E+03</pdfrwt>
<pdfrwt beam="2">  1       21 0.46498758E-02 0.12277684E+03</pdfrwt>
<totfact> 0.32397196E+05</totfact>
</mgrwt>
</event>
<event>
 5    1  0.1854763E+000  0.7332032E+02  0.7546771E-02  0.1349153E+00
         21   -1    0    0  501  502  0.00000000000E+00  0.00000000000E+00  0.97624204715E+02  0.97624204715E+02  0.00000000000E+00 0.  1.
         21   -1    0    0  502  503 -0.00000000000E+00 -0.00000000000E+00 -0.10038596199E+03  0.10038596199E+03  0.00000000000E+00 0.  1.
         24    1    1    2    0    0  0.84127985868E+01 -0.14784277591E+02  0.47962161150E+02  0.95167930000E+02  0.80419002446E+02 0.  1.
          1    1    1    2  501    0  0.27120716101E+02  0.49016143758E+01  0.12015109620E+02  0.30065294353E+02  0.00000000000E+00 0. -1.
         -2    1    1    2    0  503 -0.35533514688E+02  0.98826632148E+01 -0.62739028047E+02  0.72776942355E+02  0.00000000000E+00 0.  1.
<mgrwt>
<rscale>  2 0.73320323E+02</rscale>
<asrwt>0</asrwt>
<pdfrwt beam="1">  1       21 0.15019108E-01 0.73320323E+02</pdfrwt>
<pdfrwt beam="2">  1       21 0.15443994E-01 0.73320323E+02</pdfrwt>
<totfact> 0.14292059E+06</totfact>
</mgrwt>
</event>
<event>
 5    1  0.1854763E+000  0.1281546E+03  0.7546771E-02  0.1230220E+00
         21   -1    0    0  503  502  0.00000000000E+00  0.00000000000E+00  0.23666071354E+03  0.23666071354E+03  0.00000000000E+00 0. -1.
         21   -1    0    0  501  503 -0.00000000000E+00 -0.00000000000E+00 -0.88695566720E+02  0.88695566720E+02  0.00000000000E+00 0.  1.
         24    1    1    2    0    0  0.46579182090E+02  0.61494337738E+02  0.13887229887E+03  0.17805590449E+03  0.80419002446E+02 0.  0.
          1    1    1    2  501    0  0.70301208103E+01  0.34345076451E+02 -0.85328721496E+01  0.36080698194E+02  0.00000000000E+00 0. -1.
         -2    1    1    2    0  502 -0.53609302901E+02 -0.95839414189E+02  0.17625720101E+02  0.11121967757E+03  0.00000000000E+00 0.  1.
<mgrwt>
<rscale>  2 0.12815459E+03</rscale>
<asrwt>0</asrwt>
<pdfrwt beam="1">  1       21 0.36409340E-01 0.12815459E+03</pdfrwt>
<pdfrwt beam="2">  1       21 0.13645472E-01 0.12815459E+03</pdfrwt>
<totfact> 0.34297440E+05</totfact>
</mgrwt>
</event>
<event>
 5    1  0.1854763E+000  0.1071953E+03  0.7546771E-02  0.1265854E+00
         21   -1    0    0  503  502  0.00000000000E+00  0.00000000000E+00  0.11049508812E+03  0.11049508812E+03  0.00000000000E+00 0.  1.
         21   -1    0    0  501  503 -0.00000000000E+00 -0.00000000000E+00 -0.11336611889E+03  0.11336611889E+03  0.00000000000E+00 0. -1.
         24    1    1    2    0    0  0.81921053875E+02  0.41708900793E+02 -0.34945131226E+01  0.12218886631E+03  0.80419002446E+02 0. -1.
          1    1    1    2  501    0 -0.63152165031E+02 -0.28406580423E+02 -0.18590599367E+02  0.71698954973E+02  0.00000000000E+00 0. -1.
         -2    1    1    2    0  502 -0.18768888844E+02 -0.13302320369E+02  0.19214081723E+02  0.29973385730E+02  0.00000000000E+00 0.  1.
<mgrwt>
<rscale>  2 0.10719530E+03</rscale>
<asrwt>0</asrwt>
<pdfrwt beam="1">  1       21 0.16999244E-01 0.10719530E+03</pdfrwt>
<pdfrwt beam="2">  1       21 0.17440941E-01 0.10719530E+03</pdfrwt>
<totfact> 0.92841546E+05</totfact>
</mgrwt>
</event>
<event>
 5    1  0.1854763E+000  0.1120454E+03  0.7546771E-02  0.1256828E+00
         21   -1    0    0  501  502  0.00000000000E+00  0.00000000000E+00  0.18141167688E+03  0.18141167688E+03  0.00000000000E+00 0.  1.
         21   -1    0    0  502  503 -0.00000000000E+00 -0.00000000000E+00 -0.83995960586E+02  0.83995960586E+02  0.00000000000E+00 0.  1.
         24    1    1    2    0    0  0.97477211146E+02 -0.47000886413E+01  0.28907350086E+02  0.12971795700E+03  0.80419002446E+02 0.  1.
          1    1    1    2  501    0 -0.30825596746E+02  0.11841014994E+00  0.61145474262E+02  0.68476276611E+02  0.00000000000E+00 0. -1.
         -2    1    1    2    0  503 -0.66651614400E+02  0.45816784914E+01  0.73628919480E+01  0.67213403855E+02  0.00000000000E+00 0.  1.
<mgrwt>
<rscale>  2 0.11204535E+03</rscale>
<asrwt>0</asrwt>
<pdfrwt beam="1">  1       21 0.27909489E-01 0.11204535E+03</pdfrwt>
<pdfrwt beam="2">  1       21 0.12922456E-01 0.11204535E+03</pdfrwt>
<totfact> 0.63368791E+05</totfact>
</mgrwt>
</event>
<event>
 5    1  0.1854763E+000  0.6616784E+02  0.7546771E-02  0.1373632E+00
         21   -1    0    0  503  502  0.00000000000E+00  0.00000000000E+00  0.31235691477E+03  0.31235691477E+03  0.00000000000E+00 0. -1.
         21   -1    0    0  501  503 -0.00000000000E+00 -0.00000000000E+00 -0.27209848640E+02  0.27209848640E+02  0.00000000000E+00 0.  1.
         24    1    1    2    0    0  0.16244359590E+02  0.11866342841E+02  0.26382171589E+03  0.27653897201E+03  0.80419002446E+02 0.  0.
          1    1    1    2  501    0 -0.25892895641E+02  0.82107447332E+01 -0.59548204948E+01  0.27808600484E+02  0.00000000000E+00 0. -1.
         -2    1    1    2    0  502  0.96485360509E+01 -0.20077087574E+02  0.27280170733E+02  0.35219190914E+02  0.00000000000E+00 0.  1.
<mgrwt>
<rscale>  2 0.66167843E+02</rscale>
<asrwt>0</asrwt>
<pdfrwt beam="1">  1       21 0.48054908E-01 0.66167843E+02</pdfrwt>
<pdfrwt beam="2">  1       21 0.41861308E-02 0.66167843E+02</pdfrwt>
<totfact> 0.14731955E+06</totfact>
</mgrwt>
</event>
<event>
 5    1  0.1854763E+000  0.1243403E+03  0.7546771E-02  0.1236104E+00
         21   -1    0    0  501  502  0.00000000000E+00  0.00000000000E+00  0.12631638605E+04  0.12631638605E+04  0.00000000000E+00 0. -1.
         21   -1    0    0  502  503 -0.00000000000E+00 -0.00000000000E+00 -0.36184881318E+02  0.36184881318E+02  0.00000000000E+00 0.  1.
         24    1    1    2    0    0  0.18974698347E+02  0.82255338254E+02  0.17476294765E+03  0.21008399195E+03  0.80419002446E+02 0.  0.
          1    1    1    2  501    0 -0.99585292192E+01 -0.10611664997E+03  0.10577973188E+04  0.10631533678E+04  0.00000000000E+00 0. -1.
         -2    1    1    2    0  503 -0.90161691275E+01  0.23861311719E+02 -0.55812873554E+01  0.26111382025E+02  0.00000000000E+00 0.  1.
<mgrwt>
<rscale>  2 0.12434034E+03</rscale>
<asrwt>0</asrwt>
<pdfrwt beam="1">  1       21 0.19433287E+00 0.12434034E+03</pdfrwt>
<pdfrwt beam="2">  1       21 0.55669058E-02 0.12434034E+03</pdfrwt>
<totfact> 0.34506696E+04</totfact>
</mgrwt>
</event>
<event>
 5    1  0.1854763E+000  0.8525237E+02  0.7546771E-02  0.1314774E+00
         21   -1    0    0  503  502  0.00000000000E+00  0.00000000000E+00  0.10485549495E+02  0.10485549495E+02  0.00000000000E+00 0.  1.
         21   -1    0    0  501  503 -0.00000000000E+00 -0.00000000000E+00 -0.11671037947E+04  0.11671037947E+04  0.00000000000E+00 0.  1.
         24    1    1    2    0    0  0.57038927581E+01 -0.64575552684E+02 -0.57236331906E+03  0.58160942338E+03  0.80419002446E+02 0.  1.
          1    1    1    2  501    0  0.64585554439E+01  0.23594016434E+02 -0.50777404366E+03  0.50836293135E+03  0.00000000000E+00 0. -1.
         -2    1    1    2    0  502 -0.12162448202E+02  0.40981536250E+02 -0.76480882490E+02  0.87616989483E+02  0.00000000000E+00 0.  1.
<mgrwt>
<rscale>  2 0.85252375E+02</rscale>
<asrwt>0</asrwt>
<pdfrwt beam="1">  1       21 0.16131626E-02 0.85252375E+02</pdfrwt>
<pdfrwt beam="2">  1       21 0.17955431E+00 0.85252375E+02</pdfrwt>
<totfact> 0.33457336E+05</totfact>
</mgrwt>
</event>
<event>
 5    1  0.1854763E+000  0.1053109E+03  0.7546771E-02  0.1269508E+00
         21   -1    0    0  503  502  0.00000000000E+00  0.00000000000E+00  0.11855712029E+03  0.11855712029E+03  0.00000000000E+00 0.  1.
         21   -1    0    0  501  503 -0.00000000000E+00 -0.00000000000E+00 -0.52596505926E+03  0.52596505926E+03  0.00000000000E+00 0. -1.
         24    1    1    2    0    0 -0.42331037402E+02  0.47758752300E+02 -0.49587211536E+02  0.11401281792E+03  0.80419002446E+02 0.  0.
          1    1    1    2  501    0 -0.19404303552E+02 -0.41615222496E+02 -0.43164362611E+03  0.43407899477E+03  0.00000000000E+00 0. -1.
         -2    1    1    2    0  502  0.61735340954E+02 -0.61435298037E+01  0.73822898683E+02  0.96430366851E+02  0.00000000000E+00 0.  1.
<mgrwt>
<rscale>  2 0.10531087E+03</rscale>
<asrwt>0</asrwt>
<pdfrwt beam="1">  1       21 0.18239557E-01 0.10531087E+03</pdfrwt>
<pdfrwt beam="2">  1       21 0.80917701E-01 0.10531087E+03</pdfrwt>
<totfact> 0.38672661E+04</totfact>
</mgrwt>
</event>
<event>
 5    1  0.1854763E+000  0.7743191E+02  0.7546771E-02  0.1336501E+00
         21   -1    0    0  503  502  0.00000000000E+00  0.00000000000E+00  0.21827220494E+03  0.21827220494E+03  0.00000000000E+00 0.  1.
         21   -1    0    0  501  503 -0.00000000000E+00 -0.00000000000E+00 -0.92983300251E+02  0.92983300251E+02  0.00000000000E+00 0.  1.
         24    1    1    2    0    0  0.54195219418E+02  0.98198074999E+01  0.49101242382E+01  0.97595469677E+02  0.80419002446E+02 0.  1.
          1    1    1    2  501    0 -0.19176642310E+02 -0.11451051850E+02 -0.41984128617E+02  0.47555622743E+02  0.00000000000E+00 0. -1.
         -2    1    1    2    0  502 -0.35018577108E+02  0.16312443502E+01  0.16236290906E+03  0.16610441277E+03  0.00000000000E+00 0.  1.
<mgrwt>
<rscale>  2 0.77431914E+02</rscale>
<asrwt>0</asrwt>
<pdfrwt beam="1">  1       21 0.33580339E-01 0.77431914E+02</pdfrwt>
<pdfrwt beam="2">  1       21 0.14305123E-01 0.77431914E+02</pdfrwt>
<totfact> 0.37160594E+05</totfact>
</mgrwt>
</event>
<event>
 5    1  0.1854763E+000  0.7929964E+02  0.7546771E-02  0.1331051E+00
         21   -1    0    0  501  502  0.00000000000E+00  0.00000000000E+00  0.16576358896E+03  0.16576358896E+03  0.00000000000E+00 0. -1.
         21   -1    0    0  502  503 -0.00000000000E+00 -0.00000000000E+00 -0.20227679604E+03  0.20227679604E+03  0.00000000000E+00 0.  1.
         24    1    1    2    0    0  0.19782363715E+02 -0.51162352476E+01 -0.95664172755E+02  0.12663478069E+03  0.80419002446E+02 0.  0.
          1    1    1    2  501    0 -0.35224650085E+02 -0.24030051721E+02  0.14410058957E+03  0.15027707501E+03  0.00000000000E+00 0. -1.
         -2    1    1    2    0  503  0.15442286370E+02  0.29146286969E+02 -0.84949623891E+02  0.91128529296E+02  0.00000000000E+00 0.  1.
<mgrwt>
<rscale>  2 0.79299637E+02</rscale>
<asrwt>0</asrwt>
<pdfrwt beam="1">  1       21 0.25502091E-01 0.79299637E+02</pdfrwt>
<pdfrwt beam="2">  1       21 0.31119507E-01 0.79299637E+02</pdfrwt>
<totfact> 0.15037265E+05</totfact>
</mgrwt>
</event>
<event>
 5    1  0.1854763E+000  0.7104422E+02  0.7546771E-02  0.1356578E+00
         21   -1    0    0  501  502  0.00000000000E+00  0.00000000000E+00  0.33307715538E+02  0.33307715538E+02  0.00000000000E+00 0.  1.
         21   -1    0    0  502  503 -0.00000000000E+00 -0.00000000000E+00 -0.16219461155E+03  0.16219461155E+03  0.00000000000E+00 0. -1.
         24    1    1    2    0    0 -0.11872014103E+02  0.35297052279E+02 -0.62810393068E+02  0.10862406755E+03  0.80419002446E+02 0.  0.
          1    1    1    2  501    0 -0.85977187392E+01 -0.31492601872E+02 -0.26066414666E+02  0.41775144688E+02  0.00000000000E+00 0. -1.
         -2    1    1    2    0  503  0.20469732842E+02 -0.38044504069E+01 -0.40010088276E+02  0.45103114853E+02  0.00000000000E+00 0.  1.
<mgrwt>
<rscale>  2 0.71044222E+02</rscale>
<asrwt>0</asrwt>
<pdfrwt beam="1">  1       21 0.51242638E-02 0.71044222E+02</pdfrwt>
<pdfrwt beam="2">  1       21 0.24953018E-01 0.71044222E+02</pdfrwt>
<totfact> 0.37527707E+06</totfact>
</mgrwt>
</event>
<event>
 5    1  0.1854763E+000  0.1036080E+03  0.7546771E-02  0.1272887E+00
         21   -1    0    0  501  502  0.00000000000E+00  0.00000000000E+00  0.13336999747E+03  0.13336999747E+03  0.00000000000E+00 0.  1.
         21   -1    0    0  502  503 -0.00000000000E+00 -0.00000000000E+00 -0.18178326160E+03  0.18178326160E+03  0.00000000000E+00 0.  1.
         24    1    1    2    0    0  0.64593703386E+02  0.50046954381E+02  0.90870371353E+02  0.14629314579E+03  0.80419002446E+02 0.  1.
          1    1    1    2  501    0 -0.16311274331E+02 -0.40073228995E+02 -0.44765918515E+02  0.62256797323E+02  0.00000000000E+00 0. -1.
         -2    1    1    2    0  503 -0.48282429055E+02 -0.99737253860E+01 -0.94517716962E+02  0.10660331596E+03  0.00000000000E+00 0.  1.
<mgrwt>
<rscale>  2 0.10360797E+03</rscale>
<asrwt>0</asrwt>
<pdfrwt beam="1">  1       21 0.20518461E-01 0.10360797E+03</pdfrwt>
<pdfrwt beam="2">  1       21 0.27966656E-01 0.10360797E+03</pdfrwt>
<totfact> 0.27393757E+05</totfact>
</mgrwt>
</event>
<event>
 5    1  0.1854763E+000  0.9908857E+02  0.7546771E-02  0.1282224E+00
         21   -1    0    0  501  502  0.00000000000E+00  0.00000000000E+00  0.49628665599E+02  0.49628665599E+02  0.00000000000E+00 0. -1.
         21   -1    0    0  502  503 -0.00000000000E+00 -0.00000000000E+00 -0.30887496902E+03  0.30887496902E+03  0.00000000000E+00 0. -1.
         24    1    1    2    0    0  0.19831673194E+02 -0.34298405753E+02 -0.14599189103E+03  0.17131994659E+03  0.80419002446E+02 0. -1.
          1    1    1    2  501    0 -0.61398809250E+02  0.20569047381E+02  0.10734934445E+01  0.64761499949E+02  0.00000000000E+00 0. -1.
         -2    1    1    2    0  503  0.41567136056E+02  0.13729358372E+02 -0.11432790583E+03  0.12242218807E+03  0.00000000000E+00 0.  1.
<mgrwt>
<rscale>  2 0.99088566E+02</rscale>
<asrwt>0</asrwt>
<pdfrwt beam="1">  1       21 0.76351796E-02 0.99088566E+02</pdfrwt>
<pdfrwt beam="2">  1       21 0.47519225E-01 0.99088566E+02</pdfrwt>
<totfact> 0.55621383E+05</totfact>
</mgrwt>
</event>
<event>
 5    1  0.1854763E+000  0.1104220E+03  0.7546771E-02  0.1259790E+00
         21   -1    0    0  501  502  0.00000000000E+00  0.00000000000E+00  0.14397752408E+03  0.14397752408E+03  0.00000000000E+00 0. -1.
         21   -1    0    0  502  503 -0.00000000000E+00 -0.00000000000E+00 -0.26816875160E+03  0.26816875160E+03  0.00000000000E+00 0.  1.
         24    1    1    2    0    0  0.10882281849E+02 -0.46078126944E+02  0.48539553619E+02  0.10518993327E+03  0.80419002446E+02 0. -1.
          1    1    1    2  501    0 -0.22509939876E+01  0.86328264388E+02  0.36470873306E+02  0.93743057374E+02  0.00000000000E+00 0. -1.
         -2    1    1    2    0  503 -0.86312878617E+01 -0.40250137444E+02 -0.20920165445E+03  0.21321328504E+03  0.00000000000E+00 0.  1.
<mgrwt>
<rscale>  2 0.11042196E+03</rscale>
<asrwt>0</asrwt>
<pdfrwt beam="1">  1       21 0.22150388E-01 0.11042196E+03</pdfrwt>
<pdfrwt beam="2">  1       21 0.41256731E-01 0.11042196E+03</pdfrwt>
<totfact> 0.11123756E+05</totfact>
</mgrwt>
</event>
<event>
 5    1  0.1854763E+000  0.1094211E+03  0.7546771E-02  0.1261646E+00
         21   -1    0    0  501  502  0.00000000000E+00  0.00000000000E+00  0.84768521039E+02  0.84768521039E+02  0.00000000000E+00 0.  1.
         21   -1    0    0  502  503 -0.00000000000E+00 -0.00000000000E+00 -0.15163831722E+03  0.15163831722E+03  0.00000000000E+00 0. -1.
         24    1    1    2    0    0 -0.25283128818E+02  0.11759086242E+01 -0.66556989975E+01  0.84570288207E+02  0.80419002446E+02 0.  0.
          1    1    1    2  501    0  0.29296669434E+02 -0.64626449213E+02 -0.11816384376E+02  0.71933995562E+02  0.00000000000E+00 0. -1.
         -2    1    1    2    0  503 -0.40135406169E+01  0.63450540589E+02 -0.48397712812E+02  0.79902554494E+02  0.00000000000E+00 0.  1.
<mgrwt>
<rscale>  2 0.10942108E+03</rscale>
<asrwt>0</asrwt>
<pdfrwt beam="1">  1       21 0.13041311E-01 0.10942108E+03</pdfrwt>
<pdfrwt beam="2">  1       21 0.23328972E-01 0.10942108E+03</pdfrwt>
<totfact> 0.87425850E+05</totfact>
</mgrwt>
</event>
<event>
 5    1  0.1854763E+000  0.7498067E+02  0.7546771E-02  0.1343931E+00
         21   -1    0    0  503  502  0.00000000000E+00  0.00000000000E+00  0.19155976687E+02  0.19155976687E+02  0.00000000000E+00 0.  1.
         21   -1    0    0  501  503 -0.00000000000E+00 -0.00000000000E+00 -0.41079439528E+03  0.41079439528E+03  0.00000000000E+00 0.  1.
         24    1    1    2    0    0  0.57335382621E+01  0.35953434300E+02 -0.27129704584E+03  0.28529778466E+03  0.80419002446E+02 0.  1.
          1    1    1    2  501    0 -0.26574029760E+02 -0.99852066350E+01 -0.10353193119E+03  0.10735336131E+03  0.00000000000E+00 0. -1.
         -2    1    1    2    0  502  0.20840491498E+02 -0.25968227665E+02 -0.16809441566E+02  0.37299225993E+02  0.00000000000E+00 0.  1.
<mgrwt>
<rscale>  2 0.74980674E+02</rscale>
<asrwt>0</asrwt>
<pdfrwt beam="1">  1       21 0.29470735E-02 0.74980674E+02</pdfrwt>
<pdfrwt beam="2">  1       21 0.63199134E-01 0.74980674E+02</pdfrwt>
<totfact> 0.14903206E+06</totfact>
</mgrwt>
</event>
<event>
 5    1  0.1854763E+000  0.1031374E+03  0.7546771E-02  0.1273833E+00
         21   -1    0    0  501  502  0.00000000000E+00  0.00000000000E+00  0.10068288163E+03  0.10068288163E+03  0.00000000000E+00 0. -1.
         21   -1    0    0  502  503 -0.00000000000E+00 -0.00000000000E+00 -0.47637858145E+03  0.47637858145E+03  0.00000000000E+00 0. -1.
         24    1    1    2    0    0  0.62858625669E+02  0.37163799642E+02 -0.37183862629E+03  0.38738034898E+03  0.80419002446E+02 0. -1.
          1    1    1    2  501    0 -0.18321984009E+02 -0.48370352540E+02  0.79304428393E+02  0.94681457877E+02  0.00000000000E+00 0. -1.
         -2    1    1    2    0  503 -0.44536641661E+02  0.11206552898E+02 -0.83161501933E+02  0.94999656221E+02  0.00000000000E+00 0.  1.
<mgrwt>
<rscale>  2 0.10313745E+03</rscale>
<asrwt>0</asrwt>
<pdfrwt beam="1">  1       21 0.15489674E-01 0.10313745E+03</pdfrwt>
<pdfrwt beam="2">  1       21 0.73289012E-01 0.10313745E+03</pdfrwt>
<totfact> 0.64750674E+04</totfact>
</mgrwt>
</event>
<event>
 5    1  0.1854763E+000  0.1088359E+03  0.7546771E-02  0.1262741E+00
         21   -1    0    0  501  502  0.00000000000E+00  0.00000000000E+00  0.88077322465E+03  0.88077322465E+03  0.00000000000E+00 0. -1.
         21   -1    0    0  502  503 -0.00000000000E+00 -0.00000000000E+00 -0.31846676695E+02  0.31846676695E+02  0.00000000000E+00 0. -1.
         24    1    1    2    0    0  0.39741656465E+02  0.47704272965E+02  0.87479003180E+02  0.13407046233E+03  0.80419002446E+02 0. -1.
          1    1    1    2  501    0 -0.31969948864E+02 -0.78263265987E+02  0.72680546006E+03  0.73170581056E+03  0.00000000000E+00 0. -1.
         -2    1    1    2    0  503 -0.77717076004E+01  0.30558993021E+02  0.34642084719E+02  0.46843628458E+02  0.00000000000E+00 0.  1.
<mgrwt>
<rscale>  2 0.10883587E+03</rscale>
<asrwt>0</asrwt>
<pdfrwt beam="1">  1       21 0.13550355E+00 0.10883587E+03</pdfrwt>
<pdfrwt beam="2">  1       21 0.48994894E-02 0.10883587E+03</pdfrwt>
<totfact> 0.11273579E+05</totfact>
</mgrwt>
</event>
<event>
 5    1  0.1854763E+000  0.6689058E+02  0.7546771E-02  0.1370998E+00
         21   -1    0    0  503  502  0.00000000000E+00  0.00000000000E+00  0.41497658092E+03  0.41497658092E+03  0.00000000000E+00 0. -1.
         21   -1    0    0  501  503 -0.00000000000E+00 -0.00000000000E+00 -0.14924590478E+02  0.14924590478E+02  0.00000000000E+00 0.  1.
         24    1    1    2    0    0  0.95971040390E+01  0.17465875185E+02  0.19731317110E+03  0.21400202019E+03  0.80419002446E+02 0.  1.
          1    1    1    2  501    0  0.59242344057E+01 -0.30247906953E+02  0.33704054920E+02  0.45672702421E+02  0.00000000000E+00 0. -1.
         -2    1    1    2    0  502 -0.15521338445E+02  0.12782031768E+02  0.16903476443E+03  0.17022644879E+03  0.00000000000E+00 0.  1.
<mgrwt>
<rscale>  2 0.66890577E+02</rscale>
<asrwt>0</asrwt>
<pdfrwt beam="1">  1       21 0.63842542E-01 0.66890577E+02</pdfrwt>
<pdfrwt beam="2">  1       21 0.22960912E-02 0.66890577E+02</pdfrwt>
<totfact> 0.21681709E+06</totfact>
</mgrwt>
</event>
<event>
 5    1  0.1854763E+000  0.6719593E+02  0.7546771E-02  0.1369897E+00
         21   -1    0    0  503  502  0.00000000000E+00  0.00000000000E+00  0.68123011952E+01  0.68123011952E+01  0.00000000000E+00 0. -1.
         21   -1    0    0  501  503 -0.00000000000E+00 -0.00000000000E+00 -0.72653748792E+03  0.72653748792E+03  0.00000000000E+00 0.  1.
         24    1    1    2    0    0 -0.24179545319E+02  0.25975589545E+01 -0.54113147195E+03  0.54761472187E+03  0.80419002446E+02 0.  1.
          1    1    1    2  501    0  0.10369608788E+02 -0.23292636110E+02 -0.10493075844E+03  0.10798397914E+03  0.00000000000E+00 0. -1.
         -2    1    1    2    0  502  0.13809936531E+02  0.20695077155E+02 -0.73662956337E+02  0.77751088106E+02  0.00000000000E+00 0.  1.
<mgrwt>
<rscale>  2 0.67195930E+02</rscale>
<asrwt>0</asrwt>
<pdfrwt beam="1">  1       21 0.10480472E-02 0.67195930E+02</pdfrwt>
<pdfrwt beam="2">  1       21 0.11177491E+00 0.67195930E+02</pdfrwt>
<totfact> 0.21550096E+06</totfact>
</mgrwt>
</event>
<event>
 5    1  0.1854763E+000  0.9540778E+02  0.7546771E-02  0.1290260E+00
         21   -1    0    0  503  502  0.00000000000E+00  0.00000000000E+00  0.39805248230E+03  0.39805248230E+03  0.00000000000E+00 0.  1.
         21   -1    0    0  501  503 -0.00000000000E+00 -0.00000000000E+00 -0.30930541573E+02  0.30930541573E+02  0.00000000000E+00 0.  1.
         24    1    1    2    0    0  0.70531698598E+01 -0.71425422044E+02  0.15784520862E+03  0.19113781405E+03  0.80419002446E+02 0.  1.
          1    1    1    2  501    0 -0.24682847936E+02  0.42807140434E+02  0.35490045174E+02  0.60837797140E+02  0.00000000000E+00 0. -1.
         -2    1    1    2    0  502  0.17629678076E+02  0.28618281610E+02  0.17378668694E+03  0.17700741269E+03  0.00000000000E+00 0.  1.
<mgrwt>
<rscale>  2 0.95407785E+02</rscale>
<asrwt>0</asrwt>
<pdfrwt beam="1">  1       21 0.61238840E-01 0.95407785E+02</pdfrwt>
<pdfrwt beam="2">  1       21 0.47585452E-02 0.95407785E+02</pdfrwt>
<totfact> 0.72942365E+05</totfact>
</mgrwt>
</event>
<event>
 5    1  0.1854763E+000  0.7769118E+02  0.7546771E-02  0.1335734E+00
         21   -1    0    0  501  502  0.00000000000E+00  0.00000000000E+00  0.45068261683E+02  0.45068261683E+02  0.00000000000E+00 0.  1.
         21   -1    0    0  502  503 -0.00000000000E+00 -0.00000000000E+00 -0.23494586653E+03  0.23494586653E+03  0.00000000000E+00 0.  1.
         24    1    1    2    0    0 -0.27079398932E+01 -0.14161701583E+02 -0.31756693005E+02  0.87656090691E+02  0.80419002446E+02 0.  1.
          1    1    1    2  501    0 -0.34713331727E+02  0.42734911847E+01 -0.61203735062E+01  0.35506859877E+02  0.00000000000E+00 0. -1.
         -2    1    1    2    0  503  0.37421271620E+02  0.98882103985E+01 -0.15200053834E+03  0.15685117765E+03  0.00000000000E+00 0.  1.
<mgrwt>
<rscale>  2 0.77691178E+02</rscale>
<asrwt>0</asrwt>
<pdfrwt beam="1">  1       21 0.69335787E-02 0.77691178E+02</pdfrwt>
<pdfrwt beam="2">  1       21 0.36145518E-01 0.77691178E+02</pdfrwt>
<totfact> 0.11249495E+06</totfact>
</mgrwt>
</event>
<event>
 5    1  0.3905295E+000  0.1382734E+03  0.7546771E-02  0.1215671E+00
         21   -1    0    0  503  502  0.00000000000E+00  0.00000000000E+00  0.31202222711E+03  0.31202222711E+03  0.00000000000E+00 0.  1.
         21   -1    0    0  501  503 -0.00000000000E+00 -0.00000000000E+00 -0.39402653477E+03  0.39402653477E+03  0.00000000000E+00 0. -1.
         24    1    1    2    0    0  0.59588776052E+02  0.11151751351E+03  0.28161437145E+03  0.31899976208E+03  0.80419002446E+02 0.  1.
          1    1    1    2  501    0 -0.51264497473E+02 -0.89224081372E+02 -0.33130876916E+03  0.34692144056E+03  0.00000000000E+00 0. -1.
         -2    1    1    2    0  502 -0.83242785792E+01 -0.22293432135E+02 -0.32309909940E+02  0.40127559240E+02  0.00000000000E+00 0.  1.
<mgrwt>
<rscale>  2 0.13827345E+03</rscale>
<asrwt>0</asrwt>
<pdfrwt beam="1">  1       21 0.48003420E-01 0.13827345E+03</pdfrwt>
<pdfrwt beam="2">  1       21 0.60619466E-01 0.13827345E+03</pdfrwt>
<totfact> 0.10941323E+04</totfact>
</mgrwt>
</event>
<event>
 5    1  0.1854763E+000  0.1143870E+03  0.7546771E-02  0.1252655E+00
         21   -1    0    0  503  502  0.00000000000E+00  0.00000000000E+00  0.44510486954E+03  0.44510486954E+03  0.00000000000E+00 0.  1.
         21   -1    0    0  501  503 -0.00000000000E+00 -0.00000000000E+00 -0.42727851604E+02  0.42727851604E+02  0.00000000000E+00 0. -1.
         24    1    1    2    0    0  0.38545989898E+02 -0.67891660001E+02  0.81618524280E+02  0.13865017236E+03  0.80419002446E+02 0. -1.
          1    1    1    2  501    0  0.23424866412E+02 -0.17258218027E+01  0.11438461140E+02  0.26125489863E+02  0.00000000000E+00 0. -1.
         -2    1    1    2    0  502 -0.61970856309E+02  0.69617481804E+02  0.30932003252E+03  0.32305705892E+03  0.00000000000E+00 0.  1.
<mgrwt>
<rscale>  2 0.11438697E+03</rscale>
<asrwt>0</asrwt>
<pdfrwt beam="1">  1       21 0.68477669E-01 0.11438697E+03</pdfrwt>
<pdfrwt beam="2">  1       21 0.65735159E-02 0.11438697E+03</pdfrwt>
<totfact> 0.33324127E+05</totfact>
</mgrwt>
</event>
<event>
 5    1  0.1854763E+000  0.1231852E+03  0.7546771E-02  0.1237933E+00
         21   -1    0    0  503  502  0.00000000000E+00  0.00000000000E+00  0.54996483421E+02  0.54996483421E+02  0.00000000000E+00 0. -1.
         21   -1    0    0  501  503 -0.00000000000E+00 -0.00000000000E+00 -0.77428963297E+03  0.77428963297E+03  0.00000000000E+00 0. -1.
         24    1    1    2    0    0  0.10114288180E+03  0.29581552324E+02 -0.42005082817E+02  0.13905608118E+03  0.80419002446E+02 0. -1.
          1    1    1    2  501    0 -0.52911279400E+02 -0.37608430283E+02 -0.55093790895E+03  0.55474911179E+03  0.00000000000E+00 0. -1.
         -2    1    1    2    0  502 -0.48231602396E+02  0.80268779589E+01 -0.12635015779E+03  0.13548092342E+03  0.00000000000E+00 0.  1.
<mgrwt>
<rscale>  2 0.12318517E+03</rscale>
<asrwt>0</asrwt>
<pdfrwt beam="1">  1       21 0.84609975E-02 0.12318517E+03</pdfrwt>
<pdfrwt beam="2">  1       21 0.11912148E+00 0.12318517E+03</pdfrwt>
<totfact> 0.60730059E+04</totfact>
</mgrwt>
</event>
<event>
 5    1  0.1854763E+000  0.6718885E+02  0.7546771E-02  0.1369922E+00
         21   -1    0    0  503  502  0.00000000000E+00  0.00000000000E+00  0.80363187014E+02  0.80363187014E+02  0.00000000000E+00 0. -1.
         21   -1    0    0  501  503 -0.00000000000E+00 -0.00000000000E+00 -0.66568025423E+02  0.66568025423E+02  0.00000000000E+00 0.  1.
         24    1    1    2    0    0  0.31008427650E+01  0.25525125149E+02  0.30202372037E+02  0.89669094290E+02  0.80419002446E+02 0. -1.
          1    1    1    2  501    0 -0.20526672654E+02 -0.19321703017E+01 -0.18709790234E+02  0.27841225241E+02  0.00000000000E+00 0. -1.
         -2    1    1    2    0  502  0.17425829889E+02 -0.23592954848E+02  0.23025797885E+01  0.29420892907E+02  0.00000000000E+00 0.  1.
<mgrwt>
<rscale>  2 0.67188847E+02</rscale>
<asrwt>0</asrwt>
<pdfrwt beam="1">  1       21 0.12363567E-01 0.67188847E+02</pdfrwt>
<pdfrwt beam="2">  1       21 0.10241235E-01 0.67188847E+02</pdfrwt>
<totfact> 0.41071170E+06</totfact>
</mgrwt>
</event>
<event>
 5    1  0.1854763E+000  0.7244637E+02  0.7546771E-02  0.1351966E+00
         21   -1    0    0  503  502  0.00000000000E+00  0.00000000000E+00  0.29564799269E+02  0.29564799269E+02  0.00000000000E+00 0.  1.
         21   -1    0    0  501  503 -0.00000000000E+00 -0.00000000000E+00 -0.63259147236E+03  0.63259147236E+03  0.00000000000E+00 0. -1.
         24    1    1    2    0    0  0.65238112947E+01  0.16306005199E+02 -0.13983706327E+03  0.16226541880E+03  0.80419002446E+02 0. -1.
          1    1    1    2  501    0 -0.10825967247E+02 -0.38488718909E+02 -0.47340682533E+03  0.47509220718E+03  0.00000000000E+00 0. -1.
         -2    1    1    2    0  502  0.43021559527E+01  0.22182713710E+02  0.10217215511E+02  0.24798645652E+02  0.00000000000E+00 0.  1.
<mgrwt>
<rscale>  2 0.72446370E+02</rscale>
<asrwt>0</asrwt>
<pdfrwt beam="1">  1       21 0.45484308E-02 0.72446370E+02</pdfrwt>
<pdfrwt beam="2">  1       21 0.97321763E-01 0.72446370E+02</pdfrwt>
<totfact> 0.28532580E+05</totfact>
</mgrwt>
</event>
