<event>
 5    1  0.1590180E+000  0.7894421E+02  0.7546771E-02  0.1332075E+00
         21   -1    0    0  503  502  0.00000000000E+00  0.00000000000E+00  0.61416114882E+03  0.61416114882E+03  0.00000000000E+00 0.  1.
         21   -1    0    0  501  503 -0.00000000000E+00 -0.00000000000E+00 -0.12358183155E+02  0.12358183155E+02  0.00000000000E+00 0. -1.
         24    1    1    2    0    0 -0.15125222910E+02  0.17181509453E+02  0.26416815733E+03  0.27708483888E+03  0.80419002446E+02 0.  1.
          1    1    1    2  501    0 -0.28495055433E+02 -0.44953592997E+01  0.46101857624E+02  0.54383432365E+02  0.00000000000E+00 0. -1.
         -2    1    1    2    0  502  0.43620278343E+02 -0.12686150153E+02  0.29153295071E+03  0.29505106073E+03  0.00000000000E+00 0.  1.
<mgrwt>
<rscale>  2 0.78944211E+02</rscale>
<asrwt>0</asrwt>
<pdfrwt beam="1">  1       21 0.94486307E-01 0.78944211E+02</pdfrwt>
<pdfrwt beam="2">  1       21 0.19012594E-02 0.78944211E+02</pdfrwt>
<totfact> 0.12510623E+06</totfact>
</mgrwt>
</event>
<event>
 5    1  0.1590180E+000  0.2063177E+03  0.7546771E-02  0.1144516E+00
         21   -1    0    0  503  502  0.00000000000E+00  0.00000000000E+00  0.55867777065E+02  0.55867777065E+02  0.00000000000E+00 0.  1.
         21   -1    0    0  501  503 -0.00000000000E+00 -0.00000000000E+00 -0.84348908636E+03  0.84348908636E+03  0.00000000000E+00 0.  1.
         24    1    1    2    0    0 -0.19433534611E+03 -0.16621186628E+02 -0.30119282383E+03  0.36773199980E+03  0.80419002446E+02 0.  1.
          1    1    1    2  501    0  0.49890074991E+02 -0.18153107239E+02 -0.22255828729E+03  0.22880285428E+03  0.00000000000E+00 0. -1.
         -2    1    1    2    0  502  0.14444527112E+03  0.34774293867E+02 -0.26387019817E+03  0.30282200935E+03  0.00000000000E+00 0.  1.
<mgrwt>
<rscale>  2 0.20631773E+03</rscale>
<asrwt>0</asrwt>
<pdfrwt beam="1">  1       21 0.85950435E-02 0.20631773E+03</pdfrwt>
<pdfrwt beam="2">  1       21 0.12976754E+00 0.20631773E+03</pdfrwt>
<totfact> 0.45631433E+04</totfact>
</mgrwt>
</event>
<event>
 5    1  0.1590180E+000  0.7470969E+02  0.7546771E-02  0.1344772E+00
         21   -1    0    0  501  502  0.00000000000E+00  0.00000000000E+00  0.36142088222E+02  0.36142088222E+02  0.00000000000E+00 0. -1.
         21   -1    0    0  502  503 -0.00000000000E+00 -0.00000000000E+00 -0.45989688540E+03  0.45989688540E+03  0.00000000000E+00 0. -1.
         24    1    1    2    0    0 -0.11624926584E+02 -0.19374735918E+01 -0.24938167136E+03  0.26229244497E+03  0.80419002446E+02 0. -1.
          1    1    1    2  501    0 -0.72974700002E+01 -0.30078796707E+02  0.19339241875E+02  0.36496484160E+02  0.00000000000E+00 0. -1.
         -2    1    1    2    0  503  0.18922396584E+02  0.32016270299E+02 -0.19371236769E+03  0.19725004449E+03  0.00000000000E+00 0.  1.
<mgrwt>
<rscale>  2 0.74709686E+02</rscale>
<asrwt>0</asrwt>
<pdfrwt beam="1">  1       21 0.55603211E-02 0.74709686E+02</pdfrwt>
<pdfrwt beam="2">  1       21 0.70753370E-01 0.74709686E+02</pdfrwt>
<totfact> 0.41390670E+05</totfact>
</mgrwt>
</event>
<event>
 5    1  0.1590180E+000  0.1732181E+03  0.7546771E-02  0.1174533E+00
         21   -1    0    0  503  502  0.00000000000E+00  0.00000000000E+00  0.29133745931E+03  0.29133745931E+03  0.00000000000E+00 0.  1.
         21   -1    0    0  501  503 -0.00000000000E+00 -0.00000000000E+00 -0.34090674032E+03  0.34090674032E+03  0.00000000000E+00 0. -1.
         24    1    1    2    0    0 -0.13227385178E+03  0.59563396117E+02  0.12323790060E+03  0.20663728154E+03  0.80419002446E+02 0.  1.
          1    1    1    2  501    0  0.96233826369E+02 -0.91223173266E+02 -0.27909616981E+03  0.30899399457E+03  0.00000000000E+00 0. -1.
         -2    1    1    2    0  502  0.36040025411E+02  0.31659777149E+02  0.10628898819E+03  0.11661292352E+03  0.00000000000E+00 0.  1.
<mgrwt>
<rscale>  2 0.17321805E+03</rscale>
<asrwt>0</asrwt>
<pdfrwt beam="1">  1       21 0.44821148E-01 0.17321805E+03</pdfrwt>
<pdfrwt beam="2">  1       21 0.52447190E-01 0.17321805E+03</pdfrwt>
<totfact> 0.16675651E+04</totfact>
</mgrwt>
</event>
<event>
 5    1  0.1590180E+000  0.8688205E+02  0.7546771E-02  0.1310583E+00
         21   -1    0    0  503  502  0.00000000000E+00  0.00000000000E+00  0.29247856475E+03  0.29247856475E+03  0.00000000000E+00 0. -1.
         21   -1    0    0  501  503 -0.00000000000E+00 -0.00000000000E+00 -0.39249565335E+02  0.39249565335E+02  0.00000000000E+00 0. -1.
         24    1    1    2    0    0  0.32837650958E+02 -0.35474868430E+02  0.22244960391E+03  0.24142870551E+03  0.80419002446E+02 0. -1.
          1    1    1    2  501    0 -0.50727219182E+02  0.15330358048E+02  0.53674650842E+01  0.53264249974E+02  0.00000000000E+00 0. -1.
         -2    1    1    2    0  502  0.17889568224E+02  0.20144510382E+02  0.25411930416E+02  0.37035174595E+02  0.00000000000E+00 0.  1.
<mgrwt>
<rscale>  2 0.86882049E+02</rscale>
<asrwt>0</asrwt>
<pdfrwt beam="1">  1       21 0.44996701E-01 0.86882049E+02</pdfrwt>
<pdfrwt beam="2">  1       21 0.60383948E-02 0.86882049E+02</pdfrwt>
<totfact> 0.92311240E+05</totfact>
</mgrwt>
</event>
<event>
 5    1  0.1590180E+000  0.8582046E+02  0.7546771E-02  0.1313301E+00
         21   -1    0    0  503  502  0.00000000000E+00  0.00000000000E+00  0.85292539165E+02  0.85292539165E+02  0.00000000000E+00 0.  1.
         21   -1    0    0  501  503 -0.00000000000E+00 -0.00000000000E+00 -0.96119949783E+02  0.96119949783E+02  0.00000000000E+00 0.  1.
         24    1    1    2    0    0  0.58743859299E+02 -0.15804113902E+02 -0.25338253206E+02  0.10397044797E+03  0.80419002446E+02 0.  1.
          1    1    1    2  501    0 -0.17202475509E+02 -0.11860756940E+02 -0.84053242070E+01  0.22522259963E+02  0.00000000000E+00 0. -1.
         -2    1    1    2    0  502 -0.41541383790E+02  0.27664870843E+02  0.22916166795E+02  0.54919781013E+02  0.00000000000E+00 0.  1.
<mgrwt>
<rscale>  2 0.85820460E+02</rscale>
<asrwt>0</asrwt>
<pdfrwt beam="1">  1       21 0.13121929E-01 0.85820460E+02</pdfrwt>
<pdfrwt beam="2">  1       21 0.14787684E-01 0.85820460E+02</pdfrwt>
<totfact> 0.19728515E+06</totfact>
</mgrwt>
</event>
<event>
 5    1  0.1590180E+000  0.7393924E+02  0.7546771E-02  0.1347188E+00
         21   -1    0    0  503  502  0.00000000000E+00  0.00000000000E+00  0.66049246715E+03  0.66049246715E+03  0.00000000000E+00 0. -1.
         21   -1    0    0  501  503 -0.00000000000E+00 -0.00000000000E+00 -0.47898944905E+02  0.47898944905E+02  0.00000000000E+00 0. -1.
         24    1    1    2    0    0  0.24322298156E+02 -0.41221836085E+01  0.26053004794E+03  0.27377306007E+03  0.80419002446E+02 0. -1.
          1    1    1    2  501    0 -0.36209104341E+02 -0.16629961805E+02 -0.31201354449E+02  0.50608096054E+02  0.00000000000E+00 0. -1.
         -2    1    1    2    0  502  0.11886806184E+02  0.20752145413E+02  0.38326482875E+03  0.38401025593E+03  0.00000000000E+00 0.  1.
<mgrwt>
<rscale>  2 0.73939243E+02</rscale>
<asrwt>0</asrwt>
<pdfrwt beam="1">  1       21 0.10161422E+00 0.73939243E+02</pdfrwt>
<pdfrwt beam="2">  1       21 0.73690689E-02 0.73939243E+02</pdfrwt>
<totfact> 0.11550906E+05</totfact>
</mgrwt>
</event>
<event>
 5    1  0.1590180E+000  0.7474060E+02  0.7546771E-02  0.1344676E+00
         21   -1    0    0  503  502  0.00000000000E+00  0.00000000000E+00  0.55167161236E+01  0.55167161236E+01  0.00000000000E+00 0. -1.
         21   -1    0    0  501  503 -0.00000000000E+00 -0.00000000000E+00 -0.10224959785E+04  0.10224959785E+04  0.00000000000E+00 0. -1.
         24    1    1    2    0    0 -0.24085848348E+01 -0.38797348115E+02 -0.57502516655E+03  0.58192112319E+03  0.80419002446E+02 0. -1.
          1    1    1    2  501    0 -0.20162763740E+02  0.29537684753E+02 -0.28891334707E+03  0.29111841916E+03  0.00000000000E+00 0. -1.
         -2    1    1    2    0  502  0.22571348575E+02  0.92596633613E+01 -0.15304074875E+03  0.15497315225E+03  0.00000000000E+00 0.  1.
<mgrwt>
<rscale>  2 0.74740601E+02</rscale>
<asrwt>0</asrwt>
<pdfrwt beam="1">  1       21 0.84872566E-03 0.74740601E+02</pdfrwt>
<pdfrwt beam="2">  1       21 0.15730705E+00 0.74740601E+02</pdfrwt>
<totfact> 0.12992903E+06</totfact>
</mgrwt>
</event>
<event>
 5    1  0.1590180E+000  0.7169510E+02  0.7546771E-02  0.1354422E+00
         21   -1    0    0  503  502  0.00000000000E+00  0.00000000000E+00  0.91982167282E+01  0.91982167282E+01  0.00000000000E+00 0.  1.
         21   -1    0    0  501  503 -0.00000000000E+00 -0.00000000000E+00 -0.86735123318E+03  0.86735123318E+03  0.00000000000E+00 0. -1.
         24    1    1    2    0    0 -0.11852345186E+02 -0.46309271138E+00 -0.42720431199E+03  0.43486944325E+03  0.80419002446E+02 0. -1.
          1    1    1    2  501    0  0.86590641620E+01 -0.30126050478E+02 -0.38568209360E+03  0.38695379005E+03  0.00000000000E+00 0. -1.
         -2    1    1    2    0  502  0.31932810238E+01  0.30589143189E+02 -0.45266610864E+02  0.54726216605E+02  0.00000000000E+00 0.  1.
<mgrwt>
<rscale>  2 0.71695099E+02</rscale>
<asrwt>0</asrwt>
<pdfrwt beam="1">  1       21 0.14151094E-02 0.71695099E+02</pdfrwt>
<pdfrwt beam="2">  1       21 0.13343873E+00 0.71695099E+02</pdfrwt>
<totfact> 0.88371362E+05</totfact>
</mgrwt>
</event>
<event>
 5    1  0.1590180E+000  0.1218806E+03  0.7546771E-02  0.1240026E+00
         21   -1    0    0  501  502  0.00000000000E+00  0.00000000000E+00  0.12966329767E+03  0.12966329767E+03  0.00000000000E+00 0. -1.
         21   -1    0    0  502  503 -0.00000000000E+00 -0.00000000000E+00 -0.21918372330E+03  0.21918372330E+03  0.00000000000E+00 0.  1.
         24    1    1    2    0    0  0.89757154811E+02 -0.28323125744E+02 -0.85891356886E+02  0.15067543739E+03  0.80419002446E+02 0. -1.
          1    1    1    2  501    0 -0.63023438826E+01  0.35636374347E+02  0.75001595621E+02  0.83276107382E+02  0.00000000000E+00 0. -1.
         -2    1    1    2    0  503 -0.83454810929E+02 -0.73132486024E+01 -0.78630664362E+02  0.11489547620E+03  0.00000000000E+00 0.  1.
<mgrwt>
<rscale>  2 0.12188063E+03</rscale>
<asrwt>0</asrwt>
<pdfrwt beam="1">  1       21 0.19948200E-01 0.12188063E+03</pdfrwt>
<pdfrwt beam="2">  1       21 0.33720572E-01 0.12188063E+03</pdfrwt>
<totfact> 0.20032636E+05</totfact>
</mgrwt>
</event>
<event>
 5    1  0.1590180E+000  0.6907491E+02  0.7546771E-02  0.1363267E+00
         21   -1    0    0  501  502  0.00000000000E+00  0.00000000000E+00  0.62709513579E+02  0.62709513579E+02  0.00000000000E+00 0.  1.
         21   -1    0    0  502  503 -0.00000000000E+00 -0.00000000000E+00 -0.15570247918E+03  0.15570247918E+03  0.00000000000E+00 0.  1.
         24    1    1    2    0    0 -0.60028146989E+01 -0.22230549931E+02  0.30570809164E+00  0.83651303315E+02  0.80419002446E+02 0.  1.
          1    1    1    2  501    0  0.27512008154E+02  0.17077108909E+02  0.60829775548E+01  0.32947547060E+02  0.00000000000E+00 0. -1.
         -2    1    1    2    0  503 -0.21509193455E+02  0.51534410218E+01 -0.99381651252E+02  0.10181314239E+03  0.00000000000E+00 0.  1.
<mgrwt>
<rscale>  2 0.69074913E+02</rscale>
<asrwt>0</asrwt>
<pdfrwt beam="1">  1       21 0.96476175E-02 0.69074913E+02</pdfrwt>
<pdfrwt beam="2">  1       21 0.23954228E-01 0.69074913E+02</pdfrwt>
<totfact> 0.13927745E+06</totfact>
</mgrwt>
</event>
<event>
 5    1  0.1590180E+000  0.9703655E+02  0.7546771E-02  0.1286654E+00
         21   -1    0    0  503  502  0.00000000000E+00  0.00000000000E+00  0.21274500266E+03  0.21274500266E+03  0.00000000000E+00 0.  1.
         21   -1    0    0  501  503 -0.00000000000E+00 -0.00000000000E+00 -0.73886090560E+02  0.73886090560E+02  0.00000000000E+00 0.  1.
         24    1    1    2    0    0  0.29370330256E+01 -0.76362961059E+02  0.92972024647E+00  0.11094146348E+03  0.80419002446E+02 0.  1.
          1    1    1    2  501    0 -0.16700025787E+02  0.25802295674E+02  0.29265298657E+01  0.30874162343E+02  0.00000000000E+00 0. -1.
         -2    1    1    2    0  502  0.13762992761E+02  0.50560665385E+02  0.13500266199E+03  0.14481546740E+03  0.00000000000E+00 0.  1.
<mgrwt>
<rscale>  2 0.97036553E+02</rscale>
<asrwt>0</asrwt>
<pdfrwt beam="1">  1       21 0.32730000E-01 0.97036553E+02</pdfrwt>
<pdfrwt beam="2">  1       21 0.11367091E-01 0.97036553E+02</pdfrwt>
<totfact> 0.58503633E+05</totfact>
</mgrwt>
</event>
<event>
 5    1  0.1590180E+000  0.6366325E+02  0.7546771E-02  0.1383072E+00
         21   -1    0    0  501  502  0.00000000000E+00  0.00000000000E+00  0.16457209020E+03  0.16457209020E+03  0.00000000000E+00 0. -1.
         21   -1    0    0  502  503 -0.00000000000E+00 -0.00000000000E+00 -0.40086078295E+02  0.40086078295E+02  0.00000000000E+00 0. -1.
         24    1    1    2    0    0  0.84855649101E+01  0.84045705372E+01  0.33727433443E+02  0.88019300945E+02  0.80419002446E+02 0. -1.
          1    1    1    2  501    0  0.82813593495E+01 -0.22591733766E+02  0.91551650040E+02  0.94660825964E+02  0.00000000000E+00 0. -1.
         -2    1    1    2    0  503 -0.16766924260E+02  0.14187163228E+02 -0.79307157424E+00  0.21978041590E+02  0.00000000000E+00 0.  1.
<mgrwt>
<rscale>  2 0.63663249E+02</rscale>
<asrwt>0</asrwt>
<pdfrwt beam="1">  1       21 0.25318783E-01 0.63663249E+02</pdfrwt>
<pdfrwt beam="2">  1       21 0.61670891E-02 0.63663249E+02</pdfrwt>
<totfact> 0.26670160E+06</totfact>
</mgrwt>
</event>
<event>
 5    1  0.1590180E+000  0.7191804E+02  0.7546771E-02  0.1353690E+00
         21   -1    0    0  501  502  0.00000000000E+00  0.00000000000E+00  0.76882099463E+02  0.76882099463E+02  0.00000000000E+00 0. -1.
         21   -1    0    0  502  503 -0.00000000000E+00 -0.00000000000E+00 -0.79480473575E+02  0.79480473575E+02  0.00000000000E+00 0. -1.
         24    1    1    2    0    0 -0.31642217158E+02  0.35682685656E+02  0.82378546384E+01  0.93859267873E+02  0.80419002446E+02 0. -1.
          1    1    1    2  501    0  0.21479370803E+02 -0.12084436080E+02  0.12641664118E+02  0.27698531317E+02  0.00000000000E+00 0. -1.
         -2    1    1    2    0  503  0.10162846355E+02 -0.23598249576E+02 -0.23477892868E+02  0.34804773848E+02  0.00000000000E+00 0.  1.
<mgrwt>
<rscale>  2 0.71918039E+02</rscale>
<asrwt>0</asrwt>
<pdfrwt beam="1">  1       21 0.11828015E-01 0.71918039E+02</pdfrwt>
<pdfrwt beam="2">  1       21 0.12227765E-01 0.71918039E+02</pdfrwt>
<totfact> 0.32783879E+06</totfact>
</mgrwt>
</event>
<event>
 5    1  0.1590180E+000  0.7599094E+02  0.7546771E-02  0.1340830E+00
         21   -1    0    0  501  502  0.00000000000E+00  0.00000000000E+00  0.51523739582E+03  0.51523739582E+03  0.00000000000E+00 0. -1.
         21   -1    0    0  502  503 -0.00000000000E+00 -0.00000000000E+00 -0.98947332286E+02  0.98947332286E+02  0.00000000000E+00 0. -1.
         24    1    1    2    0    0 -0.21445657987E+02  0.46628281972E+01 -0.59794017723E+02  0.10258751738E+03  0.80419002446E+02 0. -1.
          1    1    1    2  501    0  0.32890423095E+02 -0.27633559932E+02  0.48308839105E+03  0.48499462588E+03  0.00000000000E+00 0. -1.
         -2    1    1    2    0  503 -0.11444765108E+02  0.22970731735E+02 -0.70043097889E+01  0.26602584845E+02  0.00000000000E+00 0.  1.
<mgrwt>
<rscale>  2 0.75990939E+02</rscale>
<asrwt>0</asrwt>
<pdfrwt beam="1">  1       21 0.79267290E-01 0.75990939E+02</pdfrwt>
<pdfrwt beam="2">  1       21 0.15222667E-01 0.75990939E+02</pdfrwt>
<totfact> 0.57366842E+04</totfact>
</mgrwt>
</event>
<event>
 5    1  0.1590180E+000  0.1665738E+03  0.7546771E-02  0.1181469E+00
         21   -1    0    0  501  502  0.00000000000E+00  0.00000000000E+00  0.94219695260E+02  0.94219695260E+02  0.00000000000E+00 0. -1.
         21   -1    0    0  502  503 -0.00000000000E+00 -0.00000000000E+00 -0.37002360191E+03  0.37002360191E+03  0.00000000000E+00 0. -1.
         24    1    1    2    0    0  0.14817856208E+03 -0.21716531187E+02 -0.13566737479E+03  0.21748872735E+03  0.80419002446E+02 0. -1.
          1    1    1    2  501    0 -0.11469889816E+03  0.44102752562E+02 -0.25844318799E+02  0.12557395764E+03  0.00000000000E+00 0. -1.
         -2    1    1    2    0  503 -0.33479663913E+02 -0.22386221376E+02 -0.11429221306E+03  0.12118061218E+03  0.00000000000E+00 0.  1.
<mgrwt>
<rscale>  2 0.16657375E+03</rscale>
<asrwt>0</asrwt>
<pdfrwt beam="1">  1       21 0.14495338E-01 0.16657375E+03</pdfrwt>
<pdfrwt beam="2">  1       21 0.56926708E-01 0.16657375E+03</pdfrwt>
<totfact> 0.12220550E+05</totfact>
</mgrwt>
</event>
<event>
 5    1  0.1590180E+000  0.8434202E+02  0.7546771E-02  0.1317162E+00
         21   -1    0    0  501  502  0.00000000000E+00  0.00000000000E+00  0.30517983623E+03  0.30517983623E+03  0.00000000000E+00 0. -1.
         21   -1    0    0  502  503 -0.00000000000E+00 -0.00000000000E+00 -0.37633183730E+02  0.37633183730E+02  0.00000000000E+00 0. -1.
         24    1    1    2    0    0 -0.30940513280E+02  0.57343288252E+02  0.53689842205E+02  0.11659924176E+03  0.80419002446E+02 0. -1.
          1    1    1    2  501    0  0.13501762604E+02 -0.26858356398E+02  0.15321501391E+03  0.15613618859E+03  0.00000000000E+00 0. -1.
         -2    1    1    2    0  503  0.17438750676E+02 -0.30484931854E+02  0.60641796386E+02  0.70077589600E+02  0.00000000000E+00 0.  1.
<mgrwt>
<rscale>  2 0.84342023E+02</rscale>
<asrwt>0</asrwt>
<pdfrwt beam="1">  1       21 0.46950742E-01 0.84342023E+02</pdfrwt>
<pdfrwt beam="2">  1       21 0.57897208E-02 0.84342023E+02</pdfrwt>
<totfact> 0.90879311E+05</totfact>
</mgrwt>
</event>
<event>
 5    1  0.1590180E+000  0.9644510E+02  0.7546771E-02  0.1287954E+00
         21   -1    0    0  503  502  0.00000000000E+00  0.00000000000E+00  0.11742254303E+03  0.11742254303E+03  0.00000000000E+00 0. -1.
         21   -1    0    0  501  503 -0.00000000000E+00 -0.00000000000E+00 -0.83028615114E+02  0.83028615114E+02  0.00000000000E+00 0.  1.
         24    1    1    2    0    0 -0.61965697501E+02  0.42946854373E+02  0.28389538618E+02  0.11383040817E+03  0.80419002446E+02 0.  0.
          1    1    1    2  501    0  0.36441993008E+02 -0.43975116136E+02 -0.77052720385E+01  0.57629861277E+02  0.00000000000E+00 0. -1.
         -2    1    1    2    0  502  0.25523704492E+02  0.10282617633E+01  0.13709661334E+02  0.28990888692E+02  0.00000000000E+00 0.  1.
<mgrwt>
<rscale>  2 0.96445105E+02</rscale>
<asrwt>0</asrwt>
<pdfrwt beam="1">  1       21 0.18065007E-01 0.96445105E+02</pdfrwt>
<pdfrwt beam="2">  1       21 0.12773633E-01 0.96445105E+02</pdfrwt>
<totfact> 0.14491506E+06</totfact>
</mgrwt>
</event>
<event>
 5    1  0.1590180E+000  0.9976133E+02  0.7546771E-02  0.1280799E+00
         21   -1    0    0  503  502  0.00000000000E+00  0.00000000000E+00  0.11240687128E+03  0.11240687128E+03  0.00000000000E+00 0. -1.
         21   -1    0    0  501  503 -0.00000000000E+00 -0.00000000000E+00 -0.20358190926E+03  0.20358190926E+03  0.00000000000E+00 0. -1.
         24    1    1    2    0    0  0.74203694366E+02  0.88172851421E+00  0.38171911359E+02  0.11589338408E+03  0.80419002446E+02 0. -1.
          1    1    1    2  501    0 -0.55778247669E+02 -0.23839119065E+02 -0.15154017541E+03  0.16322971933E+03  0.00000000000E+00 0. -1.
         -2    1    1    2    0  502 -0.18425446697E+02  0.22957390551E+02  0.22193226071E+02  0.36865677131E+02  0.00000000000E+00 0.  1.
<mgrwt>
<rscale>  2 0.99761327E+02</rscale>
<asrwt>0</asrwt>
<pdfrwt beam="1">  1       21 0.17293365E-01 0.99761327E+02</pdfrwt>
<pdfrwt beam="2">  1       21 0.31320293E-01 0.99761327E+02</pdfrwt>
<totfact> 0.30165622E+05</totfact>
</mgrwt>
</event>
<event>
 5    1  0.1590180E+000  0.1030943E+03  0.7546771E-02  0.1273920E+00
         21   -1    0    0  503  502  0.00000000000E+00  0.00000000000E+00  0.33459810004E+03  0.33459810004E+03  0.00000000000E+00 0. -1.
         21   -1    0    0  501  503 -0.00000000000E+00 -0.00000000000E+00 -0.50957640123E+02  0.50957640123E+02  0.00000000000E+00 0. -1.
         24    1    1    2    0    0 -0.16253749111E+01  0.66395586203E+02  0.18651825525E+03  0.21369906693E+03  0.80419002446E+02 0. -1.
          1    1    1    2  501    0 -0.30272222439E+02 -0.62894488393E+02  0.24268650104E+00  0.69801024479E+02  0.00000000000E+00 0. -1.
         -2    1    1    2    0  502  0.31897597350E+02 -0.35010978108E+01  0.96879518166E+02  0.10205564875E+03  0.00000000000E+00 0.  1.
<mgrwt>
<rscale>  2 0.10309426E+03</rscale>
<asrwt>0</asrwt>
<pdfrwt beam="1">  1       21 0.51476629E-01 0.10309426E+03</pdfrwt>
<pdfrwt beam="2">  1       21 0.78396371E-02 0.10309426E+03</pdfrwt>
<totfact> 0.45130103E+05</totfact>
</mgrwt>
</event>
<event>
 5    1  0.1590180E+000  0.8123317E+02  0.7546771E-02  0.1325588E+00
         21   -1    0    0  501  502  0.00000000000E+00  0.00000000000E+00  0.12924327470E+02  0.12924327470E+02  0.00000000000E+00 0. -1.
         21   -1    0    0  502  503 -0.00000000000E+00 -0.00000000000E+00 -0.63017563711E+03  0.63017563711E+03  0.00000000000E+00 0.  1.
         24    1    1    2    0    0  0.35489934549E+02  0.24224117981E+02 -0.42947383884E+03  0.43904594013E+03  0.80419002446E+02 0.  1.
          1    1    1    2  501    0 -0.38849498329E+02  0.73471159934E+01 -0.56293927779E+02  0.68791496122E+02  0.00000000000E+00 0. -1.
         -2    1    1    2    0  503  0.33595637802E+01 -0.31571233974E+02 -0.13148354302E+03  0.13526252833E+03  0.00000000000E+00 0.  1.
<mgrwt>
<rscale>  2 0.81233165E+02</rscale>
<asrwt>0</asrwt>
<pdfrwt beam="1">  1       21 0.19883578E-02 0.81233165E+02</pdfrwt>
<pdfrwt beam="2">  1       21 0.96950114E-01 0.81233165E+02</pdfrwt>
<totfact> 0.10990335E+06</totfact>
</mgrwt>
</event>
<event>
 5    1  0.1590180E+000  0.8794586E+02  0.7546771E-02  0.1307904E+00
         21   -1    0    0  501  502  0.00000000000E+00  0.00000000000E+00  0.15262109291E+02  0.15262109291E+02  0.00000000000E+00 0. -1.
         21   -1    0    0  502  503 -0.00000000000E+00 -0.00000000000E+00 -0.82679355532E+03  0.82679355532E+03  0.00000000000E+00 0.  1.
         24    1    1    2    0    0  0.56041477692E+02 -0.15046173211E+02 -0.20339931550E+03  0.22628639387E+03  0.80419002446E+02 0. -1.
          1    1    1    2  501    0 -0.52102585430E+02 -0.85515807602E+01 -0.19734992934E+03  0.20429097765E+03  0.00000000000E+00 0. -1.
         -2    1    1    2    0  503 -0.39388922616E+01  0.23597753972E+02 -0.41078220120E+03  0.41147829309E+03  0.00000000000E+00 0.  1.
<mgrwt>
<rscale>  2 0.87945864E+02</rscale>
<asrwt>0</asrwt>
<pdfrwt beam="1">  1       21 0.23480166E-02 0.87945864E+02</pdfrwt>
<pdfrwt beam="2">  1       21 0.12719902E+00 0.87945864E+02</pdfrwt>
<totfact> 0.44342484E+05</totfact>
</mgrwt>
</event>
<event>
 5    1  0.1590180E+000  0.6576722E+02  0.7546771E-02  0.1375109E+00
         21   -1    0    0  501  502  0.00000000000E+00  0.00000000000E+00  0.14582610029E+03  0.14582610029E+03  0.00000000000E+00 0.  1.
         21   -1    0    0  502  503 -0.00000000000E+00 -0.00000000000E+00 -0.52360565032E+02  0.52360565032E+02  0.00000000000E+00 0. -1.
         24    1    1    2    0    0 -0.46156182826E+01 -0.36631763932E+02 -0.49449995015E+01  0.88627642614E+02  0.80419002446E+02 0. -1.
          1    1    1    2  501    0 -0.88058265243E+01  0.18472687128E+02  0.71798372999E+02  0.74657813495E+02  0.00000000000E+00 0. -1.
         -2    1    1    2    0  503  0.13421444807E+02  0.18159076804E+02  0.26612161764E+02  0.34901209217E+02  0.00000000000E+00 0.  1.
<mgrwt>
<rscale>  2 0.65767223E+02</rscale>
<asrwt>0</asrwt>
<pdfrwt beam="1">  1       21 0.22434785E-01 0.65767223E+02</pdfrwt>
<pdfrwt beam="2">  1       21 0.80554716E-02 0.65767223E+02</pdfrwt>
<totfact> 0.21319434E+06</totfact>
</mgrwt>
</event>
<event>
 5    1  0.1590180E+000  0.8718720E+02  0.7546771E-02  0.1309810E+00
         21   -1    0    0  503  502  0.00000000000E+00  0.00000000000E+00  0.70563658230E+02  0.70563658230E+02  0.00000000000E+00 0.  1.
         21   -1    0    0  501  503 -0.00000000000E+00 -0.00000000000E+00 -0.25316408694E+03  0.25316408694E+03  0.00000000000E+00 0.  1.
         24    1    1    2    0    0  0.36082610663E+02 -0.55313577320E+02 -0.15053275678E+03  0.18299965422E+03  0.80419002446E+02 0.  1.
          1    1    1    2  501    0 -0.28589771976E+02  0.21748309547E+02 -0.76515861861E+02  0.84528345223E+02  0.00000000000E+00 0. -1.
         -2    1    1    2    0  502 -0.74928386863E+01  0.33565267773E+02  0.44448189924E+02  0.56199745727E+02  0.00000000000E+00 0.  1.
<mgrwt>
<rscale>  2 0.87187199E+02</rscale>
<asrwt>0</asrwt>
<pdfrwt beam="1">  1       21 0.10855947E-01 0.87187199E+02</pdfrwt>
<pdfrwt beam="2">  1       21 0.38948321E-01 0.87187199E+02</pdfrwt>
<totfact> 0.45160677E+05</totfact>
</mgrwt>
</event>
<event>
 5    1  0.1590180E+000  0.8137425E+02  0.7546771E-02  0.1325196E+00
         21   -1    0    0  503  502  0.00000000000E+00  0.00000000000E+00  0.16997136523E+02  0.16997136523E+02  0.00000000000E+00 0.  1.
         21   -1    0    0  501  503 -0.00000000000E+00 -0.00000000000E+00 -0.41384672246E+03  0.41384672246E+03  0.00000000000E+00 0. -1.
         24    1    1    2    0    0 -0.34889412133E+02 -0.47374175626E+01 -0.24035662426E+03  0.25588715673E+03  0.80419002446E+02 0.  0.
          1    1    1    2  501    0 -0.18650409654E+02 -0.73935299683E+01 -0.67269226470E+02  0.70197228546E+02  0.00000000000E+00 0. -1.
         -2    1    1    2    0  502  0.53539821787E+02  0.12130947531E+02 -0.89223735210E+02  0.10475947370E+03  0.00000000000E+00 0.  1.
<mgrwt>
<rscale>  2 0.81374251E+02</rscale>
<asrwt>0</asrwt>
<pdfrwt beam="1">  1       21 0.26149444E-02 0.81374251E+02</pdfrwt>
<pdfrwt beam="2">  1       21 0.63668719E-01 0.81374251E+02</pdfrwt>
<totfact> 0.17841100E+06</totfact>
</mgrwt>
</event>
<event>
 5    1  0.1590180E+000  0.9941535E+02  0.7546771E-02  0.1281530E+00
         21   -1    0    0  503  502  0.00000000000E+00  0.00000000000E+00  0.12455143001E+03  0.12455143001E+03  0.00000000000E+00 0.  1.
         21   -1    0    0  501  503 -0.00000000000E+00 -0.00000000000E+00 -0.11369331534E+03  0.11369331534E+03  0.00000000000E+00 0.  1.
         24    1    1    2    0    0  0.56741419174E+02  0.42697655585E+01  0.54896727384E+02  0.11277715274E+03  0.80419002446E+02 0.  1.
          1    1    1    2  501    0  0.13343923550E+02 -0.24040863973E+02 -0.44890414755E+02  0.52641929801E+02  0.00000000000E+00 0. -1.
         -2    1    1    2    0  502 -0.70085342724E+02  0.19771098415E+02  0.85180204922E+00  0.72825662812E+02  0.00000000000E+00 0.  1.
<mgrwt>
<rscale>  2 0.99415350E+02</rscale>
<asrwt>0</asrwt>
<pdfrwt beam="1">  1       21 0.19161758E-01 0.99415350E+02</pdfrwt>
<pdfrwt beam="2">  1       21 0.17491279E-01 0.99415350E+02</pdfrwt>
<totfact> 0.74209243E+05</totfact>
</mgrwt>
</event>
<event>
 5    1  0.1590180E+000  0.7702268E+02  0.7546771E-02  0.1337719E+00
         21   -1    0    0  503  502  0.00000000000E+00  0.00000000000E+00  0.96924173021E+02  0.96924173021E+02  0.00000000000E+00 0.  1.
         21   -1    0    0  501  503 -0.00000000000E+00 -0.00000000000E+00 -0.74133005258E+02  0.74133005258E+02  0.00000000000E+00 0. -1.
         24    1    1    2    0    0  0.34790280087E+01 -0.15498708052E+02  0.33809506231E+02  0.88671372230E+02  0.80419002446E+02 0.  1.
          1    1    1    2  501    0  0.32811575472E+02  0.52915682860E+00 -0.24419483181E+02  0.40904653167E+02  0.00000000000E+00 0. -1.
         -2    1    1    2    0  502 -0.36290603481E+02  0.14969551224E+02  0.13401144712E+02  0.41481152882E+02  0.00000000000E+00 0.  1.
<mgrwt>
<rscale>  2 0.77022683E+02</rscale>
<asrwt>0</asrwt>
<pdfrwt beam="1">  1       21 0.14911411E-01 0.77022683E+02</pdfrwt>
<pdfrwt beam="2">  1       21 0.11405078E-01 0.77022683E+02</pdfrwt>
<totfact> 0.24729251E+06</totfact>
</mgrwt>
</event>
<event>
 5    1  0.1590180E+000  0.7210463E+02  0.7546771E-02  0.1353079E+00
         21   -1    0    0  501  502  0.00000000000E+00  0.00000000000E+00  0.28710705469E+03  0.28710705469E+03  0.00000000000E+00 0. -1.
         21   -1    0    0  502  503 -0.00000000000E+00 -0.00000000000E+00 -0.28270023362E+02  0.28270023362E+02  0.00000000000E+00 0. -1.
         24    1    1    2    0    0 -0.27396888007E+02 -0.40249045618E+02  0.70318860727E+02  0.11739903438E+03  0.80419002446E+02 0.  0.
          1    1    1    2  501    0  0.11052690003E+02  0.26950223924E+02  0.15937685384E+03  0.16201684500E+03  0.00000000000E+00 0. -1.
         -2    1    1    2    0  503  0.16344198004E+02  0.13298821694E+02  0.29141316768E+02  0.35961198670E+02  0.00000000000E+00 0.  1.
<mgrwt>
<rscale>  2 0.72104626E+02</rscale>
<asrwt>0</asrwt>
<pdfrwt beam="1">  1       21 0.44170314E-01 0.72104626E+02</pdfrwt>
<pdfrwt beam="2">  1       21 0.43492346E-02 0.72104626E+02</pdfrwt>
<totfact> 0.16435302E+06</totfact>
</mgrwt>
</event>
<event>
 5    1  0.1590180E+000  0.8847554E+02  0.7546771E-02  0.1306586E+00
         21   -1    0    0  503  502  0.00000000000E+00  0.00000000000E+00  0.78189067064E+01  0.78189067064E+01  0.00000000000E+00 0.  1.
         21   -1    0    0  501  503 -0.00000000000E+00 -0.00000000000E+00 -0.25910273932E+04  0.25910273932E+04  0.00000000000E+00 0. -1.
         24    1    1    2    0    0 -0.25937936827E+02 -0.33361465539E+02 -0.77178014882E+03  0.77710847249E+03  0.80419002446E+02 0.  1.
          1    1    1    2  501    0 -0.96803107572E+01 -0.19843269413E+02 -0.16147366180E+04  0.16148875532E+04  0.00000000000E+00 0. -1.
         -2    1    1    2    0  502  0.35618247584E+02  0.53204734952E+02 -0.19669171968E+03  0.20685027428E+03  0.00000000000E+00 0.  1.
<mgrwt>
<rscale>  2 0.88475539E+02</rscale>
<asrwt>0</asrwt>
<pdfrwt beam="1">  1       21 0.12029105E-02 0.88475539E+02</pdfrwt>
<pdfrwt beam="2">  1       21 0.39861901E+00 0.88475539E+02</pdfrwt>
<totfact> 0.29514301E+04</totfact>
</mgrwt>
</event>
<event>
 5    1  0.1590180E+000  0.7519833E+02  0.7546771E-02  0.1343258E+00
         21   -1    0    0  503  502  0.00000000000E+00  0.00000000000E+00  0.66266906039E+02  0.66266906039E+02  0.00000000000E+00 0. -1.
         21   -1    0    0  501  503 -0.00000000000E+00 -0.00000000000E+00 -0.88685511862E+02  0.88685511862E+02  0.00000000000E+00 0.  1.
         24    1    1    2    0    0  0.52573039091E+02  0.94790412278E+00 -0.14397400811E+01  0.96094285821E+02  0.80419002446E+02 0.  0.
          1    1    1    2  501    0 -0.25831008235E+02 -0.72688276859E+01 -0.14978899102E+02  0.30731811868E+02  0.00000000000E+00 0. -1.
         -2    1    1    2    0  502 -0.26742030856E+02  0.63209235631E+01 -0.59999666398E+01  0.28126320213E+02  0.00000000000E+00 0.  1.
<mgrwt>
<rscale>  2 0.75198327E+02</rscale>
<asrwt>0</asrwt>
<pdfrwt beam="1">  1       21 0.10194909E-01 0.75198327E+02</pdfrwt>
<pdfrwt beam="2">  1       21 0.13643925E-01 0.75198327E+02</pdfrwt>
<totfact> 0.35102116E+06</totfact>
</mgrwt>
</event>
<event>
 5    1  0.1590180E+000  0.1511587E+03  0.7546771E-02  0.1199056E+00
         21   -1    0    0  501  502  0.00000000000E+00  0.00000000000E+00  0.32703154780E+03  0.32703154780E+03  0.00000000000E+00 0. -1.
         21   -1    0    0  502  503 -0.00000000000E+00 -0.00000000000E+00 -0.57059411825E+03  0.57059411825E+03  0.00000000000E+00 0.  1.
         24    1    1    2    0    0 -0.44039855476E+02  0.10569924316E+03  0.17508150501E+03  0.22412627741E+03  0.80419002446E+02 0. -1.
          1    1    1    2  501    0 -0.38098654417E+02 -0.17681095198E+02  0.11709491394E+03  0.12439994962E+03  0.00000000000E+00 0. -1.
         -2    1    1    2    0  503  0.82138509893E+02 -0.88018147962E+02 -0.53573898939E+03  0.54909943902E+03  0.00000000000E+00 0.  1.
<mgrwt>
<rscale>  2 0.15115872E+03</rscale>
<asrwt>0</asrwt>
<pdfrwt beam="1">  1       21 0.50312546E-01 0.15115872E+03</pdfrwt>
<pdfrwt beam="2">  1       21 0.87783710E-01 0.15115872E+03</pdfrwt>
<totfact> 0.43396824E+03</totfact>
</mgrwt>
</event>
<event>
 5    1  0.1590180E+000  0.7083918E+02  0.7546771E-02  0.1357262E+00
         21   -1    0    0  501  502  0.00000000000E+00  0.00000000000E+00  0.26879019614E+03  0.26879019614E+03  0.00000000000E+00 0. -1.
         21   -1    0    0  502  503 -0.00000000000E+00 -0.00000000000E+00 -0.29808589850E+02  0.29808589850E+02  0.00000000000E+00 0. -1.
         24    1    1    2    0    0 -0.10634769871E+02 -0.21369296319E+01  0.70861781409E+02  0.10773241303E+03  0.80419002446E+02 0. -1.
          1    1    1    2  501    0  0.35561761206E+02  0.16239975792E+01  0.16106934578E+03  0.16495638933E+03  0.00000000000E+00 0. -1.
         -2    1    1    2    0  503 -0.24926991334E+02  0.51293205268E+00  0.70504790934E+01  0.25909983630E+02  0.00000000000E+00 0.  1.
<mgrwt>
<rscale>  2 0.70839185E+02</rscale>
<asrwt>0</asrwt>
<pdfrwt beam="1">  1       21 0.41352336E-01 0.70839185E+02</pdfrwt>
<pdfrwt beam="2">  1       21 0.45859371E-02 0.70839185E+02</pdfrwt>
<totfact> 0.17154248E+06</totfact>
</mgrwt>
</event>
<event>
 5    1  0.1590180E+000  0.8606740E+02  0.7546771E-02  0.1312665E+00
         21   -1    0    0  503  502  0.00000000000E+00  0.00000000000E+00  0.16019062453E+03  0.16019062453E+03  0.00000000000E+00 0. -1.
         21   -1    0    0  501  503 -0.00000000000E+00 -0.00000000000E+00 -0.77415555314E+02  0.77415555314E+02  0.00000000000E+00 0.  1.
         24    1    1    2    0    0 -0.14135279746E+02 -0.62711091766E+02  0.45179973756E+02  0.11243190449E+03  0.80419002446E+02 0. -1.
          1    1    1    2  501    0  0.14962068829E+02  0.14091095777E+02 -0.33343616070E+02  0.39169110489E+02  0.00000000000E+00 0. -1.
         -2    1    1    2    0  502 -0.82678908276E+00  0.48619995989E+02  0.70938711526E+02  0.86005164863E+02  0.00000000000E+00 0.  1.
<mgrwt>
<rscale>  2 0.86067402E+02</rscale>
<asrwt>0</asrwt>
<pdfrwt beam="1">  1       21 0.24644711E-01 0.86067402E+02</pdfrwt>
<pdfrwt beam="2">  1       21 0.11910085E-01 0.86067402E+02</pdfrwt>
<totfact> 0.92285108E+05</totfact>
</mgrwt>
</event>
<event>
 5    1  0.2283075E+000  0.8600715E+02  0.7546771E-02  0.1312820E+00
         21   -1    0    0  503  502  0.00000000000E+00  0.00000000000E+00  0.73203813725E+02  0.73203813725E+02  0.00000000000E+00 0. -1.
         21   -1    0    0  501  503 -0.00000000000E+00 -0.00000000000E+00 -0.60112632331E+03  0.60112632331E+03  0.00000000000E+00 0. -1.
         24    1    1    2    0    0 -0.64495997273E+02  0.13838388417E+02  0.11023787620E+01  0.10401762279E+03  0.80419002446E+02 0. -1.
          1    1    1    2  501    0  0.38730373178E+02 -0.16502394932E+02 -0.54038894520E+03  0.54202636739E+03  0.00000000000E+00 0. -1.
         -2    1    1    2    0  502  0.25765624095E+02  0.26640065154E+01  0.11364056856E+02  0.28286146856E+02  0.00000000000E+00 0.  1.
<mgrwt>
<rscale>  2 0.86007147E+02</rscale>
<asrwt>0</asrwt>
<pdfrwt beam="1">  1       21 0.11262125E-01 0.86007147E+02</pdfrwt>
<pdfrwt beam="2">  1       21 0.92480972E-01 0.86007147E+02</pdfrwt>
<totfact> 0.68614065E+04</totfact>
</mgrwt>
</event>
<event>
 5    1  0.1590180E+000  0.7052191E+02  0.7546771E-02  0.1358327E+00
         21   -1    0    0  503  502  0.00000000000E+00  0.00000000000E+00  0.11961027057E+03  0.11961027057E+03  0.00000000000E+00 0. -1.
         21   -1    0    0  501  503 -0.00000000000E+00 -0.00000000000E+00 -0.89668591229E+02  0.89668591229E+02  0.00000000000E+00 0.  1.
         24    1    1    2    0    0 -0.54536966900E+01  0.10491847728E+02 -0.52210807037E+02  0.96607484193E+02  0.80419002446E+02 0.  1.
          1    1    1    2  501    0  0.22624520817E+01  0.24509453188E+02  0.14600483154E+01  0.24656920450E+02  0.00000000000E+00 0. -1.
         -2    1    1    2    0  502  0.31912446083E+01 -0.35001300916E+02  0.80692438061E+02  0.88014457155E+02  0.00000000000E+00 0.  1.
<mgrwt>
<rscale>  2 0.70521911E+02</rscale>
<asrwt>0</asrwt>
<pdfrwt beam="1">  1       21 0.18401580E-01 0.70521911E+02</pdfrwt>
<pdfrwt beam="2">  1       21 0.13795168E-01 0.70521911E+02</pdfrwt>
<totfact> 0.12118909E+06</totfact>
</mgrwt>
</event>
<event>
 5    1  0.1590180E+000  0.8549652E+02  0.7546771E-02  0.1314139E+00
         21   -1    0    0  501  502  0.00000000000E+00  0.00000000000E+00  0.31518250446E+03  0.31518250446E+03  0.00000000000E+00 0.  1.
         21   -1    0    0  502  503 -0.00000000000E+00 -0.00000000000E+00 -0.69607270708E+02  0.69607270708E+02  0.00000000000E+00 0.  1.
         24    1    1    2    0    0  0.38720883785E+02  0.28277316407E+02  0.18550135143E+03  0.20779047332E+03  0.80419002446E+02 0.  1.
          1    1    1    2  501    0 -0.22523588301E+02  0.17682267226E+02  0.10614413294E+03  0.10993885374E+03  0.00000000000E+00 0. -1.
         -2    1    1    2    0  503 -0.16197295485E+02 -0.45959583633E+02 -0.46070250618E+02  0.67060448110E+02  0.00000000000E+00 0.  1.
<mgrwt>
<rscale>  2 0.85496522E+02</rscale>
<asrwt>0</asrwt>
<pdfrwt beam="1">  1       21 0.48489615E-01 0.85496522E+02</pdfrwt>
<pdfrwt beam="2">  1       21 0.10708811E-01 0.85496522E+02</pdfrwt>
<totfact> 0.29847086E+05</totfact>
</mgrwt>
</event>
<event>
 5    1  0.1590180E+000  0.1278352E+03  0.7546771E-02  0.1230704E+00
         21   -1    0    0  503  502  0.00000000000E+00  0.00000000000E+00  0.51477356058E+02  0.51477356058E+02  0.00000000000E+00 0.  1.
         21   -1    0    0  501  503 -0.00000000000E+00 -0.00000000000E+00 -0.10610771736E+04  0.10610771736E+04  0.00000000000E+00 0. -1.
         24    1    1    2    0    0 -0.42492565297E+02 -0.89534370233E+02 -0.49523010109E+03  0.51141185999E+03  0.80419002446E+02 0. -1.
          1    1    1    2  501    0  0.41582013380E+02  0.32033140959E+01 -0.51310544541E+03  0.51479755552E+03  0.00000000000E+00 0. -1.
         -2    1    1    2    0  502  0.91055191693E+00  0.86331056137E+02 -0.12642710564E+01  0.86345114163E+02  0.00000000000E+00 0.  1.
<mgrwt>
<rscale>  2 0.12783519E+03</rscale>
<asrwt>0</asrwt>
<pdfrwt beam="1">  1       21 0.79195937E-02 0.12783519E+03</pdfrwt>
<pdfrwt beam="2">  1       21 0.16324263E+00 0.12783519E+03</pdfrwt>
<totfact> 0.30482920E+04</totfact>
</mgrwt>
</event>
<event>
 5    1  0.1590180E+000  0.9297958E+02  0.7546771E-02  0.1295792E+00
         21   -1    0    0  501  502  0.00000000000E+00  0.00000000000E+00  0.91107440336E+02  0.91107440336E+02  0.00000000000E+00 0. -1.
         21   -1    0    0  502  503 -0.00000000000E+00 -0.00000000000E+00 -0.14992175531E+03  0.14992175531E+03  0.00000000000E+00 0.  1.
         24    1    1    2    0    0 -0.21076259839E+00 -0.55581847918E+01 -0.60053333131E+02  0.10052142365E+03  0.80419002446E+02 0.  1.
          1    1    1    2  501    0  0.41304387856E+02  0.35531766310E+02  0.47100879736E+02  0.72021189557E+02  0.00000000000E+00 0. -1.
         -2    1    1    2    0  503 -0.41093625258E+02 -0.29973581518E+02 -0.45861861577E+02  0.68486582432E+02  0.00000000000E+00 0.  1.
<mgrwt>
<rscale>  2 0.92979584E+02</rscale>
<asrwt>0</asrwt>
<pdfrwt beam="1">  1       21 0.14016529E-01 0.92979584E+02</pdfrwt>
<pdfrwt beam="2">  1       21 0.23064885E-01 0.92979584E+02</pdfrwt>
<totfact> 0.78425471E+05</totfact>
</mgrwt>
</event>
<event>
 5    1  0.1590180E+000  0.9187281E+02  0.7546771E-02  0.1298379E+00
         21   -1    0    0  501  502  0.00000000000E+00  0.00000000000E+00  0.20358283312E+03  0.20358283312E+03  0.00000000000E+00 0. -1.
         21   -1    0    0  502  503 -0.00000000000E+00 -0.00000000000E+00 -0.52988173669E+02  0.52988173669E+02  0.00000000000E+00 0. -1.
         24    1    1    2    0    0 -0.15628965317E+02  0.49659875483E+02  0.30604502084E+02  0.10056947495E+03  0.80419002446E+02 0. -1.
          1    1    1    2  501    0  0.43009788587E+02 -0.19539075645E+02  0.10011920247E+03  0.11070443575E+03  0.00000000000E+00 0. -1.
         -2    1    1    2    0  503 -0.27380823270E+02 -0.30120799837E+02  0.19870954902E+02  0.45297096094E+02  0.00000000000E+00 0.  1.
<mgrwt>
<rscale>  2 0.91872813E+02</rscale>
<asrwt>0</asrwt>
<pdfrwt beam="1">  1       21 0.31320436E-01 0.91872813E+02</pdfrwt>
<pdfrwt beam="2">  1       21 0.81520268E-02 0.91872813E+02</pdfrwt>
<totfact> 0.11315394E+06</totfact>
</mgrwt>
</event>
<event>
 5    1  0.1590180E+000  0.8211538E+02  0.7546771E-02  0.1323153E+00
         21   -1    0    0  501  502  0.00000000000E+00  0.00000000000E+00  0.78733573968E+02  0.78733573968E+02  0.00000000000E+00 0. -1.
         21   -1    0    0  502  503 -0.00000000000E+00 -0.00000000000E+00 -0.17019957262E+03  0.17019957262E+03  0.00000000000E+00 0. -1.
         24    1    1    2    0    0 -0.61433244740E+02 -0.68538804657E+01 -0.66345843368E+02  0.12120233547E+03  0.80419002446E+02 0. -1.
          1    1    1    2  501    0  0.39662537958E+02 -0.94661885909E+00  0.41378710496E+02  0.57325480258E+02  0.00000000000E+00 0. -1.
         -2    1    1    2    0  503  0.21770706782E+02  0.78004993248E+01 -0.66498865776E+02  0.70405330857E+02  0.00000000000E+00 0.  1.
<mgrwt>
<rscale>  2 0.82115381E+02</rscale>
<asrwt>0</asrwt>
<pdfrwt beam="1">  1       21 0.12112858E-01 0.82115381E+02</pdfrwt>
<pdfrwt beam="2">  1       21 0.26184549E-01 0.82115381E+02</pdfrwt>
<totfact> 0.79929118E+05</totfact>
</mgrwt>
</event>
<event>
 5    1  0.1590180E+000  0.7564708E+02  0.7546771E-02  0.1341879E+00
         21   -1    0    0  503  502  0.00000000000E+00  0.00000000000E+00  0.37200179294E+02  0.37200179294E+02  0.00000000000E+00 0. -1.
         21   -1    0    0  501  503 -0.00000000000E+00 -0.00000000000E+00 -0.21736448101E+03  0.21736448101E+03  0.00000000000E+00 0. -1.
         24    1    1    2    0    0  0.42441990882E+02  0.26692922133E+02 -0.58469908919E+02  0.11135430340E+03  0.80419002446E+02 0. -1.
          1    1    1    2  501    0 -0.92389734515E+01 -0.20859807475E+02 -0.10124011890E+03  0.10377886043E+03  0.00000000000E+00 0. -1.
         -2    1    1    2    0  502 -0.33203017431E+02 -0.58331146583E+01 -0.20454273894E+02  0.39431496467E+02  0.00000000000E+00 0.  1.
<mgrwt>
<rscale>  2 0.75647082E+02</rscale>
<asrwt>0</asrwt>
<pdfrwt beam="1">  1       21 0.57231044E-02 0.75647082E+02</pdfrwt>
<pdfrwt beam="2">  1       21 0.33440690E-01 0.75647082E+02</pdfrwt>
<totfact> 0.18023442E+06</totfact>
</mgrwt>
</event>
<event>
 5    1  0.1590180E+000  0.7084397E+02  0.7546771E-02  0.1357246E+00
         21   -1    0    0  503  502  0.00000000000E+00  0.00000000000E+00  0.19978996561E+02  0.19978996561E+02  0.00000000000E+00 0. -1.
         21   -1    0    0  501  503 -0.00000000000E+00 -0.00000000000E+00 -0.29596273818E+03  0.29596273818E+03  0.00000000000E+00 0.  1.
         24    1    1    2    0    0  0.46280127698E+02 -0.72770469115E+01 -0.19166616033E+03  0.21306792016E+03  0.80419002446E+02 0.  1.
          1    1    1    2  501    0 -0.22950192025E+02  0.10182746213E+02 -0.72165918746E+02  0.76408896491E+02  0.00000000000E+00 0. -1.
         -2    1    1    2    0  502 -0.23329935673E+02 -0.29056993020E+01 -0.12151662543E+02  0.26464918090E+02  0.00000000000E+00 0.  1.
<mgrwt>
<rscale>  2 0.70843966E+02</rscale>
<asrwt>0</asrwt>
<pdfrwt beam="1">  1       21 0.30736921E-02 0.70843966E+02</pdfrwt>
<pdfrwt beam="2">  1       21 0.45532724E-01 0.70843966E+02</pdfrwt>
<totfact> 0.27209517E+06</totfact>
</mgrwt>
</event>
<event>
 5    1  0.1590180E+000  0.7114245E+02  0.7546771E-02  0.1356251E+00
         21   -1    0    0  503  502  0.00000000000E+00  0.00000000000E+00  0.16584829453E+04  0.16584829453E+04  0.00000000000E+00 0.  1.
         21   -1    0    0  501  503 -0.00000000000E+00 -0.00000000000E+00 -0.44712878965E+01  0.44712878965E+01  0.00000000000E+00 0.  1.
         24    1    1    2    0    0  0.17648497824E+01 -0.77773311497E+01  0.65877989775E+03  0.66371814139E+03  0.80419002446E+02 0.  1.
          1    1    1    2  501    0  0.74508853520E+01 -0.25695072742E+02  0.10590624137E+03  0.10923316537E+03  0.00000000000E+00 0. -1.
         -2    1    1    2    0  502 -0.92157351345E+01  0.33472403892E+02  0.88932551829E+03  0.89000292644E+03  0.00000000000E+00 0.  1.
<mgrwt>
<rscale>  2 0.71142455E+02</rscale>
<asrwt>0</asrwt>
<pdfrwt beam="1">  1       21 0.25515073E+00 0.71142455E+02</pdfrwt>
<pdfrwt beam="2">  1       21 0.68789177E-03 0.71142455E+02</pdfrwt>
<totfact> 0.45758797E+05</totfact>
</mgrwt>
</event>
<event>
 5    1  0.1590180E+000  0.8612868E+02  0.7546771E-02  0.1312507E+00
         21   -1    0    0  503  502  0.00000000000E+00  0.00000000000E+00  0.32751332758E+02  0.32751332758E+02  0.00000000000E+00 0. -1.
         21   -1    0    0  501  503 -0.00000000000E+00 -0.00000000000E+00 -0.25426983715E+03  0.25426983715E+03  0.00000000000E+00 0. -1.
         24    1    1    2    0    0  0.13381490306E+02  0.84623401968E+01 -0.14686109218E+03  0.16818463614E+03  0.80419002446E+02 0.  0.
          1    1    1    2  501    0  0.71797066205E+01 -0.46502368987E+02 -0.51597876278E+02  0.69830934012E+02  0.00000000000E+00 0. -1.
         -2    1    1    2    0  502 -0.20561196927E+02  0.38040028790E+02 -0.23059535934E+02  0.49005599750E+02  0.00000000000E+00 0.  1.
<mgrwt>
<rscale>  2 0.86128681E+02</rscale>
<asrwt>0</asrwt>
<pdfrwt beam="1">  1       21 0.50386668E-02 0.86128681E+02</pdfrwt>
<pdfrwt beam="2">  1       21 0.39118435E-01 0.86128681E+02</pdfrwt>
<totfact> 0.16498270E+06</totfact>
</mgrwt>
</event>
<event>
 5    1  0.1590180E+000  0.7614714E+02  0.7546771E-02  0.1340355E+00
         21   -1    0    0  503  502  0.00000000000E+00  0.00000000000E+00  0.71699232648E+02  0.71699232648E+02  0.00000000000E+00 0.  1.
         21   -1    0    0  501  503 -0.00000000000E+00 -0.00000000000E+00 -0.12678226326E+03  0.12678226326E+03  0.00000000000E+00 0.  1.
         24    1    1    2    0    0 -0.14900914506E+02  0.32216776962E+02 -0.63701455605E+02  0.10855896726E+03  0.80419002446E+02 0.  1.
          1    1    1    2  501    0 -0.19754893353E+02 -0.51454226079E+01 -0.26636547686E+02  0.33559452586E+02  0.00000000000E+00 0. -1.
         -2    1    1    2    0  502  0.34655807860E+02 -0.27071354354E+02  0.35254972680E+02  0.56363076066E+02  0.00000000000E+00 0.  1.
<mgrwt>
<rscale>  2 0.76147140E+02</rscale>
<asrwt>0</asrwt>
<pdfrwt beam="1">  1       21 0.11030651E-01 0.76147140E+02</pdfrwt>
<pdfrwt beam="2">  1       21 0.19504963E-01 0.76147140E+02</pdfrwt>
<totfact> 0.16170996E+06</totfact>
</mgrwt>
</event>
<event>
 5    1  0.1590180E+000  0.6895249E+02  0.7546771E-02  0.1363692E+00
         21   -1    0    0  501  502  0.00000000000E+00  0.00000000000E+00  0.54241350987E+02  0.54241350987E+02  0.00000000000E+00 0.  1.
         21   -1    0    0  502  503 -0.00000000000E+00 -0.00000000000E+00 -0.15467594939E+03  0.15467594939E+03  0.00000000000E+00 0. -1.
         24    1    1    2    0    0 -0.28565600790E+02  0.35592570312E+01 -0.50942766997E+02  0.99453724529E+02  0.80419002446E+02 0. -1.
          1    1    1    2  501    0  0.16922432109E+02 -0.23761681427E+02  0.20523283883E+02  0.35667792111E+02  0.00000000000E+00 0. -1.
         -2    1    1    2    0  503  0.11643168681E+02  0.20202424396E+02 -0.70015115289E+02  0.73795783737E+02  0.00000000000E+00 0.  1.
<mgrwt>
<rscale>  2 0.68952491E+02</rscale>
<asrwt>0</asrwt>
<pdfrwt beam="1">  1       21 0.83448232E-02 0.68952491E+02</pdfrwt>
<pdfrwt beam="2">  1       21 0.23796300E-01 0.68952491E+02</pdfrwt>
<totfact> 0.18059971E+06</totfact>
</mgrwt>
</event>
<event>
 5    1  0.1590180E+000  0.7308089E+02  0.7546771E-02  0.1349919E+00
         21   -1    0    0  501  502  0.00000000000E+00  0.00000000000E+00  0.16406103711E+02  0.16406103711E+02  0.00000000000E+00 0. -1.
         21   -1    0    0  502  503 -0.00000000000E+00 -0.00000000000E+00 -0.11858127763E+04  0.11858127763E+04  0.00000000000E+00 0.  1.
         24    1    1    2    0    0 -0.22142860902E+02 -0.28955879820E+02 -0.26846978052E+03  0.28261632698E+03  0.80419002446E+02 0. -1.
          1    1    1    2  501    0  0.35213971184E+02  0.13719632440E+02 -0.29521416351E+02  0.47955876639E+02  0.00000000000E+00 0. -1.
         -2    1    1    2    0  503 -0.13071110282E+02  0.15236247380E+02 -0.87141547569E+03  0.87164667638E+03  0.00000000000E+00 0.  1.
<mgrwt>
<rscale>  2 0.73080887E+02</rscale>
<asrwt>0</asrwt>
<pdfrwt beam="1">  1       21 0.25240158E-02 0.73080887E+02</pdfrwt>
<pdfrwt beam="2">  1       21 0.18243274E+00 0.73080887E+02</pdfrwt>
<totfact> 0.15823272E+05</totfact>
</mgrwt>
</event>
<event>
 5    1  0.1590180E+000  0.1176025E+03  0.7546771E-02  0.1247105E+00
         21   -1    0    0  503  502  0.00000000000E+00  0.00000000000E+00  0.15917829650E+03  0.15917829650E+03  0.00000000000E+00 0.  1.
         21   -1    0    0  501  503 -0.00000000000E+00 -0.00000000000E+00 -0.10350668844E+03  0.10350668844E+03  0.00000000000E+00 0.  1.
         24    1    1    2    0    0 -0.29980428084E+02 -0.89788434195E+02 -0.14001337552E+02  0.12499616951E+03  0.80419002446E+02 0.  1.
          1    1    1    2  501    0 -0.17022931790E+02  0.15139777957E+02 -0.35349338940E+01  0.23054041748E+02  0.00000000000E+00 0. -1.
         -2    1    1    2    0  502  0.47003359874E+02  0.74648656239E+02  0.73207879501E+02  0.11463477369E+03  0.00000000000E+00 0.  1.
<mgrwt>
<rscale>  2 0.11760255E+03</rscale>
<asrwt>0</asrwt>
<pdfrwt beam="1">  1       21 0.24488969E-01 0.11760255E+03</pdfrwt>
<pdfrwt beam="2">  1       21 0.15924106E-01 0.11760255E+03</pdfrwt>
<totfact> 0.55824483E+05</totfact>
</mgrwt>
</event>
<event>
 5    1  0.3014449E+000  0.2029719E+03  0.7546771E-02  0.1147256E+00
         21   -1    0    0  501  502  0.00000000000E+00  0.00000000000E+00  0.27357100006E+03  0.27357100006E+03  0.00000000000E+00 0.  1.
         21   -1    0    0  502  503 -0.00000000000E+00 -0.00000000000E+00 -0.23953627509E+03  0.23953627509E+03  0.00000000000E+00 0. -1.
         24    1    1    2    0    0  0.62330056561E+02 -0.20240100830E+02  0.53457511656E+01  0.10387728646E+03  0.80419002446E+02 0. -1.
          1    1    1    2  501    0  0.11447185797E+03  0.46321755674E+02  0.14920299033E+03  0.19367767976E+03  0.00000000000E+00 0. -1.
         -2    1    1    2    0  503 -0.17680191453E+03 -0.26081654843E+02 -0.12051401652E+03  0.21555230892E+03  0.00000000000E+00 0.  1.
<mgrwt>
<rscale>  2 0.20297194E+03</rscale>
<asrwt>0</asrwt>
<pdfrwt beam="1">  1       21 0.42087846E-01 0.20297194E+03</pdfrwt>
<pdfrwt beam="2">  1       21 0.36851735E-01 0.20297194E+03</pdfrwt>
<totfact> 0.38377252E+04</totfact>
</mgrwt>
</event>
<event>
 5    1  0.1590180E+000  0.8844410E+02  0.7546771E-02  0.1306664E+00
         21   -1    0    0  501  502  0.00000000000E+00  0.00000000000E+00  0.20295483936E+02  0.20295483936E+02  0.00000000000E+00 0. -1.
         21   -1    0    0  502  503 -0.00000000000E+00 -0.00000000000E+00 -0.69931393043E+03  0.69931393043E+03  0.00000000000E+00 0.  1.
         24    1    1    2    0    0 -0.16922324989E+02  0.23983415656E+02 -0.18688086625E+03  0.20555593748E+03  0.80419002446E+02 0.  0.
          1    1    1    2  501    0  0.14610475086E+02  0.32037248303E+02 -0.24099272674E+02  0.42668796614E+02  0.00000000000E+00 0. -1.
         -2    1    1    2    0  503  0.23118499027E+01 -0.56020663959E+02 -0.46803830757E+03  0.47138468027E+03  0.00000000000E+00 0.  1.
<mgrwt>
<rscale>  2 0.88444096E+02</rscale>
<asrwt>0</asrwt>
<pdfrwt beam="1">  1       21 0.31223827E-02 0.88444096E+02</pdfrwt>
<pdfrwt beam="2">  1       21 0.10758674E+00 0.88444096E+02</pdfrwt>
<totfact> 0.41721572E+05</totfact>
</mgrwt>
</event>
<event>
 5    1  0.1590180E+000  0.7883375E+02  0.7546771E-02  0.1332394E+00
         21   -1    0    0  503  502  0.00000000000E+00  0.00000000000E+00  0.68415783899E+02  0.68415783899E+02  0.00000000000E+00 0.  1.
         21   -1    0    0  501  503 -0.00000000000E+00 -0.00000000000E+00 -0.26698110514E+03  0.26698110514E+03  0.00000000000E+00 0.  1.
         24    1    1    2    0    0 -0.54487994353E+02  0.19089478348E+02 -0.15459163966E+03  0.18357325709E+03  0.80419002446E+02 0.  1.
          1    1    1    2  501    0  0.26891978004E+02 -0.14940368718E+02 -0.91597729978E+02  0.96625758654E+02  0.00000000000E+00 0. -1.
         -2    1    1    2    0  502  0.27596016349E+02 -0.41491096299E+01  0.47624048404E+02  0.55197873287E+02  0.00000000000E+00 0.  1.
<mgrwt>
<rscale>  2 0.78833748E+02</rscale>
<asrwt>0</asrwt>
<pdfrwt beam="1">  1       21 0.10525505E-01 0.78833748E+02</pdfrwt>
<pdfrwt beam="2">  1       21 0.41074017E-01 0.78833748E+02</pdfrwt>
<totfact> 0.42917159E+05</totfact>
</mgrwt>
</event>
<event>
 5    1  0.1590180E+000  0.9025651E+02  0.7546771E-02  0.1302232E+00
         21   -1    0    0  501  502  0.00000000000E+00  0.00000000000E+00  0.37122233996E+02  0.37122233996E+02  0.00000000000E+00 0.  1.
         21   -1    0    0  502  503 -0.00000000000E+00 -0.00000000000E+00 -0.24316265820E+03  0.24316265820E+03  0.00000000000E+00 0. -1.
         24    1    1    2    0    0  0.15592954385E+02  0.22034350256E+02 -0.66349187300E+02  0.10769439831E+03  0.80419002446E+02 0.  1.
          1    1    1    2  501    0 -0.46726051200E+02 -0.38428728850E+02 -0.58742906540E+02  0.84325678951E+02  0.00000000000E+00 0. -1.
         -2    1    1    2    0  503  0.31133096815E+02  0.16394378594E+02 -0.80948330361E+02  0.88264814932E+02  0.00000000000E+00 0.  1.
<mgrwt>
<rscale>  2 0.90256511E+02</rscale>
<asrwt>0</asrwt>
<pdfrwt beam="1">  1       21 0.57111129E-02 0.90256511E+02</pdfrwt>
<pdfrwt beam="2">  1       21 0.37409640E-01 0.90256511E+02</pdfrwt>
<totfact> 0.14635545E+06</totfact>
</mgrwt>
</event>
<event>
 5    1  0.1590180E+000  0.6937610E+02  0.7546771E-02  0.1362228E+00
         21   -1    0    0  501  502  0.00000000000E+00  0.00000000000E+00  0.10895882786E+03  0.10895882786E+03  0.00000000000E+00 0.  1.
         21   -1    0    0  502  503 -0.00000000000E+00 -0.00000000000E+00 -0.21942956856E+03  0.21942956856E+03  0.00000000000E+00 0.  1.
         24    1    1    2    0    0  0.35226545914E+02 -0.26248020537E+02  0.69534730546E+02  0.11503113850E+03  0.80419002446E+02 0.  1.
          1    1    1    2  501    0 -0.14591181233E+02  0.21430697469E+02  0.56180931167E+01  0.26528104607E+02  0.00000000000E+00 0. -1.
         -2    1    1    2    0  503 -0.20635364680E+02  0.48173230685E+01 -0.18562356436E+03  0.18682915330E+03  0.00000000000E+00 0.  1.
<mgrwt>
<rscale>  2 0.69376098E+02</rscale>
<asrwt>0</asrwt>
<pdfrwt beam="1">  1       21 0.16762897E-01 0.69376098E+02</pdfrwt>
<pdfrwt beam="2">  1       21 0.33758395E-01 0.69376098E+02</pdfrwt>
<totfact> 0.27765562E+05</totfact>
</mgrwt>
</event>
<event>
 5    1  0.2932093E+000  0.8421646E+02  0.7546771E-02  0.1317494E+00
         21   -1    0    0  501  502  0.00000000000E+00  0.00000000000E+00  0.15352614061E+03  0.15352614061E+03  0.00000000000E+00 0.  1.
         21   -1    0    0  502  503 -0.00000000000E+00 -0.00000000000E+00 -0.29432551490E+03  0.29432551490E+03  0.00000000000E+00 0.  1.
         24    1    1    2    0    0 -0.28257201739E+02 -0.10672941801E+02  0.10412546457E+03  0.13498781227E+03  0.80419002446E+02 0.  1.
          1    1    1    2  501    0  0.97387607426E+01  0.43641475832E+02  0.17286488961E+02  0.47940010160E+02  0.00000000000E+00 0. -1.
         -2    1    1    2    0  503  0.18518440996E+02 -0.32968534031E+02 -0.26221132782E+03  0.26492383307E+03  0.00000000000E+00 0.  1.
<mgrwt>
<rscale>  2 0.84216463E+02</rscale>
<asrwt>0</asrwt>
<pdfrwt beam="1">  1       21 0.23619406E-01 0.84216463E+02</pdfrwt>
<pdfrwt beam="2">  1       21 0.45280848E-01 0.84216463E+02</pdfrwt>
<totfact> 0.83034472E+04</totfact>
</mgrwt>
</event>
<event>
 5    1  0.1590180E+000  0.1110199E+03  0.7546771E-02  0.1258693E+00
         21   -1    0    0  503  502  0.00000000000E+00  0.00000000000E+00  0.34245174439E+03  0.34245174439E+03  0.00000000000E+00 0. -1.
         21   -1    0    0  501  503 -0.00000000000E+00 -0.00000000000E+00 -0.57589850375E+02  0.57589850375E+02  0.00000000000E+00 0. -1.
         24    1    1    2    0    0 -0.86099976023E+02  0.84839553942E+01  0.19098399481E+03  0.22456020484E+03  0.80419002446E+02 0. -1.
          1    1    1    2  501    0  0.53080672169E+02  0.23408573296E+02 -0.12744361070E+02  0.59396446028E+02  0.00000000000E+00 0. -1.
         -2    1    1    2    0  502  0.33019303854E+02 -0.31892528690E+02  0.10662226028E+03  0.11608494390E+03  0.00000000000E+00 0.  1.
<mgrwt>
<rscale>  2 0.11101994E+03</rscale>
<asrwt>0</asrwt>
<pdfrwt beam="1">  1       21 0.52684883E-01 0.11101994E+03</pdfrwt>
<pdfrwt beam="2">  1       21 0.88599772E-02 0.11101994E+03</pdfrwt>
<totfact> 0.34822561E+05</totfact>
</mgrwt>
</event>
<event>
 5    1  0.1590180E+000  0.9280813E+02  0.7546771E-02  0.1296190E+00
         21   -1    0    0  503  502  0.00000000000E+00  0.00000000000E+00  0.25506011552E+03  0.25506011552E+03  0.00000000000E+00 0. -1.
         21   -1    0    0  501  503 -0.00000000000E+00 -0.00000000000E+00 -0.38201056488E+02  0.38201056488E+02  0.00000000000E+00 0.  1.
         24    1    1    2    0    0  0.18351553067E+02 -0.35552107181E+02  0.14878949082E+03  0.17379948319E+03  0.80419002446E+02 0. -1.
          1    1    1    2  501    0  0.32482266855E+02 -0.20772129783E+01  0.11240992418E+02  0.34435045874E+02  0.00000000000E+00 0. -1.
         -2    1    1    2    0  502 -0.50833819922E+02  0.37629320159E+02  0.56828575801E+02  0.85026642949E+02  0.00000000000E+00 0.  1.
<mgrwt>
<rscale>  2 0.92808133E+02</rscale>
<asrwt>0</asrwt>
<pdfrwt beam="1">  1       21 0.39240017E-01 0.92808133E+02</pdfrwt>
<pdfrwt beam="2">  1       21 0.58770858E-02 0.92808133E+02</pdfrwt>
<totfact> 0.12706290E+06</totfact>
</mgrwt>
</event>
<event>
 5    1  0.1590180E+000  0.8795556E+02  0.7546771E-02  0.1307879E+00
         21   -1    0    0  503  502  0.00000000000E+00  0.00000000000E+00  0.15989925099E+03  0.15989925099E+03  0.00000000000E+00 0. -1.
         21   -1    0    0  501  503 -0.00000000000E+00 -0.00000000000E+00 -0.34095262052E+03  0.34095262052E+03  0.00000000000E+00 0. -1.
         24    1    1    2    0    0 -0.25847281582E+02 -0.62923126320E+02  0.57527462081E+02  0.12001677649E+03  0.80419002446E+02 0. -1.
          1    1    1    2  501    0 -0.47744844849E+00  0.21465469853E+02 -0.30080263893E+03  0.30156793918E+03  0.00000000000E+00 0. -1.
         -2    1    1    2    0  502  0.26324730030E+02  0.41457656467E+02  0.62221807318E+02  0.79267155852E+02  0.00000000000E+00 0.  1.
<mgrwt>
<rscale>  2 0.87955562E+02</rscale>
<asrwt>0</asrwt>
<pdfrwt beam="1">  1       21 0.24599885E-01 0.87955562E+02</pdfrwt>
<pdfrwt beam="2">  1       21 0.52454249E-01 0.87955562E+02</pdfrwt>
<totfact> 0.56957806E+04</totfact>
</mgrwt>
</event>
<event>
 5    1  0.1590180E+000  0.8064015E+02  0.7546771E-02  0.1327245E+00
         21   -1    0    0  503  502  0.00000000000E+00  0.00000000000E+00  0.56003795091E+03  0.56003795091E+03  0.00000000000E+00 0. -1.
         21   -1    0    0  501  503 -0.00000000000E+00 -0.00000000000E+00 -0.12703871970E+02  0.12703871970E+02  0.00000000000E+00 0.  1.
         24    1    1    2    0    0 -0.70441696752E+00  0.92036998258E+01  0.29227155264E+03  0.30327393679E+03  0.80419002446E+02 0.  0.
          1    1    1    2  501    0 -0.27687018830E+02 -0.33150224558E+02  0.84390307522E+02  0.94801014782E+02  0.00000000000E+00 0. -1.
         -2    1    1    2    0  502  0.28391435798E+02  0.23946524732E+02  0.17067221878E+03  0.17466687132E+03  0.00000000000E+00 0.  1.
<mgrwt>
<rscale>  2 0.80640152E+02</rscale>
<asrwt>0</asrwt>
<pdfrwt beam="1">  1       21 0.86159665E-01 0.80640152E+02</pdfrwt>
<pdfrwt beam="2">  1       21 0.19544423E-02 0.80640152E+02</pdfrwt>
<totfact> 0.14744013E+06</totfact>
</mgrwt>
</event>
<event>
 5    1  0.1590180E+000  0.7394181E+02  0.7546771E-02  0.1347180E+00
         21   -1    0    0  501  502  0.00000000000E+00  0.00000000000E+00  0.48440452865E+02  0.48440452865E+02  0.00000000000E+00 0.  1.
         21   -1    0    0  502  503 -0.00000000000E+00 -0.00000000000E+00 -0.18434826848E+03  0.18434826848E+03  0.00000000000E+00 0. -1.
         24    1    1    2    0    0 -0.11522758938E+02 -0.90256157742E+01 -0.39209311943E+02  0.90657717879E+02  0.80419002446E+02 0.  1.
          1    1    1    2  501    0 -0.79378671035E+01  0.33754613831E+02  0.55795858967E+01  0.35121438863E+02  0.00000000000E+00 0. -1.
         -2    1    1    2    0  503  0.19460626041E+02 -0.24728998057E+02 -0.10227808957E+03  0.10700956460E+03  0.00000000000E+00 0.  1.
<mgrwt>
<rscale>  2 0.73941810E+02</rscale>
<asrwt>0</asrwt>
<pdfrwt beam="1">  1       21 0.74523773E-02 0.73941810E+02</pdfrwt>
<pdfrwt beam="2">  1       21 0.28361272E-01 0.73941810E+02</pdfrwt>
<totfact> 0.15817426E+06</totfact>
</mgrwt>
</event>
<event>
 5    1  0.1590180E+000  0.1134342E+03  0.7546771E-02  0.1254339E+00
         21   -1    0    0  501  502  0.00000000000E+00  0.00000000000E+00  0.19000672715E+03  0.19000672715E+03  0.00000000000E+00 0.  1.
         21   -1    0    0  502  503 -0.00000000000E+00 -0.00000000000E+00 -0.15393690472E+03  0.15393690472E+03  0.00000000000E+00 0.  1.
         24    1    1    2    0    0  0.89441702271E+02 -0.38192523422E+02  0.89070586207E+02  0.15446446916E+03  0.80419002446E+02 0.  1.
          1    1    1    2  501    0 -0.67422486670E+02  0.40304775400E+02  0.43968140094E+02  0.90019242233E+02  0.00000000000E+00 0. -1.
         -2    1    1    2    0  503 -0.22019215600E+02 -0.21122519785E+01 -0.96968903869E+02  0.99459920478E+02  0.00000000000E+00 0.  1.
<mgrwt>
<rscale>  2 0.11343421E+03</rscale>
<asrwt>0</asrwt>
<pdfrwt beam="1">  1       21 0.29231804E-01 0.11343421E+03</pdfrwt>
<pdfrwt beam="2">  1       21 0.23682601E-01 0.11343421E+03</pdfrwt>
<totfact> 0.19241038E+05</totfact>
</mgrwt>
</event>
<event>
 5    1  0.1590180E+000  0.7427881E+02  0.7546771E-02  0.1346119E+00
         21   -1    0    0  501  502  0.00000000000E+00  0.00000000000E+00  0.11482069802E+04  0.11482069802E+04  0.00000000000E+00 0. -1.
         21   -1    0    0  502  503 -0.00000000000E+00 -0.00000000000E+00 -0.25347375525E+02  0.25347375525E+02  0.00000000000E+00 0. -1.
         24    1    1    2    0    0  0.13035426748E+00 -0.13950880657E+02  0.46796909497E+02  0.94084062180E+02  0.80419002446E+02 0. -1.
          1    1    1    2  501    0 -0.31883524787E+02  0.14848520119E+02  0.89152523718E+03  0.89221874349E+03  0.00000000000E+00 0. -1.
         -2    1    1    2    0  503  0.31753170519E+02 -0.89763946196E+00  0.18453745800E+03  0.18725155006E+03  0.00000000000E+00 0.  1.
<mgrwt>
<rscale>  2 0.74278810E+02</rscale>
<asrwt>0</asrwt>
<pdfrwt beam="1">  1       21 0.17664719E+00 0.74278810E+02</pdfrwt>
<pdfrwt beam="2">  1       21 0.38995971E-02 0.74278810E+02</pdfrwt>
<totfact> 0.85172414E+04</totfact>
</mgrwt>
</event>
<event>
 5    1  0.1590180E+000  0.6392773E+02  0.7546771E-02  0.1382051E+00
         21   -1    0    0  501  502  0.00000000000E+00  0.00000000000E+00  0.23406638534E+02  0.23406638534E+02  0.00000000000E+00 0.  1.
         21   -1    0    0  502  503 -0.00000000000E+00 -0.00000000000E+00 -0.46002523359E+03  0.46002523359E+03  0.00000000000E+00 0. -1.
         24    1    1    2    0    0 -0.44788509956E+01  0.15849307769E+02 -0.15380067043E+03  0.17433623502E+03  0.80419002446E+02 0.  1.
          1    1    1    2  501    0  0.23200266181E+02 -0.38157714649E+01  0.18262277538E+01  0.23582781231E+02  0.00000000000E+00 0. -1.
         -2    1    1    2    0  503 -0.18721415186E+02 -0.12033536304E+02 -0.28464415238E+03  0.28551285587E+03  0.00000000000E+00 0.  1.
<mgrwt>
<rscale>  2 0.63927733E+02</rscale>
<asrwt>0</asrwt>
<pdfrwt beam="1">  1       21 0.36010214E-02 0.63927733E+02</pdfrwt>
<pdfrwt beam="2">  1       21 0.70773111E-01 0.63927733E+02</pdfrwt>
<totfact> 0.84360021E+05</totfact>
</mgrwt>
</event>
<event>
 5    1  0.1590180E+000  0.7066895E+02  0.7546771E-02  0.1357833E+00
         21   -1    0    0  501  502  0.00000000000E+00  0.00000000000E+00  0.59615726306E+03  0.59615726306E+03  0.00000000000E+00 0.  1.
         21   -1    0    0  502  503 -0.00000000000E+00 -0.00000000000E+00 -0.94271174050E+01  0.94271174050E+01  0.00000000000E+00 0. -1.
         24    1    1    2    0    0  0.99152880781E+01 -0.27317701549E+02  0.40053209729E+03  0.40955798939E+03  0.80419002446E+02 0. -1.
          1    1    1    2  501    0 -0.28566799952E+02  0.96902508014E+01  0.13966688556E+03  0.14288737503E+03  0.00000000000E+00 0. -1.
         -2    1    1    2    0  503  0.18651511874E+02  0.17627450747E+02  0.46531162804E+02  0.53139016051E+02  0.00000000000E+00 0.  1.
<mgrwt>
<rscale>  2 0.70668946E+02</rscale>
<asrwt>0</asrwt>
<pdfrwt beam="1">  1       21 0.91716473E-01 0.70668946E+02</pdfrwt>
<pdfrwt beam="2">  1       21 0.14503262E-02 0.70668946E+02</pdfrwt>
<totfact> 0.20468087E+06</totfact>
</mgrwt>
</event>
<event>
 5    1  0.1590180E+000  0.8560115E+02  0.7546771E-02  0.1313868E+00
         21   -1    0    0  501  502  0.00000000000E+00  0.00000000000E+00  0.30132307417E+04  0.30132307417E+04  0.00000000000E+00 0. -1.
         21   -1    0    0  502  503 -0.00000000000E+00 -0.00000000000E+00 -0.35601660484E+02  0.35601660484E+02  0.00000000000E+00 0.  1.
         24    1    1    2    0    0 -0.13063137684E+02 -0.30250072331E+02  0.47391933486E+03  0.48182202560E+03  0.80419002446E+02 0.  1.
          1    1    1    2  501    0 -0.14628554446E+02  0.48812343215E+02  0.25262526266E+04  0.25267665054E+04  0.00000000000E+00 0. -1.
         -2    1    1    2    0  503  0.27691692131E+02 -0.18562270884E+02 -0.22542880278E+02  0.40243871144E+02  0.00000000000E+00 0.  1.
<mgrwt>
<rscale>  2 0.85601150E+02</rscale>
<asrwt>0</asrwt>
<pdfrwt beam="1">  1       21 0.46357376E+00 0.85601150E+02</pdfrwt>
<pdfrwt beam="2">  1       21 0.54771809E-02 0.85601150E+02</pdfrwt>
<totfact> 0.10075092E+03</totfact>
</mgrwt>
</event>
<event>
 5    1  0.1590180E+000  0.1061500E+03  0.7546771E-02  0.1267870E+00
         21   -1    0    0  503  502  0.00000000000E+00  0.00000000000E+00  0.28712513369E+03  0.28712513369E+03  0.00000000000E+00 0. -1.
         21   -1    0    0  501  503 -0.00000000000E+00 -0.00000000000E+00 -0.52127756836E+02  0.52127756836E+02  0.00000000000E+00 0.  1.
         24    1    1    2    0    0  0.12415560363E+02 -0.54992423637E+02  0.15965182995E+03  0.18744128563E+03  0.80419002446E+02 0.  1.
          1    1    1    2  501    0 -0.50601394742E+02  0.56532963136E+02  0.10572274746E+02  0.76604504202E+02  0.00000000000E+00 0. -1.
         -2    1    1    2    0  502  0.38185834379E+02 -0.15405394993E+01  0.64773272157E+02  0.75207100696E+02  0.00000000000E+00 0.  1.
<mgrwt>
<rscale>  2 0.10615000E+03</rscale>
<asrwt>0</asrwt>
<pdfrwt beam="1">  1       21 0.44173096E-01 0.10615000E+03</pdfrwt>
<pdfrwt beam="2">  1       21 0.80196551E-02 0.10615000E+03</pdfrwt>
<totfact> 0.59274192E+05</totfact>
</mgrwt>
</event>
<event>
 5    1  0.1590180E+000  0.7723275E+02  0.7546771E-02  0.1337093E+00
         21   -1    0    0  501  502  0.00000000000E+00  0.00000000000E+00  0.32098185123E+02  0.32098185123E+02  0.00000000000E+00 0. -1.
         21   -1    0    0  502  503 -0.00000000000E+00 -0.00000000000E+00 -0.38576354275E+03  0.38576354275E+03  0.00000000000E+00 0. -1.
         24    1    1    2    0    0  0.48356211994E+02  0.27175844910E+02 -0.51922345219E+02  0.11063451393E+03  0.80419002446E+02 0. -1.
          1    1    1    2  501    0 -0.27732226323E+02 -0.22282858729E+02 -0.15993845131E+03  0.16384721657E+03  0.00000000000E+00 0. -1.
         -2    1    1    2    0  503 -0.20623985670E+02 -0.48929861807E+01 -0.14180456110E+03  0.14337999738E+03  0.00000000000E+00 0.  1.
<mgrwt>
<rscale>  2 0.77232751E+02</rscale>
<asrwt>0</asrwt>
<pdfrwt beam="1">  1       21 0.49381821E-02 0.77232751E+02</pdfrwt>
<pdfrwt beam="2">  1       21 0.59348240E-01 0.77232751E+02</pdfrwt>
<totfact> 0.73138277E+05</totfact>
</mgrwt>
</event>
<event>
 5    1  0.1590180E+000  0.7302329E+02  0.7546771E-02  0.1350104E+00
         21   -1    0    0  503  502  0.00000000000E+00  0.00000000000E+00  0.11146938565E+03  0.11146938565E+03  0.00000000000E+00 0.  1.
         21   -1    0    0  501  503 -0.00000000000E+00 -0.00000000000E+00 -0.21495361160E+03  0.21495361160E+03  0.00000000000E+00 0. -1.
         24    1    1    2    0    0 -0.29626967768E+02 -0.52477974368E+01 -0.67986149308E+02  0.10951999383E+03  0.80419002446E+02 0.  0.
          1    1    1    2  501    0 -0.25171563521E+01  0.23219985828E+02 -0.12130184939E+03  0.12352992546E+03  0.00000000000E+00 0. -1.
         -2    1    1    2    0  502  0.32144124120E+02 -0.17972188391E+02  0.85803772741E+02  0.93373077960E+02  0.00000000000E+00 0.  1.
<mgrwt>
<rscale>  2 0.73023291E+02</rscale>
<asrwt>0</asrwt>
<pdfrwt beam="1">  1       21 0.17149136E-01 0.73023291E+02</pdfrwt>
<pdfrwt beam="2">  1       21 0.33069786E-01 0.73023291E+02</pdfrwt>
<totfact> 0.27716921E+05</totfact>
</mgrwt>
</event>
<event>
 5    1  0.1590180E+000  0.2095743E+03  0.7546771E-02  0.1141904E+00
         21   -1    0    0  503  502  0.00000000000E+00  0.00000000000E+00  0.99064736307E+03  0.99064736307E+03  0.00000000000E+00 0.  1.
         21   -1    0    0  501  503 -0.00000000000E+00 -0.00000000000E+00 -0.13132655300E+03  0.13132655300E+03  0.00000000000E+00 0. -1.
         24    1    1    2    0    0  0.37265257054E+02  0.97045702835E+02  0.25041130332E+03  0.28280665588E+03  0.80419002446E+02 0.  1.
          1    1    1    2  501    0  0.20631645330E+02  0.89783894898E+02 -0.80628550232E+02  0.12242457141E+03  0.00000000000E+00 0. -1.
         -2    1    1    2    0  502 -0.57896902383E+02 -0.18682959773E+03  0.68953805698E+03  0.71674268878E+03  0.00000000000E+00 0.  1.
<mgrwt>
<rscale>  2 0.20957426E+03</rscale>
<asrwt>0</asrwt>
<pdfrwt beam="1">  1       21 0.15240728E+00 0.20957426E+03</pdfrwt>
<pdfrwt beam="2">  1       21 0.20204086E-01 0.20957426E+03</pdfrwt>
<totfact> 0.64039815E+03</totfact>
</mgrwt>
</event>
<event>
 5    1  0.1590180E+000  0.8399091E+02  0.7546771E-02  0.1318093E+00
         21   -1    0    0  501  502  0.00000000000E+00  0.00000000000E+00  0.75151471070E+02  0.75151471070E+02  0.00000000000E+00 0. -1.
         21   -1    0    0  502  503 -0.00000000000E+00 -0.00000000000E+00 -0.11338708297E+03  0.11338708297E+03  0.00000000000E+00 0.  1.
         24    1    1    2    0    0  0.78858355313E+01  0.19514576699E+02 -0.22810238942E+02  0.86200510792E+02  0.80419002446E+02 0. -1.
          1    1    1    2  501    0  0.32682452978E+02 -0.28430206121E+02  0.20032482959E+02  0.47725462034E+02  0.00000000000E+00 0. -1.
         -2    1    1    2    0  503 -0.40568288510E+02  0.89156294224E+01 -0.35457855914E+02  0.54612581212E+02  0.00000000000E+00 0.  1.
<mgrwt>
<rscale>  2 0.83990910E+02</rscale>
<asrwt>0</asrwt>
<pdfrwt beam="1">  1       21 0.11561765E-01 0.83990910E+02</pdfrwt>
<pdfrwt beam="2">  1       21 0.17444167E-01 0.83990910E+02</pdfrwt>
<totfact> 0.18306407E+06</totfact>
</mgrwt>
</event>
<event>
 5    1  0.1590180E+000  0.1055521E+03  0.7546771E-02  0.1269036E+00
         21   -1    0    0  501  502  0.00000000000E+00  0.00000000000E+00  0.25449750345E+03  0.25449750345E+03  0.00000000000E+00 0. -1.
         21   -1    0    0  502  503 -0.00000000000E+00 -0.00000000000E+00 -0.90531859667E+02  0.90531859667E+02  0.00000000000E+00 0. -1.
         24    1    1    2    0    0 -0.36748048905E+02 -0.79391297166E+02 -0.34580105510E+02  0.12375943122E+03  0.80419002446E+02 0. -1.
          1    1    1    2  501    0  0.39248846450E+02  0.53983596273E+02  0.17173139914E+03  0.18424541803E+03  0.00000000000E+00 0. -1.
         -2    1    1    2    0  503 -0.25007975447E+01  0.25407700893E+02  0.26814350144E+02  0.37024513861E+02  0.00000000000E+00 0.  1.
<mgrwt>
<rscale>  2 0.10555210E+03</rscale>
<asrwt>0</asrwt>
<pdfrwt beam="1">  1       21 0.39153462E-01 0.10555210E+03</pdfrwt>
<pdfrwt beam="2">  1       21 0.13927979E-01 0.10555210E+03</pdfrwt>
<totfact> 0.28752092E+05</totfact>
</mgrwt>
</event>
<event>
 5    1  0.1590180E+000  0.1001500E+03  0.7546771E-02  0.1279981E+00
         21   -1    0    0  501  502  0.00000000000E+00  0.00000000000E+00  0.89521095757E+02  0.89521095757E+02  0.00000000000E+00 0.  1.
         21   -1    0    0  502  503 -0.00000000000E+00 -0.00000000000E+00 -0.13384951376E+03  0.13384951376E+03  0.00000000000E+00 0.  1.
         24    1    1    2    0    0 -0.19258734313E+01 -0.23567304003E+02 -0.47997813400E+02  0.96592612823E+02  0.80419002446E+02 0.  1.
          1    1    1    2  501    0 -0.23993856967E+02 -0.40662748767E+02  0.26132593942E+02  0.53963661622E+02  0.00000000000E+00 0. -1.
         -2    1    1    2    0  503  0.25919730399E+02  0.64230052771E+02 -0.22463198543E+02  0.72814335070E+02  0.00000000000E+00 0.  1.
<mgrwt>
<rscale>  2 0.10015004E+03</rscale>
<asrwt>0</asrwt>
<pdfrwt beam="1">  1       21 0.13772476E-01 0.10015004E+03</pdfrwt>
<pdfrwt beam="2">  1       21 0.20592233E-01 0.10015004E+03</pdfrwt>
<totfact> 0.99885488E+05</totfact>
</mgrwt>
</event>
<event>
 5    1  0.1590180E+000  0.9912541E+02  0.7546771E-02  0.1282146E+00
         21   -1    0    0  503  502  0.00000000000E+00  0.00000000000E+00  0.15982269010E+03  0.15982269010E+03  0.00000000000E+00 0. -1.
         21   -1    0    0  501  503 -0.00000000000E+00 -0.00000000000E+00 -0.11227445602E+03  0.11227445602E+03  0.00000000000E+00 0. -1.
         24    1    1    2    0    0  0.37790762293E+02  0.43652584290E+02 -0.65539725828E+02  0.11872809880E+03  0.80419002446E+02 0. -1.
          1    1    1    2  501    0 -0.17730017098E+02 -0.66513817012E+02  0.56214290172E+02  0.88873436860E+02  0.00000000000E+00 0. -1.
         -2    1    1    2    0  502 -0.20060745195E+02  0.22861232723E+02  0.56873669729E+02  0.64495610454E+02  0.00000000000E+00 0.  1.
<mgrwt>
<rscale>  2 0.99125408E+02</rscale>
<asrwt>0</asrwt>
<pdfrwt beam="1">  1       21 0.24588106E-01 0.99125408E+02</pdfrwt>
<pdfrwt beam="2">  1       21 0.17272993E-01 0.99125408E+02</pdfrwt>
<totfact> 0.47860095E+05</totfact>
</mgrwt>
</event>
<event>
 5    1  0.1590180E+000  0.7048660E+02  0.7546771E-02  0.1358446E+00
         21   -1    0    0  503  502  0.00000000000E+00  0.00000000000E+00  0.45931062208E+02  0.45931062208E+02  0.00000000000E+00 0. -1.
         21   -1    0    0  501  503 -0.00000000000E+00 -0.00000000000E+00 -0.12748435243E+03  0.12748435243E+03  0.00000000000E+00 0. -1.
         24    1    1    2    0    0 -0.56029399540E+01 -0.14319830101E+02 -0.13508379675E+02  0.82982785842E+02  0.80419002446E+02 0.  0.
          1    1    1    2  501    0  0.26150698199E+00 -0.22193643502E+02 -0.31166300742E+02  0.38261789029E+02  0.00000000000E+00 0. -1.
         -2    1    1    2    0  502  0.53414329720E+01  0.36513473603E+02 -0.36878609802E+02  0.52170839764E+02  0.00000000000E+00 0.  1.
<mgrwt>
<rscale>  2 0.70486600E+02</rscale>
<asrwt>0</asrwt>
<pdfrwt beam="1">  1       21 0.70663174E-02 0.70486600E+02</pdfrwt>
<pdfrwt beam="2">  1       21 0.19612977E-01 0.70486600E+02</pdfrwt>
<totfact> 0.34126207E+06</totfact>
</mgrwt>
</event>
<event>
 5    1  0.1590180E+000  0.6889030E+02  0.7546771E-02  0.1363908E+00
         21   -1    0    0  503  502  0.00000000000E+00  0.00000000000E+00  0.10924470961E+04  0.10924470961E+04  0.00000000000E+00 0.  1.
         21   -1    0    0  501  503 -0.00000000000E+00 -0.00000000000E+00 -0.19469015851E+02  0.19469015851E+02  0.00000000000E+00 0. -1.
         24    1    1    2    0    0  0.81345324457E+01  0.92146134999E+01  0.29304433449E+03  0.30412707484E+03  0.80419002446E+02 0.  1.
          1    1    1    2  501    0  0.23632103311E+02 -0.66905158573E+01 -0.25170719887E+01  0.24689571902E+02  0.00000000000E+00 0. -1.
         -2    1    1    2    0  502 -0.31766635756E+02 -0.25240976426E+01  0.78245081779E+03  0.78309946525E+03  0.00000000000E+00 0.  1.
<mgrwt>
<rscale>  2 0.68890298E+02</rscale>
<asrwt>0</asrwt>
<pdfrwt beam="1">  1       21 0.16806874E+00 0.68890298E+02</pdfrwt>
<pdfrwt beam="2">  1       21 0.29952341E-02 0.68890298E+02</pdfrwt>
<totfact> 0.14985293E+05</totfact>
</mgrwt>
</event>
<event>
 5    1  0.1590180E+000  0.1393162E+03  0.7546771E-02  0.1214252E+00
         21   -1    0    0  501  502  0.00000000000E+00  0.00000000000E+00  0.10671394283E+04  0.10671394283E+04  0.00000000000E+00 0. -1.
         21   -1    0    0  502  503 -0.00000000000E+00 -0.00000000000E+00 -0.15868587491E+03  0.15868587491E+03  0.00000000000E+00 0.  1.
         24    1    1    2    0    0  0.12445128172E+03  0.28169759216E+02  0.91013873250E+02  0.17616014854E+03  0.80419002446E+02 0.  0.
          1    1    1    2  501    0 -0.10314562854E+03 -0.26117614839E+02  0.92950449271E+03  0.93557455740E+03  0.00000000000E+00 0. -1.
         -2    1    1    2    0  503 -0.21305653183E+02 -0.20521443764E+01 -0.11206481260E+03  0.11409059723E+03  0.00000000000E+00 0.  1.
<mgrwt>
<rscale>  2 0.13931622E+03</rscale>
<asrwt>0</asrwt>
<pdfrwt beam="1">  1       21 0.16417529E+00 0.13931622E+03</pdfrwt>
<pdfrwt beam="2">  1       21 0.24413212E-01 0.13931622E+03</pdfrwt>
<totfact> 0.39240398E+03</totfact>
</mgrwt>
</event>
<event>
 5    1  0.1590180E+000  0.1367140E+03  0.7546771E-02  0.1217820E+00
         21   -1    0    0  503  502  0.00000000000E+00  0.00000000000E+00  0.25135576726E+03  0.25135576726E+03  0.00000000000E+00 0. -1.
         21   -1    0    0  501  503 -0.00000000000E+00 -0.00000000000E+00 -0.77690368205E+02  0.77690368205E+02  0.00000000000E+00 0.  1.
         24    1    1    2    0    0 -0.65964753143E+02 -0.10343882509E+03  0.12532529693E+03  0.19293673885E+03  0.80419002446E+02 0.  1.
          1    1    1    2  501    0  0.29207865033E+02  0.74289972140E+02  0.36212514595E+02  0.87655265407E+02  0.00000000000E+00 0. -1.
         -2    1    1    2    0  502  0.36756888110E+02  0.29148852947E+02  0.12127587526E+02  0.48454131205E+02  0.00000000000E+00 0.  1.
<mgrwt>
<rscale>  2 0.13671399E+03</rscale>
<asrwt>0</asrwt>
<pdfrwt beam="1">  1       21 0.38670118E-01 0.13671399E+03</pdfrwt>
<pdfrwt beam="2">  1       21 0.11952364E-01 0.13671399E+03</pdfrwt>
<totfact> 0.38488194E+05</totfact>
</mgrwt>
</event>
<event>
 5    1  0.1590180E+000  0.9280693E+02  0.7546771E-02  0.1296193E+00
         21   -1    0    0  503  502  0.00000000000E+00  0.00000000000E+00  0.17990687279E+04  0.17990687279E+04  0.00000000000E+00 0.  1.
         21   -1    0    0  501  503 -0.00000000000E+00 -0.00000000000E+00 -0.13540198247E+02  0.13540198247E+02  0.00000000000E+00 0. -1.
         24    1    1    2    0    0 -0.32249684716E+02  0.14265930733E+02  0.36990217032E+03  0.38018204916E+03  0.80419002446E+02 0.  0.
          1    1    1    2  501    0  0.51513473954E+02  0.22564507185E+02  0.89849964729E+02  0.10599910917E+03  0.00000000000E+00 0. -1.
         -2    1    1    2    0  502 -0.19263789238E+02 -0.36830437918E+02  0.13257763946E+04  0.13264277678E+04  0.00000000000E+00 0.  1.
<mgrwt>
<rscale>  2 0.92806927E+02</rscale>
<asrwt>0</asrwt>
<pdfrwt beam="1">  1       21 0.27677961E+00 0.92806927E+02</pdfrwt>
<pdfrwt beam="2">  1       21 0.20831088E-02 0.92806927E+02</pdfrwt>
<totfact> 0.59500176E+04</totfact>
</mgrwt>
</event>
<event>
 5    1  0.1590180E+000  0.8565186E+02  0.7546771E-02  0.1313737E+00
         21   -1    0    0  503  502  0.00000000000E+00  0.00000000000E+00  0.10469419164E+03  0.10469419164E+03  0.00000000000E+00 0.  1.
         21   -1    0    0  501  503 -0.00000000000E+00 -0.00000000000E+00 -0.81850539084E+02  0.81850539084E+02  0.00000000000E+00 0. -1.
         24    1    1    2    0    0 -0.47419055808E+02  0.42879906642E+01  0.30707171248E+01  0.93507213495E+02  0.80419002446E+02 0. -1.
          1    1    1    2  501    0  0.51134514539E+02 -0.24919610766E+02 -0.88406393293E+01  0.57566331146E+02  0.00000000000E+00 0. -1.
         -2    1    1    2    0  502 -0.37154587315E+01  0.20631620102E+02  0.28613574765E+02  0.35471186087E+02  0.00000000000E+00 0.  1.
<mgrwt>
<rscale>  2 0.85651860E+02</rscale>
<asrwt>0</asrwt>
<pdfrwt beam="1">  1       21 0.16106799E-01 0.85651860E+02</pdfrwt>
<pdfrwt beam="2">  1       21 0.12592391E-01 0.85651860E+02</pdfrwt>
<totfact> 0.18207922E+06</totfact>
</mgrwt>
</event>
<event>
 5    1  0.1590180E+000  0.1153712E+03  0.7546771E-02  0.1250935E+00
         21   -1    0    0  503  502  0.00000000000E+00  0.00000000000E+00  0.10687476911E+04  0.10687476911E+04  0.00000000000E+00 0.  1.
         21   -1    0    0  501  503 -0.00000000000E+00 -0.00000000000E+00 -0.23779527993E+02  0.23779527993E+02  0.00000000000E+00 0. -1.
         24    1    1    2    0    0 -0.23347612579E+02 -0.34943643060E+02  0.30924608072E+03  0.32228329712E+03  0.80419002446E+02 0.  1.
          1    1    1    2  501    0  0.66966168226E+02 -0.19965188617E+02  0.63645987397E+02  0.94519247538E+02  0.00000000000E+00 0. -1.
         -2    1    1    2    0  502 -0.43618555647E+02  0.54908831677E+02  0.67207609495E+03  0.67572467440E+03  0.00000000000E+00 0.  1.
<mgrwt>
<rscale>  2 0.11537116E+03</rscale>
<asrwt>0</asrwt>
<pdfrwt beam="1">  1       21 0.16442268E+00 0.11537116E+03</pdfrwt>
<pdfrwt beam="2">  1       21 0.36583897E-02 0.11537116E+03</pdfrwt>
<totfact> 0.11081923E+05</totfact>
</mgrwt>
</event>
<event>
 5    1  0.1590180E+000  0.6534520E+02  0.7546771E-02  0.1376678E+00
         21   -1    0    0  503  502  0.00000000000E+00  0.00000000000E+00  0.13249757108E+03  0.13249757108E+03  0.00000000000E+00 0. -1.
         21   -1    0    0  501  503 -0.00000000000E+00 -0.00000000000E+00 -0.36790834093E+02  0.36790834093E+02  0.00000000000E+00 0.  1.
         24    1    1    2    0    0  0.34252296972E+01 -0.33038284059E+00  0.58789075449E+02  0.99675537108E+02  0.80419002446E+02 0.  0.
          1    1    1    2  501    0 -0.17066106490E+02  0.19980661811E+02  0.79636495305E+00  0.26289028781E+02  0.00000000000E+00 0. -1.
         -2    1    1    2    0  502  0.13640876793E+02 -0.19650278971E+02  0.36121296583E+02  0.43323839282E+02  0.00000000000E+00 0.  1.
<mgrwt>
<rscale>  2 0.65345202E+02</rscale>
<asrwt>0</asrwt>
<pdfrwt beam="1">  1       21 0.20384241E-01 0.65345202E+02</pdfrwt>
<pdfrwt beam="2">  1       21 0.56601284E-02 0.65345202E+02</pdfrwt>
<totfact> 0.45862141E+06</totfact>
</mgrwt>
</event>
<event>
 5    1  0.1590180E+000  0.7088498E+02  0.7546771E-02  0.1357109E+00
         21   -1    0    0  503  502  0.00000000000E+00  0.00000000000E+00  0.37517467760E+03  0.37517467760E+03  0.00000000000E+00 0. -1.
         21   -1    0    0  501  503 -0.00000000000E+00 -0.00000000000E+00 -0.18967215280E+02  0.18967215280E+02  0.00000000000E+00 0.  1.
         24    1    1    2    0    0  0.12429415081E+02 -0.12903792507E+02  0.18540601085E+03  0.20288815400E+03  0.80419002446E+02 0. -1.
          1    1    1    2  501    0 -0.15205387622E+02 -0.20686999832E+02  0.10991215270E+02  0.27927810295E+02  0.00000000000E+00 0. -1.
         -2    1    1    2    0  502  0.27759725407E+01  0.33590792338E+02  0.15981023620E+03  0.16332592858E+03  0.00000000000E+00 0.  1.
<mgrwt>
<rscale>  2 0.70884975E+02</rscale>
<asrwt>0</asrwt>
<pdfrwt beam="1">  1       21 0.57719176E-01 0.70884975E+02</pdfrwt>
<pdfrwt beam="2">  1       21 0.29180334E-02 0.70884975E+02</pdfrwt>
<totfact> 0.18265333E+06</totfact>
</mgrwt>
</event>
<event>
 5    1  0.1590180E+000  0.7588255E+02  0.7546771E-02  0.1341160E+00
         21   -1    0    0  501  502  0.00000000000E+00  0.00000000000E+00  0.60477649669E+02  0.60477649669E+02  0.00000000000E+00 0.  1.
         21   -1    0    0  502  503 -0.00000000000E+00 -0.00000000000E+00 -0.19960334863E+03  0.19960334863E+03  0.00000000000E+00 0.  1.
         24    1    1    2    0    0  0.37518406043E+02 -0.17163470161E+02  0.86635950171E+01  0.90799170332E+02  0.80419002446E+02 0.  1.
          1    1    1    2  501    0 -0.34006084993E+02 -0.88434477056E+01 -0.23545445506E+02  0.42296671121E+02  0.00000000000E+00 0. -1.
         -2    1    1    2    0  503 -0.35123210500E+01  0.26006917866E+02 -0.12424384848E+03  0.12698515685E+03  0.00000000000E+00 0.  1.
<mgrwt>
<rscale>  2 0.75882547E+02</rscale>
<asrwt>0</asrwt>
<pdfrwt beam="1">  1       21 0.93042537E-02 0.75882547E+02</pdfrwt>
<pdfrwt beam="2">  1       21 0.30708208E-01 0.75882547E+02</pdfrwt>
<totfact> 0.93297703E+05</totfact>
</mgrwt>
</event>
<event>
 5    1  0.1590180E+000  0.8101785E+02  0.7546771E-02  0.1326187E+00
         21   -1    0    0  503  502  0.00000000000E+00  0.00000000000E+00  0.12666289156E+03  0.12666289156E+03  0.00000000000E+00 0.  1.
         21   -1    0    0  501  503 -0.00000000000E+00 -0.00000000000E+00 -0.12410687170E+04  0.12410687170E+04  0.00000000000E+00 0. -1.
         24    1    1    2    0    0  0.29270228555E+01 -0.41215648946E+02 -0.31993920618E+03  0.33246895913E+03  0.80419002446E+02 0. -1.
          1    1    1    2  501    0 -0.23453250743E+02  0.45005166779E+02 -0.91325013110E+03  0.91465912884E+03  0.00000000000E+00 0. -1.
         -2    1    1    2    0  502  0.20526227888E+02 -0.37895178334E+01  0.11878351188E+03  0.12060352056E+03  0.00000000000E+00 0.  1.
<mgrwt>
<rscale>  2 0.81017850E+02</rscale>
<asrwt>0</asrwt>
<pdfrwt beam="1">  1       21 0.19486598E-01 0.81017850E+02</pdfrwt>
<pdfrwt beam="2">  1       21 0.19093366E+00 0.81017850E+02</pdfrwt>
<totfact> 0.43169268E+03</totfact>
</mgrwt>
</event>
<event>
 5    1  0.1590180E+000  0.8532868E+02  0.7546771E-02  0.1314575E+00
         21   -1    0    0  503  502  0.00000000000E+00  0.00000000000E+00  0.47083163906E+02  0.47083163906E+02  0.00000000000E+00 0.  1.
         21   -1    0    0  501  503 -0.00000000000E+00 -0.00000000000E+00 -0.16097228461E+03  0.16097228461E+03  0.00000000000E+00 0. -1.
         24    1    1    2    0    0 -0.13632110391E+02  0.11778633413E+02 -0.74233254413E+02  0.11091601622E+03  0.80419002446E+02 0. -1.
          1    1    1    2  501    0  0.24920538183E+02  0.33402847450E+02 -0.23515377387E+02  0.47851399298E+02  0.00000000000E+00 0. -1.
         -2    1    1    2    0  502 -0.11288427793E+02 -0.45181480863E+02 -0.16140488906E+02  0.49288033001E+02  0.00000000000E+00 0.  1.
<mgrwt>
<rscale>  2 0.85328676E+02</rscale>
<asrwt>0</asrwt>
<pdfrwt beam="1">  1       21 0.72435636E-02 0.85328676E+02</pdfrwt>
<pdfrwt beam="2">  1       21 0.24764967E-01 0.85328676E+02</pdfrwt>
<totfact> 0.21528540E+06</totfact>
</mgrwt>
</event>
<event>
 5    1  0.1590180E+000  0.6890024E+02  0.7546771E-02  0.1363873E+00
         21   -1    0    0  503  502  0.00000000000E+00  0.00000000000E+00  0.94905313355E+02  0.94905313355E+02  0.00000000000E+00 0.  1.
         21   -1    0    0  501  503 -0.00000000000E+00 -0.00000000000E+00 -0.73767436421E+02  0.73767436421E+02  0.00000000000E+00 0.  1.
         24    1    1    2    0    0 -0.13259028894E+02  0.12331449276E+02  0.10968082780E+01  0.82439586554E+02  0.80419002446E+02 0.  1.
          1    1    1    2  501    0  0.28726397576E+02  0.80022993582E+01 -0.21986762238E+02  0.37049432201E+02  0.00000000000E+00 0. -1.
         -2    1    1    2    0  502 -0.15467368682E+02 -0.20333748634E+02  0.42027830894E+02  0.49183731021E+02  0.00000000000E+00 0.  1.
<mgrwt>
<rscale>  2 0.68900237E+02</rscale>
<asrwt>0</asrwt>
<pdfrwt beam="1">  1       21 0.14600817E-01 0.68900237E+02</pdfrwt>
<pdfrwt beam="2">  1       21 0.11348836E-01 0.68900237E+02</pdfrwt>
<totfact> 0.25729035E+06</totfact>
</mgrwt>
</event>
<event>
 5    1  0.1590180E+000  0.8186074E+02  0.7546771E-02  0.1323852E+00
         21   -1    0    0  501  502  0.00000000000E+00  0.00000000000E+00  0.48519687778E+02  0.48519687778E+02  0.00000000000E+00 0. -1.
         21   -1    0    0  502  503 -0.00000000000E+00 -0.00000000000E+00 -0.16639671667E+03  0.16639671667E+03  0.00000000000E+00 0.  1.
         24    1    1    2    0    0 -0.13459076176E+02 -0.19156058369E+02 -0.29155312922E+02  0.88686805838E+02  0.80419002446E+02 0. -1.
          1    1    1    2  501    0 -0.20402051424E+02  0.36578530392E+02 -0.17351132287E+02  0.45335354632E+02  0.00000000000E+00 0. -1.
         -2    1    1    2    0  503  0.33861127600E+02 -0.17422472022E+02 -0.71370583683E+02  0.80894243979E+02  0.00000000000E+00 0.  1.
<mgrwt>
<rscale>  2 0.81860736E+02</rscale>
<asrwt>0</asrwt>
<pdfrwt beam="1">  1       21 0.74645676E-02 0.81860736E+02</pdfrwt>
<pdfrwt beam="2">  1       21 0.25599494E-01 0.81860736E+02</pdfrwt>
<totfact> 0.19196864E+06</totfact>
</mgrwt>
</event>
<event>
 5    1  0.1590180E+000  0.1047750E+03  0.7546771E-02  0.1270563E+00
         21   -1    0    0  501  502  0.00000000000E+00  0.00000000000E+00  0.24609606215E+02  0.24609606215E+02  0.00000000000E+00 0.  1.
         21   -1    0    0  502  503 -0.00000000000E+00 -0.00000000000E+00 -0.10703025517E+04  0.10703025517E+04  0.00000000000E+00 0. -1.
         24    1    1    2    0    0 -0.34637528188E+01 -0.55381824644E+02 -0.14467598712E+03  0.17457806646E+03  0.80419002446E+02 0.  1.
          1    1    1    2  501    0  0.11297726391E+02  0.82678093613E+02 -0.17619847356E+03  0.19495950315E+03  0.00000000000E+00 0. -1.
         -2    1    1    2    0  503 -0.78339735725E+01 -0.27296268969E+02 -0.72481848485E+03  0.72537458835E+03  0.00000000000E+00 0.  1.
<mgrwt>
<rscale>  2 0.10477505E+03</rscale>
<asrwt>0</asrwt>
<pdfrwt beam="1">  1       21 0.37860944E-02 0.10477505E+03</pdfrwt>
<pdfrwt beam="2">  1       21 0.16466188E+00 0.10477505E+03</pdfrwt>
<totfact> 0.10504418E+05</totfact>
</mgrwt>
</event>
<event>
 5    1  0.1590180E+000  0.8856280E+02  0.7546771E-02  0.1306370E+00
         21   -1    0    0  501  502  0.00000000000E+00  0.00000000000E+00  0.99371301362E+02  0.99371301362E+02  0.00000000000E+00 0.  1.
         21   -1    0    0  502  503 -0.00000000000E+00 -0.00000000000E+00 -0.10588578445E+03  0.10588578445E+03  0.00000000000E+00 0.  1.
         24    1    1    2    0    0  0.47133087773E+02  0.52089153002E+02  0.39325953260E+02  0.11379171489E+03  0.80419002446E+02 0.  1.
          1    1    1    2  501    0 -0.16677191656E+02 -0.21107453543E+02  0.18363466458E+01  0.26963410126E+02  0.00000000000E+00 0. -1.
         -2    1    1    2    0  503 -0.30455896117E+02 -0.30981699459E+02 -0.47676782993E+02  0.64501960794E+02  0.00000000000E+00 0.  1.
<mgrwt>
<rscale>  2 0.88562798E+02</rscale>
<asrwt>0</asrwt>
<pdfrwt beam="1">  1       21 0.15287892E-01 0.88562798E+02</pdfrwt>
<pdfrwt beam="2">  1       21 0.16290121E-01 0.88562798E+02</pdfrwt>
<totfact> 0.12665322E+06</totfact>
</mgrwt>
</event>
<event>
 5    1  0.1590180E+000  0.6326900E+02  0.7546771E-02  0.1384604E+00
         21   -1    0    0  503  502  0.00000000000E+00  0.00000000000E+00  0.14172189513E+02  0.14172189513E+02  0.00000000000E+00 0. -1.
         21   -1    0    0  501  503 -0.00000000000E+00 -0.00000000000E+00 -0.86604283347E+03  0.86604283347E+03  0.00000000000E+00 0.  1.
         24    1    1    2    0    0  0.15843259194E+02  0.24071982425E+02 -0.65266138345E+03  0.65822835445E+03  0.80419002446E+02 0.  1.
          1    1    1    2  501    0  0.41912380182E+01 -0.20296060873E+02 -0.20049093664E+03  0.20155920281E+03  0.00000000000E+00 0. -1.
         -2    1    1    2    0  502 -0.20034497212E+02 -0.37759215526E+01  0.12816761342E+01  0.20427465722E+02  0.00000000000E+00 0.  1.
<mgrwt>
<rscale>  2 0.63269003E+02</rscale>
<asrwt>0</asrwt>
<pdfrwt beam="1">  1       21 0.21803376E-02 0.63269003E+02</pdfrwt>
<pdfrwt beam="2">  1       21 0.13323731E+00 0.63269003E+02</pdfrwt>
<totfact> 0.44814644E+05</totfact>
</mgrwt>
</event>
<event>
 5    1  0.1590180E+000  0.8720853E+02  0.7546771E-02  0.1309756E+00
         21   -1    0    0  503  502  0.00000000000E+00  0.00000000000E+00  0.80883121728E+03  0.80883121728E+03  0.00000000000E+00 0. -1.
         21   -1    0    0  501  503 -0.00000000000E+00 -0.00000000000E+00 -0.12321176977E+02  0.12321176977E+02  0.00000000000E+00 0. -1.
         24    1    1    2    0    0  0.40064987961E+02 -0.42841626739E+02  0.55271391273E+03  0.56160528267E+03  0.80419002446E+02 0. -1.
          1    1    1    2  501    0 -0.48591654628E+02  0.23994942514E+02  0.95416172525E+02  0.10973218373E+03  0.00000000000E+00 0. -1.
         -2    1    1    2    0  502  0.85266666676E+01  0.18846684225E+02  0.14837995504E+03  0.14981492786E+03  0.00000000000E+00 0.  1.
<mgrwt>
<rscale>  2 0.87208533E+02</rscale>
<asrwt>0</asrwt>
<pdfrwt beam="1">  1       21 0.12443553E+00 0.87208533E+02</pdfrwt>
<pdfrwt beam="2">  1       21 0.18955663E-02 0.87208533E+02</pdfrwt>
<totfact> 0.65915488E+05</totfact>
</mgrwt>
</event>
<event>
 5    1  0.1590180E+000  0.1012297E+03  0.7546771E-02  0.1277731E+00
         21   -1    0    0  501  502  0.00000000000E+00  0.00000000000E+00  0.16761033199E+02  0.16761033199E+02  0.00000000000E+00 0. -1.
         21   -1    0    0  502  503 -0.00000000000E+00 -0.00000000000E+00 -0.12722201504E+04  0.12722201504E+04  0.00000000000E+00 0. -1.
         24    1    1    2    0    0 -0.37013090510E+02  0.22919385228E+02 -0.82567273575E+03  0.83072134293E+03  0.80419002446E+02 0. -1.
          1    1    1    2  501    0 -0.25036976698E+02 -0.39517473930E+02 -0.35369637575E+02  0.58647184163E+02  0.00000000000E+00 0. -1.
         -2    1    1    2    0  503  0.62050067209E+02  0.16598088702E+02 -0.39441674392E+03  0.39961265655E+03  0.00000000000E+00 0.  1.
<mgrwt>
<rscale>  2 0.10122974E+03</rscale>
<asrwt>0</asrwt>
<pdfrwt beam="1">  1       21 0.25786200E-02 0.10122974E+03</pdfrwt>
<pdfrwt beam="2">  1       21 0.19572622E+00 0.10122974E+03</pdfrwt>
<totfact> 0.12300435E+05</totfact>
</mgrwt>
</event>
<event>
 5    1  0.1590180E+000  0.9536541E+02  0.7546771E-02  0.1290355E+00
         21   -1    0    0  501  502  0.00000000000E+00  0.00000000000E+00  0.74896230377E+02  0.74896230377E+02  0.00000000000E+00 0. -1.
         21   -1    0    0  502  503 -0.00000000000E+00 -0.00000000000E+00 -0.29300671101E+03  0.29300671101E+03  0.00000000000E+00 0. -1.
         24    1    1    2    0    0 -0.20907364940E+02  0.75525839218E+02 -0.18911730110E+03  0.21994053703E+03  0.80419002446E+02 0. -1.
          1    1    1    2  501    0  0.14974977223E+02 -0.47839073502E+02  0.45854923907E+02  0.67937478190E+02  0.00000000000E+00 0. -1.
         -2    1    1    2    0  503  0.59323877171E+01 -0.27686765717E+02 -0.74848103442E+02  0.80024926172E+02  0.00000000000E+00 0.  1.
<mgrwt>
<rscale>  2 0.95365408E+02</rscale>
<asrwt>0</asrwt>
<pdfrwt beam="1">  1       21 0.11522497E-01 0.95365408E+02</pdfrwt>
<pdfrwt beam="2">  1       21 0.45077956E-01 0.95365408E+02</pdfrwt>
<totfact> 0.30388334E+05</totfact>
</mgrwt>
</event>
<event>
 5    1  0.1590180E+000  0.1124642E+03  0.7546771E-02  0.1256074E+00
         21   -1    0    0  501  502  0.00000000000E+00  0.00000000000E+00  0.39462914478E+03  0.39462914478E+03  0.00000000000E+00 0.  1.
         21   -1    0    0  502  503 -0.00000000000E+00 -0.00000000000E+00 -0.60862233979E+02  0.60862233979E+02  0.00000000000E+00 0. -1.
         24    1    1    2    0    0  0.68558784288E+02 -0.39201567096E+02  0.29174561536E+03  0.31276155423E+03  0.80419002446E+02 0.  1.
          1    1    1    2  501    0 -0.85044435047E+02  0.20883476298E+02  0.64981796848E+02  0.10904728074E+03  0.00000000000E+00 0. -1.
         -2    1    1    2    0  503  0.16485650759E+02  0.18318090798E+02 -0.22960501409E+02  0.33682543793E+02  0.00000000000E+00 0.  1.
<mgrwt>
<rscale>  2 0.11246416E+03</rscale>
<asrwt>0</asrwt>
<pdfrwt beam="1">  1       21 0.60712174E-01 0.11246416E+03</pdfrwt>
<pdfrwt beam="2">  1       21 0.93634209E-02 0.11246416E+03</pdfrwt>
<totfact> 0.23504183E+05</totfact>
</mgrwt>
</event>
<event>
 5    1  0.1590180E+000  0.9635252E+02  0.7546771E-02  0.1288159E+00
         21   -1    0    0  503  502  0.00000000000E+00  0.00000000000E+00  0.27725590821E+02  0.27725590821E+02  0.00000000000E+00 0. -1.
         21   -1    0    0  501  503 -0.00000000000E+00 -0.00000000000E+00 -0.11195681357E+04  0.11195681357E+04  0.00000000000E+00 0. -1.
         24    1    1    2    0    0 -0.10453344228E+02 -0.14833873795E+02 -0.17882292784E+03  0.19691158344E+03  0.80419002446E+02 0. -1.
          1    1    1    2  501    0  0.36329905011E+02 -0.37295463729E+02 -0.88366888577E+03  0.88520139702E+03  0.00000000000E+00 0. -1.
         -2    1    1    2    0  502 -0.25876560782E+02  0.52129337524E+02 -0.29350731239E+02  0.65180746029E+02  0.00000000000E+00 0.  1.
<mgrwt>
<rscale>  2 0.96352524E+02</rscale>
<asrwt>0</asrwt>
<pdfrwt beam="1">  1       21 0.42654766E-02 0.96352524E+02</pdfrwt>
<pdfrwt beam="2">  1       21 0.17224121E+00 0.96352524E+02</pdfrwt>
<totfact> 0.77029461E+04</totfact>
</mgrwt>
</event>
<event>
 5    1  0.1590180E+000  0.1004779E+03  0.7546771E-02  0.1279294E+00
         21   -1    0    0  503  502  0.00000000000E+00  0.00000000000E+00  0.28260409044E+02  0.28260409044E+02  0.00000000000E+00 0.  1.
         21   -1    0    0  501  503 -0.00000000000E+00 -0.00000000000E+00 -0.10583041021E+04  0.10583041021E+04  0.00000000000E+00 0. -1.
         24    1    1    2    0    0 -0.72570003326E+02  0.17933848183E+02 -0.24471543277E+03  0.26821798464E+03  0.80419002446E+02 0.  1.
          1    1    1    2  501    0  0.57131313538E+02  0.11171016223E+02 -0.78316922391E+03  0.78532974722E+03  0.00000000000E+00 0. -1.
         -2    1    1    2    0  502  0.15438689789E+02 -0.29104864406E+02 -0.21590363476E+01  0.33016779256E+02  0.00000000000E+00 0.  1.
<mgrwt>
<rscale>  2 0.10047785E+03</rscale>
<asrwt>0</asrwt>
<pdfrwt beam="1">  1       21 0.43477555E-02 0.10047785E+03</pdfrwt>
<pdfrwt beam="2">  1       21 0.16281601E+00 0.10047785E+03</pdfrwt>
<totfact> 0.86368931E+04</totfact>
</mgrwt>
</event>
<event>
 5    1  0.1590180E+000  0.7271334E+02  0.7546771E-02  0.1351102E+00
         21   -1    0    0  501  502  0.00000000000E+00  0.00000000000E+00  0.24652283771E+02  0.24652283771E+02  0.00000000000E+00 0. -1.
         21   -1    0    0  502  503 -0.00000000000E+00 -0.00000000000E+00 -0.30288439547E+03  0.30288439547E+03  0.00000000000E+00 0. -1.
         24    1    1    2    0    0  0.29753718632E+02 -0.27383839582E+02 -0.12699312815E+03  0.15565869393E+03  0.80419002446E+02 0. -1.
          1    1    1    2  501    0 -0.32566638821E+01  0.28699604018E+02 -0.13999230112E+02  0.32097532213E+02  0.00000000000E+00 0. -1.
         -2    1    1    2    0  503 -0.26497054750E+02 -0.13157644355E+01 -0.13723975344E+03  0.13978045310E+03  0.00000000000E+00 0.  1.
<mgrwt>
<rscale>  2 0.72713340E+02</rscale>
<asrwt>0</asrwt>
<pdfrwt beam="1">  1       21 0.37926594E-02 0.72713340E+02</pdfrwt>
<pdfrwt beam="2">  1       21 0.46597595E-01 0.72713340E+02</pdfrwt>
<totfact> 0.18486459E+06</totfact>
</mgrwt>
</event>
<event>
 5    1  0.1745768E+000  0.1149836E+03  0.7546771E-02  0.1251610E+00
         21   -1    0    0  503  502  0.00000000000E+00  0.00000000000E+00  0.44722574526E+03  0.44722574526E+03  0.00000000000E+00 0. -1.
         21   -1    0    0  501  503 -0.00000000000E+00 -0.00000000000E+00 -0.12278411878E+03  0.12278411878E+03  0.00000000000E+00 0. -1.
         24    1    1    2    0    0  0.16961063008E+02  0.79448659896E+02  0.29287949671E+03  0.31439685553E+03  0.80419002446E+02 0. -1.
          1    1    1    2  501    0 -0.44007668357E+02 -0.76754847145E+02 -0.92857266766E+02  0.12825932101E+03  0.00000000000E+00 0. -1.
         -2    1    1    2    0  502  0.27046605349E+02 -0.26938127511E+01  0.12441939654E+03  0.12735368751E+03  0.00000000000E+00 0.  1.
<mgrwt>
<rscale>  2 0.11498361E+03</rscale>
<asrwt>0</asrwt>
<pdfrwt beam="1">  1       21 0.68803960E-01 0.11498361E+03</pdfrwt>
<pdfrwt beam="2">  1       21 0.18889865E-01 0.11498361E+03</pdfrwt>
<totfact> 0.51446002E+04</totfact>
</mgrwt>
</event>
<event>
 5    1  0.1590180E+000  0.9360980E+02  0.7546771E-02  0.1294338E+00
         21   -1    0    0  503  502  0.00000000000E+00  0.00000000000E+00  0.29088261357E+02  0.29088261357E+02  0.00000000000E+00 0. -1.
         21   -1    0    0  501  503 -0.00000000000E+00 -0.00000000000E+00 -0.85823363218E+03  0.85823363218E+03  0.00000000000E+00 0. -1.
         24    1    1    2    0    0  0.15995588735E+02  0.74488473109E+02 -0.16065256903E+03  0.19514316635E+03  0.80419002446E+02 0. -1.
          1    1    1    2  501    0 -0.13343073208E+02 -0.47958260506E+02 -0.66311305827E+03  0.66497891726E+03  0.00000000000E+00 0. -1.
         -2    1    1    2    0  502 -0.26525155272E+01 -0.26530212604E+02 -0.53797435261E+01  0.27199809923E+02  0.00000000000E+00 0.  1.
<mgrwt>
<rscale>  2 0.93609805E+02</rscale>
<asrwt>0</asrwt>
<pdfrwt beam="1">  1       21 0.44751171E-02 0.93609805E+02</pdfrwt>
<pdfrwt beam="2">  1       21 0.13203594E+00 0.93609805E+02</pdfrwt>
<totfact> 0.14096779E+05</totfact>
</mgrwt>
</event>
<event>
 5    1  0.1590180E+000  0.9122146E+02  0.7546771E-02  0.1299920E+00
         21   -1    0    0  501  502  0.00000000000E+00  0.00000000000E+00  0.21637738078E+04  0.21637738078E+04  0.00000000000E+00 0. -1.
         21   -1    0    0  502  503 -0.00000000000E+00 -0.00000000000E+00 -0.12429030329E+02  0.12429030329E+02  0.00000000000E+00 0.  1.
         24    1    1    2    0    0  0.36312649355E+02 -0.22569439800E+02  0.19629135306E+04  0.19650253771E+04  0.80419002446E+02 0. -1.
          1    1    1    2  501    0 -0.53726420094E+02 -0.97960321105E+01  0.14076363816E+03  0.15098639769E+03  0.00000000000E+00 0. -1.
         -2    1    1    2    0  503  0.17413770739E+02  0.32365471910E+02  0.47667608698E+02  0.60191063309E+02  0.00000000000E+00 0.  1.
<mgrwt>
<rscale>  2 0.91221462E+02</rscale>
<asrwt>0</asrwt>
<pdfrwt beam="1">  1       21 0.33288798E+00 0.91221462E+02</pdfrwt>
<pdfrwt beam="2">  1       21 0.19121602E-02 0.91221462E+02</pdfrwt>
<totfact> 0.33591020E+04</totfact>
</mgrwt>
</event>
<event>
 5    1  0.1590180E+000  0.1166223E+03  0.7546771E-02  0.1248776E+00
         21   -1    0    0  501  502  0.00000000000E+00  0.00000000000E+00  0.62298674709E+02  0.62298674709E+02  0.00000000000E+00 0.  1.
         21   -1    0    0  502  503 -0.00000000000E+00 -0.00000000000E+00 -0.24770232297E+03  0.24770232297E+03  0.00000000000E+00 0.  1.
         24    1    1    2    0    0  0.33289702715E+02 -0.80877902691E+02 -0.66716619699E+02  0.13626357822E+03  0.80419002446E+02 0.  0.
          1    1    1    2  501    0  0.21966391542E+02  0.89276975390E+01  0.78621629001E+00  0.23724339333E+02  0.00000000000E+00 0. -1.
         -2    1    1    2    0  503 -0.55256094257E+02  0.71950205152E+02 -0.11947324485E+03  0.15001308013E+03  0.00000000000E+00 0.  1.
<mgrwt>
<rscale>  2 0.11662228E+03</rscale>
<asrwt>0</asrwt>
<pdfrwt beam="1">  1       21 0.95844113E-02 0.11662228E+03</pdfrwt>
<pdfrwt beam="2">  1       21 0.38108050E-01 0.11662228E+03</pdfrwt>
<totfact> 0.58499585E+05</totfact>
</mgrwt>
</event>
<event>
 5    1  0.1590180E+000  0.7944641E+02  0.7546771E-02  0.1330630E+00
         21   -1    0    0  503  502  0.00000000000E+00  0.00000000000E+00  0.84758473007E+03  0.84758473007E+03  0.00000000000E+00 0.  1.
         21   -1    0    0  501  503 -0.00000000000E+00 -0.00000000000E+00 -0.65828120424E+02  0.65828120424E+02  0.00000000000E+00 0. -1.
         24    1    1    2    0    0 -0.21600711542E+02 -0.12537795255E+02  0.17835693899E+03  0.19723640812E+03  0.80419002446E+02 0. -1.
          1    1    1    2  501    0  0.68746442039E+01  0.41568230278E+02 -0.48054549839E+02  0.63909453617E+02  0.00000000000E+00 0. -1.
         -2    1    1    2    0  502  0.14726067338E+02 -0.29030435023E+02  0.65145422050E+03  0.65226698876E+03  0.00000000000E+00 0.  1.
<mgrwt>
<rscale>  2 0.79446407E+02</rscale>
<asrwt>0</asrwt>
<pdfrwt beam="1">  1       21 0.13039764E+00 0.79446407E+02</pdfrwt>
<pdfrwt beam="2">  1       21 0.10127404E-01 0.79446407E+02</pdfrwt>
<totfact> 0.36969976E+04</totfact>
</mgrwt>
</event>
<event>
 5    1  0.1590180E+000  0.9871018E+02  0.7546771E-02  0.1283032E+00
         21   -1    0    0  503  502  0.00000000000E+00  0.00000000000E+00  0.29147328204E+03  0.29147328204E+03  0.00000000000E+00 0. -1.
         21   -1    0    0  501  503 -0.00000000000E+00 -0.00000000000E+00 -0.64049819912E+02  0.64049819912E+02  0.00000000000E+00 0. -1.
         24    1    1    2    0    0 -0.58755724745E+02 -0.50228270007E+02  0.23567013898E+03  0.26073500850E+03  0.80419002446E+02 0. -1.
          1    1    1    2  501    0  0.57155092214E+02  0.28100202343E+02 -0.23475944611E+02  0.67878169636E+02  0.00000000000E+00 0. -1.
         -2    1    1    2    0  502  0.16006325307E+01  0.22128067665E+02  0.15229267759E+02  0.26909923811E+02  0.00000000000E+00 0.  1.
<mgrwt>
<rscale>  2 0.98710184E+02</rscale>
<asrwt>0</asrwt>
<pdfrwt beam="1">  1       21 0.44842043E-01 0.98710184E+02</pdfrwt>
<pdfrwt beam="2">  1       21 0.98538186E-02 0.98710184E+02</pdfrwt>
<totfact> 0.40323024E+05</totfact>
</mgrwt>
</event>
<event>
 5    1  0.1590180E+000  0.9222652E+02  0.7546771E-02  0.1297548E+00
         21   -1    0    0  503  502  0.00000000000E+00  0.00000000000E+00  0.86721603588E+02  0.86721603588E+02  0.00000000000E+00 0.  1.
         21   -1    0    0  501  503 -0.00000000000E+00 -0.00000000000E+00 -0.18226634012E+03  0.18226634012E+03  0.00000000000E+00 0.  1.
         24    1    1    2    0    0 -0.19818132384E+02 -0.16442509134E+02 -0.11659717598E+03  0.14396260583E+03  0.80419002446E+02 0.  1.
          1    1    1    2  501    0  0.59121201218E+02  0.13187459206E+02 -0.23995239861E+02  0.65153641876E+02  0.00000000000E+00 0. -1.
         -2    1    1    2    0  502 -0.39303068834E+02  0.32550499285E+01  0.45047679312E+02  0.59871695994E+02  0.00000000000E+00 0.  1.
<mgrwt>
<rscale>  2 0.92226523E+02</rscale>
<asrwt>0</asrwt>
<pdfrwt beam="1">  1       21 0.13341785E-01 0.92226523E+02</pdfrwt>
<pdfrwt beam="2">  1       21 0.28040975E-01 0.92226523E+02</pdfrwt>
<totfact> 0.59328987E+05</totfact>
</mgrwt>
</event>
<event>
 5    1  0.1590180E+000  0.8331012E+02  0.7546771E-02  0.1319912E+00
         21   -1    0    0  503  502  0.00000000000E+00  0.00000000000E+00  0.83826434385E+03  0.83826434385E+03  0.00000000000E+00 0.  1.
         21   -1    0    0  501  503 -0.00000000000E+00 -0.00000000000E+00 -0.23372379267E+02  0.23372379267E+02  0.00000000000E+00 0. -1.
         24    1    1    2    0    0 -0.44820572057E+01  0.35430651581E+02  0.90573962319E+02  0.12627857503E+03  0.80419002446E+02 0. -1.
          1    1    1    2  501    0  0.25200535586E+02 -0.48129217483E+02  0.13474974653E+03  0.14528930711E+03  0.00000000000E+00 0. -1.
         -2    1    1    2    0  502 -0.20718478380E+02  0.12698565902E+02  0.58956825574E+03  0.59006884098E+03  0.00000000000E+00 0.  1.
<mgrwt>
<rscale>  2 0.83310121E+02</rscale>
<asrwt>0</asrwt>
<pdfrwt beam="1">  1       21 0.12896372E+00 0.83310121E+02</pdfrwt>
<pdfrwt beam="2">  1       21 0.35957513E-02 0.83310121E+02</pdfrwt>
<totfact> 0.21517763E+05</totfact>
</mgrwt>
</event>
<event>
 5    1  0.1590180E+000  0.1701359E+03  0.7546771E-02  0.1177706E+00
         21   -1    0    0  501  502  0.00000000000E+00  0.00000000000E+00  0.26042593689E+03  0.26042593689E+03  0.00000000000E+00 0. -1.
         21   -1    0    0  502  503 -0.00000000000E+00 -0.00000000000E+00 -0.19968027332E+03  0.19968027332E+03  0.00000000000E+00 0. -1.
         24    1    1    2    0    0  0.12084059399E+03 -0.13187756085E+01 -0.54327830543E+02  0.15499328196E+03  0.80419002446E+02 0. -1.
          1    1    1    2  501    0 -0.14456712523E+03 -0.37739398934E+02  0.17477040017E+03  0.22993174792E+03  0.00000000000E+00 0. -1.
         -2    1    1    2    0  503  0.23726531234E+02  0.39058174543E+02 -0.59696906059E+02  0.75181180332E+02  0.00000000000E+00 0.  1.
<mgrwt>
<rscale>  2 0.17013591E+03</rscale>
<asrwt>0</asrwt>
<pdfrwt beam="1">  1       21 0.40065529E-01 0.17013591E+03</pdfrwt>
<pdfrwt beam="2">  1       21 0.30720042E-01 0.17013591E+03</pdfrwt>
<totfact> 0.61705760E+04</totfact>
</mgrwt>
</event>
<event>
 5    1  0.1590180E+000  0.9039291E+02  0.7546771E-02  0.1301903E+00
         21   -1    0    0  501  502  0.00000000000E+00  0.00000000000E+00  0.33955533533E+02  0.33955533533E+02  0.00000000000E+00 0.  1.
         21   -1    0    0  502  503 -0.00000000000E+00 -0.00000000000E+00 -0.38420377218E+03  0.38420377218E+03  0.00000000000E+00 0.  1.
         24    1    1    2    0    0  0.49967608618E+02  0.68104776827E+01 -0.16988702696E+03  0.19460720028E+03  0.80419002446E+02 0.  1.
          1    1    1    2  501    0 -0.38415206890E+02  0.29066078713E+02 -0.10165742749E+02  0.49233193861E+02  0.00000000000E+00 0. -1.
         -2    1    1    2    0  503 -0.11552401728E+02 -0.35876556396E+02 -0.17019546894E+03  0.17431891158E+03  0.00000000000E+00 0.  1.
<mgrwt>
<rscale>  2 0.90392907E+02</rscale>
<asrwt>0</asrwt>
<pdfrwt beam="1">  1       21 0.52239285E-02 0.90392907E+02</pdfrwt>
<pdfrwt beam="2">  1       21 0.59108269E-01 0.90392907E+02</pdfrwt>
<totfact> 0.67263456E+05</totfact>
</mgrwt>
</event>
<event>
 5    1  0.1590180E+000  0.9825911E+02  0.7546771E-02  0.1284000E+00
         21   -1    0    0  503  502  0.00000000000E+00  0.00000000000E+00  0.15505973791E+03  0.15505973791E+03  0.00000000000E+00 0.  1.
         21   -1    0    0  501  503 -0.00000000000E+00 -0.00000000000E+00 -0.24676214842E+03  0.24676214842E+03  0.00000000000E+00 0.  1.
         24    1    1    2    0    0  0.41890778791E+02  0.69624280856E+02 -0.69473460127E+02  0.13377651307E+03  0.80419002446E+02 0.  1.
          1    1    1    2  501    0 -0.15373816383E+02 -0.15018026378E+02 -0.13675095437E+03  0.13842947254E+03  0.00000000000E+00 0. -1.
         -2    1    1    2    0  502 -0.26516962408E+02 -0.54606254479E+02  0.11452200398E+03  0.12961590072E+03  0.00000000000E+00 0.  1.
<mgrwt>
<rscale>  2 0.98259106E+02</rscale>
<asrwt>0</asrwt>
<pdfrwt beam="1">  1       21 0.23855344E-01 0.98259106E+02</pdfrwt>
<pdfrwt beam="2">  1       21 0.37963408E-01 0.98259106E+02</pdfrwt>
<totfact> 0.11488434E+05</totfact>
</mgrwt>
</event>
<event>
 5    1  0.1590180E+000  0.6763331E+02  0.7546771E-02  0.1368331E+00
         21   -1    0    0  501  502  0.00000000000E+00  0.00000000000E+00  0.16487596467E+03  0.16487596467E+03  0.00000000000E+00 0.  1.
         21   -1    0    0  502  503 -0.00000000000E+00 -0.00000000000E+00 -0.57050977676E+02  0.57050977676E+02  0.00000000000E+00 0.  1.
         24    1    1    2    0    0  0.41361991363E+02 -0.81136587500E+01  0.11761508117E+03  0.14858387887E+03  0.80419002446E+02 0.  1.
          1    1    1    2  501    0 -0.20057164469E+02 -0.32597727483E+01  0.24229645697E+02  0.31622645296E+02  0.00000000000E+00 0. -1.
         -2    1    1    2    0  503 -0.21304826895E+02  0.11373431498E+02 -0.34019739865E+02  0.41720418185E+02  0.00000000000E+00 0.  1.
<mgrwt>
<rscale>  2 0.67633315E+02</rscale>
<asrwt>0</asrwt>
<pdfrwt beam="1">  1       21 0.25365533E-01 0.67633315E+02</pdfrwt>
<pdfrwt beam="2">  1       21 0.87770736E-02 0.67633315E+02</pdfrwt>
<totfact> 0.14711851E+06</totfact>
</mgrwt>
</event>
<event>
 5    1  0.1590180E+000  0.9296056E+02  0.7546771E-02  0.1295837E+00
         21   -1    0    0  503  502  0.00000000000E+00  0.00000000000E+00  0.22260616523E+03  0.22260616523E+03  0.00000000000E+00 0.  1.
         21   -1    0    0  501  503 -0.00000000000E+00 -0.00000000000E+00 -0.81812776967E+02  0.81812776967E+02  0.00000000000E+00 0. -1.
         24    1    1    2    0    0  0.46225021488E+02 -0.45531899776E+02  0.69220399445E+02  0.12437277098E+03  0.80419002446E+02 0.  1.
          1    1    1    2  501    0  0.60400835487E+00  0.34467215610E+02 -0.43391298017E+02  0.55418034263E+02  0.00000000000E+00 0. -1.
         -2    1    1    2    0  502 -0.46829029843E+02  0.11064684166E+02  0.11496428683E+03  0.12462813695E+03  0.00000000000E+00 0.  1.
<mgrwt>
<rscale>  2 0.92960560E+02</rscale>
<asrwt>0</asrwt>
<pdfrwt beam="1">  1       21 0.34247102E-01 0.92960560E+02</pdfrwt>
<pdfrwt beam="2">  1       21 0.12586581E-01 0.92960560E+02</pdfrwt>
<totfact> 0.44809927E+05</totfact>
</mgrwt>
</event>
<event>
 5    1  0.1590180E+000  0.1037123E+03  0.7546771E-02  0.1272678E+00
         21   -1    0    0  501  502  0.00000000000E+00  0.00000000000E+00  0.75745578985E+03  0.75745578985E+03  0.00000000000E+00 0. -1.
         21   -1    0    0  502  503 -0.00000000000E+00 -0.00000000000E+00 -0.23178384851E+02  0.23178384851E+02  0.00000000000E+00 0.  1.
         24    1    1    2    0    0  0.86055066126E+01 -0.10180257746E+02  0.34577339064E+03  0.35525222873E+03  0.80419002446E+02 0.  0.
          1    1    1    2  501    0 -0.14516875536E+02 -0.56821348349E+02  0.33314700940E+03  0.33826961906E+03  0.00000000000E+00 0. -1.
         -2    1    1    2    0  503  0.59113689233E+01  0.67001606095E+02  0.55357004959E+02  0.87112326911E+02  0.00000000000E+00 0.  1.
<mgrwt>
<rscale>  2 0.10371231E+03</rscale>
<asrwt>0</asrwt>
<pdfrwt beam="1">  1       21 0.11653164E+00 0.10371231E+03</pdfrwt>
<pdfrwt beam="2">  1       21 0.35659059E-02 0.10371231E+03</pdfrwt>
<totfact> 0.27676125E+05</totfact>
</mgrwt>
</event>
<event>
 5    1  0.1590180E+000  0.7053670E+02  0.7546771E-02  0.1358277E+00
         21   -1    0    0  501  502  0.00000000000E+00  0.00000000000E+00  0.14568569768E+03  0.14568569768E+03  0.00000000000E+00 0. -1.
         21   -1    0    0  502  503 -0.00000000000E+00 -0.00000000000E+00 -0.54431431194E+02  0.54431431194E+02  0.00000000000E+00 0. -1.
         24    1    1    2    0    0 -0.30298493940E+02  0.36069913513E+02  0.31808000708E+02  0.98478435504E+02  0.80419002446E+02 0. -1.
          1    1    1    2  501    0  0.15924779234E+02 -0.12409147432E+02  0.69355491317E+02  0.72234131195E+02  0.00000000000E+00 0. -1.
         -2    1    1    2    0  503  0.14373714705E+02 -0.23660766081E+02 -0.99092255395E+01  0.29404562176E+02  0.00000000000E+00 0.  1.
<mgrwt>
<rscale>  2 0.70536696E+02</rscale>
<asrwt>0</asrwt>
<pdfrwt beam="1">  1       21 0.22413184E-01 0.70536696E+02</pdfrwt>
<pdfrwt beam="2">  1       21 0.83740664E-02 0.70536696E+02</pdfrwt>
<totfact> 0.20068383E+06</totfact>
</mgrwt>
</event>
<event>
 5    1  0.1590180E+000  0.7849747E+02  0.7546771E-02  0.1333370E+00
         21   -1    0    0  501  502  0.00000000000E+00  0.00000000000E+00  0.69046770171E+03  0.69046770171E+03  0.00000000000E+00 0. -1.
         21   -1    0    0  502  503 -0.00000000000E+00 -0.00000000000E+00 -0.56105884811E+02  0.56105884811E+02  0.00000000000E+00 0.  1.
         24    1    1    2    0    0 -0.24328372302E+02  0.28261669326E+02  0.24684357067E+03  0.26227763151E+03  0.80419002446E+02 0. -1.
          1    1    1    2  501    0  0.41338379808E+02 -0.83689783819E+01  0.43126210860E+03  0.43331963694E+03  0.00000000000E+00 0. -1.
         -2    1    1    2    0  503 -0.17010007506E+02 -0.19892690945E+02 -0.43743862377E+02  0.50976318070E+02  0.00000000000E+00 0.  1.
<mgrwt>
<rscale>  2 0.78497471E+02</rscale>
<asrwt>0</asrwt>
<pdfrwt beam="1">  1       21 0.10622579E+00 0.78497471E+02</pdfrwt>
<pdfrwt beam="2">  1       21 0.86316750E-02 0.78497471E+02</pdfrwt>
<totfact> 0.79390819E+04</totfact>
</mgrwt>
</event>
<event>
 5    1  0.1590180E+000  0.1003327E+03  0.7546771E-02  0.1279598E+00
         21   -1    0    0  503  502  0.00000000000E+00  0.00000000000E+00  0.59500597548E+02  0.59500597548E+02  0.00000000000E+00 0.  1.
         21   -1    0    0  501  503 -0.00000000000E+00 -0.00000000000E+00 -0.28177603721E+03  0.28177603721E+03  0.00000000000E+00 0.  1.
         24    1    1    2    0    0 -0.30604091654E+02 -0.76348275836E+02 -0.13805076858E+03  0.17969668976E+03  0.80419002446E+02 0.  1.
          1    1    1    2  501    0  0.45297990287E+01  0.43295125736E+02 -0.10570451555E+03  0.11431724104E+03  0.00000000000E+00 0. -1.
         -2    1    1    2    0  502  0.26074292625E+02  0.33053150100E+02  0.21479844467E+02  0.47262703962E+02  0.00000000000E+00 0.  1.
<mgrwt>
<rscale>  2 0.10033268E+03</rscale>
<asrwt>0</asrwt>
<pdfrwt beam="1">  1       21 0.91539382E-02 0.10033268E+03</pdfrwt>
<pdfrwt beam="2">  1       21 0.43350159E-01 0.10033268E+03</pdfrwt>
<totfact> 0.49029605E+05</totfact>
</mgrwt>
</event>
<event>
 5    1  0.2343821E+000  0.7907849E+02  0.7546771E-02  0.1331687E+00
         21   -1    0    0  501  502  0.00000000000E+00  0.00000000000E+00  0.35889415761E+03  0.35889415761E+03  0.00000000000E+00 0. -1.
         21   -1    0    0  502  503 -0.00000000000E+00 -0.00000000000E+00 -0.15702958650E+03  0.15702958650E+03  0.00000000000E+00 0.  1.
         24    1    1    2    0    0 -0.28068061950E+02  0.50357505367E+01  0.13124028399E+03  0.15653882260E+03  0.80419002446E+02 0.  1.
          1    1    1    2  501    0 -0.22265134213E+02 -0.19108172122E+00  0.20997046970E+03  0.21114774652E+03  0.00000000000E+00 0. -1.
         -2    1    1    2    0  503  0.50333196163E+02 -0.48446688155E+01 -0.13934618257E+03  0.14823717499E+03  0.00000000000E+00 0.  1.
<mgrwt>
<rscale>  2 0.79078487E+02</rscale>
<asrwt>0</asrwt>
<pdfrwt beam="1">  1       21 0.55214486E-01 0.79078487E+02</pdfrwt>
<pdfrwt beam="2">  1       21 0.24158398E-01 0.79078487E+02</pdfrwt>
<totfact> 0.53368423E+04</totfact>
</mgrwt>
</event>
<event>
 5    1  0.1590180E+000  0.6756090E+02  0.7546771E-02  0.1368589E+00
         21   -1    0    0  501  502  0.00000000000E+00  0.00000000000E+00  0.29211094390E+01  0.29211094390E+01  0.00000000000E+00 0.  1.
         21   -1    0    0  502  503 -0.00000000000E+00 -0.00000000000E+00 -0.19398332749E+04  0.19398332749E+04  0.00000000000E+00 0. -1.
         24    1    1    2    0    0  0.57138370462E+00 -0.65053055944E+01 -0.71769413304E+03  0.72221515495E+03  0.80419002446E+02 0.  1.
          1    1    1    2  501    0  0.23380395933E+02  0.16362538856E+02 -0.46365326024E+03  0.46453064627E+03  0.00000000000E+00 0. -1.
         -2    1    1    2    0  503 -0.23951779637E+02 -0.98572332620E+01 -0.75556477215E+03  0.75600858309E+03  0.00000000000E+00 0.  1.
<mgrwt>
<rscale>  2 0.67560903E+02</rscale>
<asrwt>0</asrwt>
<pdfrwt beam="1">  1       21 0.44940054E-03 0.67560903E+02</pdfrwt>
<pdfrwt beam="2">  1       21 0.29843650E+00 0.67560903E+02</pdfrwt>
<totfact> 0.51419125E+05</totfact>
</mgrwt>
</event>
<event>
 5    1  0.1590180E+000  0.1091992E+03  0.7546771E-02  0.1262060E+00
         21   -1    0    0  501  502  0.00000000000E+00  0.00000000000E+00  0.35199999468E+03  0.35199999468E+03  0.00000000000E+00 0. -1.
         21   -1    0    0  502  503 -0.00000000000E+00 -0.00000000000E+00 -0.24156596955E+03  0.24156596955E+03  0.00000000000E+00 0. -1.
         24    1    1    2    0    0  0.91421985234E+02  0.20588544212E+02 -0.95241962685E+02  0.15594907806E+03  0.80419002446E+02 0. -1.
          1    1    1    2  501    0 -0.70439612499E+02 -0.22231625907E+02  0.31640140178E+03  0.32490895840E+03  0.00000000000E+00 0. -1.
         -2    1    1    2    0  503 -0.20982372734E+02  0.16430816949E+01 -0.11072541396E+03  0.11270792776E+03  0.00000000000E+00 0.  1.
<mgrwt>
<rscale>  2 0.10919921E+03</rscale>
<asrwt>0</asrwt>
<pdfrwt beam="1">  1       21 0.54153845E-01 0.10919921E+03</pdfrwt>
<pdfrwt beam="2">  1       21 0.37163995E-01 0.10919921E+03</pdfrwt>
<totfact> 0.23780773E+04</totfact>
</mgrwt>
</event>
<event>
 5    1  0.1590180E+000  0.7298141E+02  0.7546771E-02  0.1350238E+00
         21   -1    0    0  503  502  0.00000000000E+00  0.00000000000E+00  0.68221279701E+02  0.68221279701E+02  0.00000000000E+00 0.  1.
         21   -1    0    0  501  503 -0.00000000000E+00 -0.00000000000E+00 -0.16529073370E+03  0.16529073370E+03  0.00000000000E+00 0. -1.
         24    1    1    2    0    0 -0.17308519870E+02 -0.16947109939E+02 -0.11871504059E+03  0.14542099646E+03  0.80419002446E+02 0. -1.
          1    1    1    2  501    0  0.37662465200E+02  0.17683786735E+02 -0.16571009574E+02  0.44785890150E+02  0.00000000000E+00 0. -1.
         -2    1    1    2    0  502 -0.20353945330E+02 -0.73667679674E+00  0.38216596169E+02  0.43305126785E+02  0.00000000000E+00 0.  1.
<mgrwt>
<rscale>  2 0.72981410E+02</rscale>
<asrwt>0</asrwt>
<pdfrwt beam="1">  1       21 0.10495581E-01 0.72981410E+02</pdfrwt>
<pdfrwt beam="2">  1       21 0.25429344E-01 0.72981410E+02</pdfrwt>
<totfact> 0.10804071E+06</totfact>
</mgrwt>
</event>
<event>
 5    1  0.1590180E+000  0.1109021E+03  0.7546771E-02  0.1258908E+00
         21   -1    0    0  503  502  0.00000000000E+00  0.00000000000E+00  0.11181170227E+03  0.11181170227E+03  0.00000000000E+00 0.  1.
         21   -1    0    0  501  503 -0.00000000000E+00 -0.00000000000E+00 -0.28703448196E+03  0.28703448196E+03  0.00000000000E+00 0. -1.
         24    1    1    2    0    0 -0.68347577019E+02 -0.62809433364E+01 -0.15597122881E+03  0.18842792177E+03  0.80419002446E+02 0. -1.
          1    1    1    2  501    0  0.79536130099E+02  0.33762907999E+02 -0.95387884252E+02  0.12870422841E+03  0.00000000000E+00 0. -1.
         -2    1    1    2    0  502 -0.11188553080E+02 -0.27481964663E+02  0.76136333373E+02  0.81714034053E+02  0.00000000000E+00 0.  1.
<mgrwt>
<rscale>  2 0.11090210E+03</rscale>
<asrwt>0</asrwt>
<pdfrwt beam="1">  1       21 0.17201800E-01 0.11090210E+03</pdfrwt>
<pdfrwt beam="2">  1       21 0.44159151E-01 0.11090210E+03</pdfrwt>
<totfact> 0.15438266E+05</totfact>
</mgrwt>
</event>
<event>
 5    1  0.1590180E+000  0.1140762E+03  0.7546771E-02  0.1253202E+00
         21   -1    0    0  503  502  0.00000000000E+00  0.00000000000E+00  0.54204402444E+02  0.54204402444E+02  0.00000000000E+00 0. -1.
         21   -1    0    0  501  503 -0.00000000000E+00 -0.00000000000E+00 -0.28873626916E+03  0.28873626916E+03  0.00000000000E+00 0.  1.
         24    1    1    2    0    0  0.48592975006E+01 -0.73355270344E+01 -0.55528271599E+02  0.98122513371E+02  0.80419002446E+02 0. -1.
          1    1    1    2  501    0  0.26974036140E+02 -0.63828374886E+02 -0.14308741883E+03  0.15898323651E+03  0.00000000000E+00 0. -1.
         -2    1    1    2    0  502 -0.31833333640E+02  0.71163901920E+02 -0.35916176292E+02  0.85834921719E+02  0.00000000000E+00 0.  1.
<mgrwt>
<rscale>  2 0.11407616E+03</rscale>
<asrwt>0</asrwt>
<pdfrwt beam="1">  1       21 0.83391387E-02 0.11407616E+03</pdfrwt>
<pdfrwt beam="2">  1       21 0.44420965E-01 0.11407616E+03</pdfrwt>
<totfact> 0.54786315E+05</totfact>
</mgrwt>
</event>
<event>
 5    1  0.1590180E+000  0.6297645E+02  0.7546771E-02  0.1385749E+00
         21   -1    0    0  503  502  0.00000000000E+00  0.00000000000E+00  0.11616205912E+04  0.11616205912E+04  0.00000000000E+00 0.  1.
         21   -1    0    0  501  503 -0.00000000000E+00 -0.00000000000E+00 -0.38654234978E+01  0.38654234978E+01  0.00000000000E+00 0.  1.
         24    1    1    2    0    0 -0.49833870539E+01  0.58596897624E+01  0.53298994220E+03  0.53907760531E+03  0.80419002446E+02 0.  0.
          1    1    1    2  501    0 -0.10016154228E+02 -0.21363380148E+02  0.29877969765E+03  0.29970990154E+03  0.00000000000E+00 0. -1.
         -2    1    1    2    0  502  0.14999541282E+02  0.15503690386E+02  0.32598552790E+03  0.32669850788E+03  0.00000000000E+00 0.  1.
<mgrwt>
<rscale>  2 0.62976449E+02</rscale>
<asrwt>0</asrwt>
<pdfrwt beam="1">  1       21 0.17871058E+00 0.62976449E+02</pdfrwt>
<pdfrwt beam="2">  1       21 0.59468146E-03 0.62976449E+02</pdfrwt>
<totfact> 0.16078603E+06</totfact>
</mgrwt>
</event>
<event>
 5    1  0.1590180E+000  0.1040657E+03  0.7546771E-02  0.1271971E+00
         21   -1    0    0  501  502  0.00000000000E+00  0.00000000000E+00  0.37812542725E+03  0.37812542725E+03  0.00000000000E+00 0. -1.
         21   -1    0    0  502  503 -0.00000000000E+00 -0.00000000000E+00 -0.36875733731E+02  0.36875733731E+02  0.00000000000E+00 0.  1.
         24    1    1    2    0    0  0.68204277076E+01 -0.19409318059E+02  0.16984103079E+03  0.18904081982E+03  0.80419002446E+02 0. -1.
          1    1    1    2  501    0  0.24123328196E+02  0.65390890407E+02  0.15203133130E+03  0.16724661195E+03  0.00000000000E+00 0. -1.
         -2    1    1    2    0  503 -0.30943755904E+02 -0.45981572348E+02  0.19377331421E+02  0.58713729212E+02  0.00000000000E+00 0.  1.
<mgrwt>
<rscale>  2 0.10406572E+03</rscale>
<asrwt>0</asrwt>
<pdfrwt beam="1">  1       21 0.58173140E-01 0.10406572E+03</pdfrwt>
<pdfrwt beam="2">  1       21 0.56731901E-02 0.10406572E+03</pdfrwt>
<totfact> 0.60581945E+05</totfact>
</mgrwt>
</event>
<event>
 5    1  0.1590180E+000  0.8361528E+02  0.7546771E-02  0.1319094E+00
         21   -1    0    0  503  502  0.00000000000E+00  0.00000000000E+00  0.88595693653E+03  0.88595693653E+03  0.00000000000E+00 0.  1.
         21   -1    0    0  501  503 -0.00000000000E+00 -0.00000000000E+00 -0.64984912065E+02  0.64984912065E+02  0.00000000000E+00 0. -1.
         24    1    1    2    0    0  0.11317195283E+02 -0.51484875828E+02  0.38661126119E+02  0.10363720362E+03  0.80419002446E+02 0.  0.
          1    1    1    2  501    0  0.15716007909E+02  0.37452541550E+02 -0.19402629931E+02  0.45012751764E+02  0.00000000000E+00 0. -1.
         -2    1    1    2    0  502 -0.27033203191E+02  0.14032334277E+02  0.80171352827E+03  0.80229189320E+03  0.00000000000E+00 0.  1.
<mgrwt>
<rscale>  2 0.83615278E+02</rscale>
<asrwt>0</asrwt>
<pdfrwt beam="1">  1       21 0.13630106E+00 0.83615278E+02</pdfrwt>
<pdfrwt beam="2">  1       21 0.99976794E-02 0.83615278E+02</pdfrwt>
<totfact> 0.33759110E+04</totfact>
</mgrwt>
</event>
<event>
 5    1  0.2163901E+000  0.1265034E+03  0.7546771E-02  0.1232738E+00
         21   -1    0    0  501  502  0.00000000000E+00  0.00000000000E+00  0.75299263107E+02  0.75299263107E+02  0.00000000000E+00 0.  1.
         21   -1    0    0  502  503 -0.00000000000E+00 -0.00000000000E+00 -0.62805602699E+03  0.62805602699E+03  0.00000000000E+00 0.  1.
         24    1    1    2    0    0  0.10305657281E+03  0.21997888163E+02 -0.15530592013E+02  0.13346527460E+03  0.80419002446E+02 0.  1.
          1    1    1    2  501    0 -0.36965275350E+02 -0.37400830279E+02 -0.35157707129E+02  0.63255972507E+02  0.00000000000E+00 0. -1.
         -2    1    1    2    0  503 -0.66091297456E+02  0.15402942116E+02 -0.50206846474E+03  0.50663404299E+03  0.00000000000E+00 0.  1.
<mgrwt>
<rscale>  2 0.12650335E+03</rscale>
<asrwt>0</asrwt>
<pdfrwt beam="1">  1       21 0.11584501E-01 0.12650335E+03</pdfrwt>
<pdfrwt beam="2">  1       21 0.96624009E-01 0.12650335E+03</pdfrwt>
<totfact> 0.57542923E+04</totfact>
</mgrwt>
</event>
<event>
 5    1  0.1590180E+000  0.2557430E+03  0.7546771E-02  0.1109728E+00
         21   -1    0    0  501  502  0.00000000000E+00  0.00000000000E+00  0.37835523161E+03  0.37835523161E+03  0.00000000000E+00 0. -1.
         21   -1    0    0  502  503 -0.00000000000E+00 -0.00000000000E+00 -0.61832519493E+03  0.61832519493E+03  0.00000000000E+00 0.  1.
         24    1    1    2    0    0 -0.23369212977E+03  0.26144429534E+02 -0.43391336454E+03  0.50004356470E+03  0.80419002446E+02 0.  1.
          1    1    1    2  501    0  0.42939533230E+02 -0.55282488719E+02  0.27762082203E+03  0.28630975865E+03  0.00000000000E+00 0. -1.
         -2    1    1    2    0  503  0.19075259654E+03  0.29138059184E+02 -0.83677420810E+02  0.21032710319E+03  0.00000000000E+00 0.  1.
<mgrwt>
<rscale>  2 0.25574303E+03</rscale>
<asrwt>0</asrwt>
<pdfrwt beam="1">  1       21 0.58208498E-01 0.25574303E+03</pdfrwt>
<pdfrwt beam="2">  1       21 0.95126952E-01 0.25574303E+03</pdfrwt>
<totfact> 0.24305544E+03</totfact>
</mgrwt>
</event>
<event>
 5    1  0.1590180E+000  0.1236821E+03  0.7546771E-02  0.1237143E+00
         21   -1    0    0  501  502  0.00000000000E+00  0.00000000000E+00  0.64340647967E+02  0.64340647967E+02  0.00000000000E+00 0.  1.
         21   -1    0    0  502  503 -0.00000000000E+00 -0.00000000000E+00 -0.24976635653E+03  0.24976635653E+03  0.00000000000E+00 0. -1.
         24    1    1    2    0    0  0.46467508923E+02 -0.99544388806E+02 -0.75787974493E+02  0.15581831651E+03  0.80419002446E+02 0.  0.
          1    1    1    2  501    0 -0.20695662685E+02  0.25642537208E+02 -0.17212848281E+02  0.37177040151E+02  0.00000000000E+00 0. -1.
         -2    1    1    2    0  503 -0.25771846237E+02  0.73901851598E+02 -0.92424885787E+02  0.12111164783E+03  0.00000000000E+00 0.  1.
<mgrwt>
<rscale>  2 0.12368208E+03</rscale>
<asrwt>0</asrwt>
<pdfrwt beam="1">  1       21 0.98985616E-02 0.12368208E+03</pdfrwt>
<pdfrwt beam="2">  1       21 0.38425592E-01 0.12368208E+03</pdfrwt>
<totfact> 0.54380662E+05</totfact>
</mgrwt>
</event>
<event>
 5    1  0.1590180E+000  0.9542159E+02  0.7546771E-02  0.1290229E+00
         21   -1    0    0  503  502  0.00000000000E+00  0.00000000000E+00  0.62782087184E+02  0.62782087184E+02  0.00000000000E+00 0. -1.
         21   -1    0    0  501  503 -0.00000000000E+00 -0.00000000000E+00 -0.15878197209E+03  0.15878197209E+03  0.00000000000E+00 0. -1.
         24    1    1    2    0    0  0.43670238457E+02 -0.13137786870E+02 -0.19064985388E+02  0.94394813379E+02  0.80419002446E+02 0. -1.
          1    1    1    2  501    0 -0.24508491337E+02  0.50651560063E+02 -0.58556662368E+02  0.81210401995E+02  0.00000000000E+00 0. -1.
         -2    1    1    2    0  502 -0.19161747120E+02 -0.37513773193E+02 -0.18378237150E+02  0.45958843900E+02  0.00000000000E+00 0.  1.
<mgrwt>
<rscale>  2 0.95421592E+02</rscale>
<asrwt>0</asrwt>
<pdfrwt beam="1">  1       21 0.96587827E-02 0.95421592E+02</pdfrwt>
<pdfrwt beam="2">  1       21 0.24427996E-01 0.95421592E+02</pdfrwt>
<totfact> 0.13543542E+06</totfact>
</mgrwt>
</event>
<event>
 5    1  0.1590180E+000  0.8577016E+02  0.7546771E-02  0.1313431E+00
         21   -1    0    0  503  502  0.00000000000E+00  0.00000000000E+00  0.11735355491E+04  0.11735355491E+04  0.00000000000E+00 0.  1.
         21   -1    0    0  501  503 -0.00000000000E+00 -0.00000000000E+00 -0.23736759708E+02  0.23736759708E+02  0.00000000000E+00 0. -1.
         24    1    1    2    0    0 -0.17809711186E+02  0.25895582342E+02  0.91017576426E+02  0.12545589731E+03  0.80419002446E+02 0.  1.
          1    1    1    2  501    0 -0.12629372807E+02  0.23787306219E+02  0.26137054941E+02  0.37529756669E+02  0.00000000000E+00 0. -1.
         -2    1    1    2    0  502  0.30439083992E+02 -0.49682888562E+02  0.10326441581E+04  0.10342866549E+04  0.00000000000E+00 0.  1.
<mgrwt>
<rscale>  2 0.85770164E+02</rscale>
<asrwt>0</asrwt>
<pdfrwt beam="1">  1       21 0.18054389E+00 0.85770164E+02</pdfrwt>
<pdfrwt beam="2">  1       21 0.36518101E-02 0.85770164E+02</pdfrwt>
<totfact> 0.88428915E+04</totfact>
</mgrwt>
</event>
<event>
 5    1  0.1590180E+000  0.7786644E+02  0.7546771E-02  0.1335218E+00
         21   -1    0    0  501  502  0.00000000000E+00  0.00000000000E+00  0.11306687807E+04  0.11306687807E+04  0.00000000000E+00 0. -1.
         21   -1    0    0  502  503 -0.00000000000E+00 -0.00000000000E+00 -0.60044377470E+01  0.60044377470E+01  0.00000000000E+00 0. -1.
         24    1    1    2    0    0 -0.42765081591E+02 -0.16845777183E+02  0.54013807196E+03  0.54802279619E+03  0.80419002446E+02 0. -1.
          1    1    1    2  501    0  0.24776226284E+02  0.31377645153E+02  0.47662664642E+03  0.47830051023E+03  0.00000000000E+00 0. -1.
         -2    1    1    2    0  503  0.17988855307E+02 -0.14531867969E+02  0.10789962462E+03  0.11034991207E+03  0.00000000000E+00 0.  1.
<mgrwt>
<rscale>  2 0.77866437E+02</rscale>
<asrwt>0</asrwt>
<pdfrwt beam="1">  1       21 0.17394887E+00 0.77866437E+02</pdfrwt>
<pdfrwt beam="2">  1       21 0.92376055E-03 0.77866437E+02</pdfrwt>
<totfact> 0.87601141E+05</totfact>
</mgrwt>
</event>
<event>
 5    1  0.1590180E+000  0.8326716E+02  0.7546771E-02  0.1320027E+00
         21   -1    0    0  501  502  0.00000000000E+00  0.00000000000E+00  0.18829494325E+04  0.18829494325E+04  0.00000000000E+00 0. -1.
         21   -1    0    0  502  503 -0.00000000000E+00 -0.00000000000E+00 -0.44854435936E+02  0.44854435936E+02  0.00000000000E+00 0.  1.
         24    1    1    2    0    0 -0.38428976582E+02  0.11722856474E+02  0.13629938338E+02  0.90924159488E+02  0.80419002446E+02 0.  0.
          1    1    1    2  501    0  0.50871217301E+02  0.97720507680E+01  0.18038744215E+04  0.18046180488E+04  0.00000000000E+00 0. -1.
         -2    1    1    2    0  503 -0.12442240718E+02 -0.21494907242E+02  0.20590636748E+02  0.32261660111E+02  0.00000000000E+00 0.  1.
<mgrwt>
<rscale>  2 0.83267162E+02</rscale>
<asrwt>0</asrwt>
<pdfrwt beam="1">  1       21 0.28968447E+00 0.83267162E+02</pdfrwt>
<pdfrwt beam="2">  1       21 0.69006839E-02 0.83267162E+02</pdfrwt>
<totfact> 0.72025320E+03</totfact>
</mgrwt>
</event>
<event>
 5    1  0.1590180E+000  0.7103677E+02  0.7546771E-02  0.1356603E+00
         21   -1    0    0  501  502  0.00000000000E+00  0.00000000000E+00  0.10200726641E+04  0.10200726641E+04  0.00000000000E+00 0. -1.
         21   -1    0    0  502  503 -0.00000000000E+00 -0.00000000000E+00 -0.49630553586E+01  0.49630553586E+01  0.00000000000E+00 0.  1.
         24    1    1    2    0    0 -0.26320010831E+01  0.17044431959E+02  0.55958502467E+03  0.56559707910E+03  0.80419002446E+02 0.  0.
          1    1    1    2  501    0 -0.25062260791E+02  0.35516465700E+01  0.19820749408E+03  0.19981727108E+03  0.00000000000E+00 0. -1.
         -2    1    1    2    0  503  0.27694261874E+02 -0.20596078529E+02  0.25731708997E+03  0.25962136927E+03  0.00000000000E+00 0.  1.
<mgrwt>
<rscale>  2 0.71036768E+02</rscale>
<asrwt>0</asrwt>
<pdfrwt beam="1">  1       21 0.15693409E+00 0.71036768E+02</pdfrwt>
<pdfrwt beam="2">  1       21 0.76354779E-03 0.71036768E+02</pdfrwt>
<totfact> 0.15387672E+06</totfact>
</mgrwt>
</event>
<event>
 5    1  0.1590180E+000  0.8205971E+02  0.7546771E-02  0.1323306E+00
         21   -1    0    0  501  502  0.00000000000E+00  0.00000000000E+00  0.14329965890E+04  0.14329965890E+04  0.00000000000E+00 0.  1.
         21   -1    0    0  502  503 -0.00000000000E+00 -0.00000000000E+00 -0.60621643362E+01  0.60621643362E+01  0.00000000000E+00 0.  1.
         24    1    1    2    0    0  0.27633981371E+02  0.89227955352E+01  0.39578685286E+03  0.40491690759E+03  0.80419002446E+02 0.  1.
          1    1    1    2  501    0  0.23793021984E+02  0.69673602994E+01  0.33625566406E+03  0.33716839060E+03  0.00000000000E+00 0. -1.
         -2    1    1    2    0  503 -0.51427003355E+02 -0.15890155835E+02  0.69489190773E+03  0.69697345513E+03  0.00000000000E+00 0.  1.
<mgrwt>
<rscale>  2 0.82059708E+02</rscale>
<asrwt>0</asrwt>
<pdfrwt beam="1">  1       21 0.22046074E+00 0.82059708E+02</pdfrwt>
<pdfrwt beam="2">  1       21 0.93264181E-03 0.82059708E+02</pdfrwt>
<totfact> 0.44406086E+05</totfact>
</mgrwt>
</event>
<event>
 5    1  0.1590180E+000  0.7237286E+02  0.7546771E-02  0.1352205E+00
         21   -1    0    0  503  502  0.00000000000E+00  0.00000000000E+00  0.35772702350E+02  0.35772702350E+02  0.00000000000E+00 0. -1.
         21   -1    0    0  501  503 -0.00000000000E+00 -0.00000000000E+00 -0.21233498709E+03  0.21233498709E+03  0.00000000000E+00 0. -1.
         24    1    1    2    0    0 -0.44348328220E+02  0.22689373380E+02 -0.11008792036E+03  0.14514871010E+03  0.80419002446E+02 0. -1.
          1    1    1    2  501    0  0.22007405385E+02 -0.80301446243E+01 -0.71963008472E+02  0.75680140742E+02  0.00000000000E+00 0. -1.
         -2    1    1    2    0  502  0.22340922835E+02 -0.14659228756E+02  0.54886440979E+01  0.27278838591E+02  0.00000000000E+00 0.  1.
<mgrwt>
<rscale>  2 0.72372862E+02</rscale>
<asrwt>0</asrwt>
<pdfrwt beam="1">  1       21 0.55034927E-02 0.72372862E+02</pdfrwt>
<pdfrwt beam="2">  1       21 0.32666921E-01 0.72372862E+02</pdfrwt>
<totfact> 0.20079830E+06</totfact>
</mgrwt>
</event>
<event>
 5    1  0.1590180E+000  0.9560456E+02  0.7546771E-02  0.1289820E+00
         21   -1    0    0  503  502  0.00000000000E+00  0.00000000000E+00  0.10625425940E+03  0.10625425940E+03  0.00000000000E+00 0.  1.
         21   -1    0    0  501  503 -0.00000000000E+00 -0.00000000000E+00 -0.17283144251E+03  0.17283144251E+03  0.00000000000E+00 0.  1.
         24    1    1    2    0    0 -0.45002647558E+02  0.64153293868E+02 -0.12858210422E+02  0.11301961304E+03  0.80419002446E+02 0.  1.
          1    1    1    2  501    0  0.15777072594E+02 -0.30590959221E+02 -0.97646039837E+02  0.10353488254E+03  0.00000000000E+00 0. -1.
         -2    1    1    2    0  502  0.29225574963E+02 -0.33562334647E+02  0.43927067149E+02  0.62531206347E+02  0.00000000000E+00 0.  1.
<mgrwt>
<rscale>  2 0.95604565E+02</rscale>
<asrwt>0</asrwt>
<pdfrwt beam="1">  1       21 0.16346809E-01 0.95604565E+02</pdfrwt>
<pdfrwt beam="2">  1       21 0.26589452E-01 0.95604565E+02</pdfrwt>
<totfact> 0.45645994E+05</totfact>
</mgrwt>
</event>
<event>
 5    1  0.1590180E+000  0.6943713E+02  0.7546771E-02  0.1362018E+00
         21   -1    0    0  501  502  0.00000000000E+00  0.00000000000E+00  0.31884289968E+02  0.31884289968E+02  0.00000000000E+00 0. -1.
         21   -1    0    0  502  503 -0.00000000000E+00 -0.00000000000E+00 -0.16713716599E+03  0.16713716599E+03  0.00000000000E+00 0.  1.
         24    1    1    2    0    0  0.13204456661E+02  0.21055807165E+02 -0.97992252032E+02  0.12917972791E+03  0.80419002446E+02 0.  1.
          1    1    1    2  501    0 -0.30512395849E+02 -0.46689001067E+01 -0.75967715282E+01  0.31788612211E+02  0.00000000000E+00 0. -1.
         -2    1    1    2    0  503  0.17307939189E+02 -0.16386907058E+02 -0.29663852466E+02  0.38053115839E+02  0.00000000000E+00 0.  1.
<mgrwt>
<rscale>  2 0.69437131E+02</rscale>
<asrwt>0</asrwt>
<pdfrwt beam="1">  1       21 0.49052753E-02 0.69437131E+02</pdfrwt>
<pdfrwt beam="2">  1       21 0.25713410E-01 0.69437131E+02</pdfrwt>
<totfact> 0.38088074E+06</totfact>
</mgrwt>
</event>
<event>
 5    1  0.1590180E+000  0.1285506E+03  0.7546771E-02  0.1229622E+00
         21   -1    0    0  501  502  0.00000000000E+00  0.00000000000E+00  0.38131758769E+03  0.38131758769E+03  0.00000000000E+00 0. -1.
         21   -1    0    0  502  503 -0.00000000000E+00 -0.00000000000E+00 -0.45239264774E+02  0.45239264774E+02  0.00000000000E+00 0. -1.
         24    1    1    2    0    0  0.89060691803E+02 -0.11353562451E+02  0.15903137629E+03  0.19954674842E+03  0.80419002446E+02 0. -1.
          1    1    1    2  501    0 -0.10080689336E+03 -0.20278888341E+02  0.15725998342E+03  0.18789349495E+03  0.00000000000E+00 0. -1.
         -2    1    1    2    0  503  0.11746201552E+02  0.31632450792E+02  0.19786963205E+02  0.39116609092E+02  0.00000000000E+00 0.  1.
<mgrwt>
<rscale>  2 0.12855057E+03</rscale>
<asrwt>0</asrwt>
<pdfrwt beam="1">  1       21 0.58664242E-01 0.12855057E+03</pdfrwt>
<pdfrwt beam="2">  1       21 0.69598872E-02 0.12855057E+03</pdfrwt>
<totfact> 0.41999751E+05</totfact>
</mgrwt>
</event>
<event>
 5    1  0.1590180E+000  0.1007002E+03  0.7546771E-02  0.1278830E+00
         21   -1    0    0  503  502  0.00000000000E+00  0.00000000000E+00  0.18654436656E+03  0.18654436656E+03  0.00000000000E+00 0.  1.
         21   -1    0    0  501  503 -0.00000000000E+00 -0.00000000000E+00 -0.10996560488E+04  0.10996560488E+04  0.00000000000E+00 0.  1.
         24    1    1    2    0    0  0.28752648251E+02  0.78717648300E+02 -0.44808130093E+03  0.46289010697E+03  0.80419002446E+02 0.  1.
          1    1    1    2  501    0 -0.24516594210E+02 -0.44787872817E+02 -0.64151504763E+03  0.64354376174E+03  0.00000000000E+00 0. -1.
         -2    1    1    2    0  502 -0.42360540411E+01 -0.33929775482E+02  0.17648466636E+03  0.17976654661E+03  0.00000000000E+00 0.  1.
<mgrwt>
<rscale>  2 0.10070016E+03</rscale>
<asrwt>0</asrwt>
<pdfrwt beam="1">  1       21 0.28699134E-01 0.10070016E+03</pdfrwt>
<pdfrwt beam="2">  1       21 0.16917785E+00 0.10070016E+03</pdfrwt>
<totfact> 0.28104325E+03</totfact>
</mgrwt>
</event>
<event>
 5    1  0.1590180E+000  0.9144310E+02  0.7546771E-02  0.1299394E+00
         21   -1    0    0  503  502  0.00000000000E+00  0.00000000000E+00  0.45508922675E+03  0.45508922675E+03  0.00000000000E+00 0.  1.
         21   -1    0    0  501  503 -0.00000000000E+00 -0.00000000000E+00 -0.28473620827E+02  0.28473620827E+02  0.00000000000E+00 0.  1.
         24    1    1    2    0    0  0.62680656476E+02 -0.30503260901E+02  0.36039995835E+03  0.37578539029E+03  0.80419002446E+02 0.  1.
          1    1    1    2  501    0 -0.10858522685E+02  0.21186525917E+02  0.82215962882E+00  0.23821258191E+02  0.00000000000E+00 0. -1.
         -2    1    1    2    0  502 -0.51822133791E+02  0.93167349840E+01  0.65393487945E+02  0.83956199098E+02  0.00000000000E+00 0.  1.
<mgrwt>
<rscale>  2 0.91443102E+02</rscale>
<asrwt>0</asrwt>
<pdfrwt beam="1">  1       21 0.70013722E-01 0.91443102E+02</pdfrwt>
<pdfrwt beam="2">  1       21 0.43805574E-02 0.91443102E+02</pdfrwt>
<totfact> 0.62866109E+05</totfact>
</mgrwt>
</event>
<event>
 5    1  0.1590180E+000  0.1015643E+03  0.7546771E-02  0.1277040E+00
         21   -1    0    0  503  502  0.00000000000E+00  0.00000000000E+00  0.22414799210E+03  0.22414799210E+03  0.00000000000E+00 0.  1.
         21   -1    0    0  501  503 -0.00000000000E+00 -0.00000000000E+00 -0.52953054940E+02  0.52953054940E+02  0.00000000000E+00 0.  1.
         24    1    1    2    0    0 -0.59242396096E+02 -0.59068003367E+02  0.71315619616E+02  0.13620508094E+03  0.80419002446E+02 0.  1.
          1    1    1    2  501    0  0.27487403080E+02  0.11285684460E+02  0.51635997337E+01  0.30159356160E+02  0.00000000000E+00 0. -1.
         -2    1    1    2    0  502  0.31754993017E+02  0.47782318908E+02  0.94715717813E+02  0.11073660995E+03  0.00000000000E+00 0.  1.
<mgrwt>
<rscale>  2 0.10156429E+03</rscale>
<asrwt>0</asrwt>
<pdfrwt beam="1">  1       21 0.34484306E-01 0.10156429E+03</pdfrwt>
<pdfrwt beam="2">  1       21 0.81466239E-02 0.10156429E+03</pdfrwt>
<totfact> 0.94196969E+05</totfact>
</mgrwt>
</event>
<event>
 5    1  0.1590180E+000  0.9654438E+02  0.7546771E-02  0.1287735E+00
         21   -1    0    0  503  502  0.00000000000E+00  0.00000000000E+00  0.56045374563E+02  0.56045374563E+02  0.00000000000E+00 0.  1.
         21   -1    0    0  501  503 -0.00000000000E+00 -0.00000000000E+00 -0.16929632646E+03  0.16929632646E+03  0.00000000000E+00 0.  1.
         24    1    1    2    0    0 -0.48649179417E+02  0.13006027048E+02 -0.68047536720E+02  0.11676293335E+03  0.80419002446E+02 0.  1.
          1    1    1    2  501    0  0.26928764288E+02 -0.49145484015E+02 -0.20263569165E+02  0.59590680316E+02  0.00000000000E+00 0. -1.
         -2    1    1    2    0  502  0.21720415129E+02  0.36139456968E+02 -0.24939846011E+02  0.48988087351E+02  0.00000000000E+00 0.  1.
<mgrwt>
<rscale>  2 0.96544376E+02</rscale>
<asrwt>0</asrwt>
<pdfrwt beam="1">  1       21 0.86223656E-02 0.96544376E+02</pdfrwt>
<pdfrwt beam="2">  1       21 0.26045588E-01 0.96544376E+02</pdfrwt>
<totfact> 0.14610577E+06</totfact>
</mgrwt>
</event>
<event>
 5    1  0.1590180E+000  0.7025985E+02  0.7546771E-02  0.1359212E+00
         21   -1    0    0  501  502  0.00000000000E+00  0.00000000000E+00  0.12594111193E+03  0.12594111193E+03  0.00000000000E+00 0.  1.
         21   -1    0    0  502  503 -0.00000000000E+00 -0.00000000000E+00 -0.59233577105E+02  0.59233577105E+02  0.00000000000E+00 0. -1.
         24    1    1    2    0    0  0.11945937175E+02  0.66271814469E+01  0.28617561427E+02  0.86445391579E+02  0.80419002446E+02 0. -1.
          1    1    1    2  501    0 -0.26763947938E+02  0.16529390412E+02  0.57178497412E+02  0.65260326561E+02  0.00000000000E+00 0. -1.
         -2    1    1    2    0  503  0.14818010762E+02 -0.23156571859E+02 -0.19088524018E+02  0.33468970889E+02  0.00000000000E+00 0.  1.
<mgrwt>
<rscale>  2 0.70259845E+02</rscale>
<asrwt>0</asrwt>
<pdfrwt beam="1">  1       21 0.19375556E-01 0.70259845E+02</pdfrwt>
<pdfrwt beam="2">  1       21 0.91128580E-02 0.70259845E+02</pdfrwt>
<totfact> 0.22656937E+06</totfact>
</mgrwt>
</event>
<event>
 5    1  0.1590180E+000  0.1001189E+03  0.7546771E-02  0.1280046E+00
         21   -1    0    0  501  502  0.00000000000E+00  0.00000000000E+00  0.41766454033E+03  0.41766454033E+03  0.00000000000E+00 0. -1.
         21   -1    0    0  502  503 -0.00000000000E+00 -0.00000000000E+00 -0.96620688610E+02  0.96620688610E+02  0.00000000000E+00 0.  1.
         24    1    1    2    0    0  0.46948947853E+02 -0.13991980930E+01  0.26309181166E+02  0.96775773972E+02  0.80419002446E+02 0. -1.
          1    1    1    2  501    0 -0.77016490903E+02  0.23615163644E+00  0.34795240163E+03  0.35637405832E+03  0.00000000000E+00 0. -1.
         -2    1    1    2    0  503  0.30067543050E+02  0.11630464566E+01 -0.53217731081E+02  0.61135396650E+02  0.00000000000E+00 0.  1.
<mgrwt>
<rscale>  2 0.10011893E+03</rscale>
<asrwt>0</asrwt>
<pdfrwt beam="1">  1       21 0.64256082E-01 0.10011893E+03</pdfrwt>
<pdfrwt beam="2">  1       21 0.14864722E-01 0.10011893E+03</pdfrwt>
<totfact> 0.92748540E+04</totfact>
</mgrwt>
</event>
<event>
 5    1  0.1590180E+000  0.1008606E+03  0.7546771E-02  0.1278497E+00
         21   -1    0    0  503  502  0.00000000000E+00  0.00000000000E+00  0.12379236999E+02  0.12379236999E+02  0.00000000000E+00 0. -1.
         21   -1    0    0  501  503 -0.00000000000E+00 -0.00000000000E+00 -0.17813172955E+04  0.17813172955E+04  0.00000000000E+00 0. -1.
         24    1    1    2    0    0 -0.26001101299E+02  0.51080472249E+02 -0.31650791195E+03  0.33155655053E+03  0.80419002446E+02 0. -1.
          1    1    1    2  501    0  0.56087973574E+02 -0.45816849796E+02 -0.13968003230E+04  0.13986765841E+04  0.00000000000E+00 0. -1.
         -2    1    1    2    0  502 -0.30086872275E+02 -0.52636224525E+01 -0.55629823534E+02  0.63463397884E+02  0.00000000000E+00 0.  1.
<mgrwt>
<rscale>  2 0.10086060E+03</rscale>
<asrwt>0</asrwt>
<pdfrwt beam="1">  1       21 0.19044971E-02 0.10086060E+03</pdfrwt>
<pdfrwt beam="2">  1       21 0.27404895E+00 0.10086060E+03</pdfrwt>
<totfact> 0.70315833E+04</totfact>
</mgrwt>
</event>
<event>
 5    1  0.1590180E+000  0.6584042E+02  0.7546771E-02  0.1374838E+00
         21   -1    0    0  501  502  0.00000000000E+00  0.00000000000E+00  0.41032005223E+02  0.41032005223E+02  0.00000000000E+00 0.  1.
         21   -1    0    0  502  503 -0.00000000000E+00 -0.00000000000E+00 -0.34446253289E+03  0.34446253289E+03  0.00000000000E+00 0.  1.
         24    1    1    2    0    0 -0.10663020117E+02 -0.27109658927E+02 -0.33656215709E+02  0.91916214105E+02  0.80419002446E+02 0.  1.
          1    1    1    2  501    0  0.22127624337E+02  0.73736837522E+01 -0.49056717400E+00  0.23329029706E+02  0.00000000000E+00 0. -1.
         -2    1    1    2    0  503 -0.11464604219E+02  0.19735975175E+02 -0.26928374479E+03  0.27024929430E+03  0.00000000000E+00 0.  1.
<mgrwt>
<rscale>  2 0.65840425E+02</rscale>
<asrwt>0</asrwt>
<pdfrwt beam="1">  1       21 0.63126162E-02 0.65840425E+02</pdfrwt>
<pdfrwt beam="2">  1       21 0.52994236E-01 0.65840425E+02</pdfrwt>
<totfact> 0.61290160E+05</totfact>
</mgrwt>
</event>
<event>
 5    1  0.1590180E+000  0.8794487E+02  0.7546771E-02  0.1307906E+00
         21   -1    0    0  501  502  0.00000000000E+00  0.00000000000E+00  0.35224725644E+02  0.35224725644E+02  0.00000000000E+00 0. -1.
         21   -1    0    0  502  503 -0.00000000000E+00 -0.00000000000E+00 -0.42467999742E+03  0.42467999742E+03  0.00000000000E+00 0.  1.
         24    1    1    2    0    0  0.14529527958E+02 -0.10136549884E+02 -0.87309405064E+02  0.12001668631E+03  0.80419002446E+02 0. -1.
          1    1    1    2  501    0  0.27035318636E+02  0.35672748926E+02 -0.12934518179E+02  0.46591364331E+02  0.00000000000E+00 0. -1.
         -2    1    1    2    0  503 -0.41564846594E+02 -0.25536199043E+02 -0.28921134854E+03  0.29329667242E+03  0.00000000000E+00 0.  1.
<mgrwt>
<rscale>  2 0.87944870E+02</rscale>
<asrwt>0</asrwt>
<pdfrwt beam="1">  1       21 0.54191885E-02 0.87944870E+02</pdfrwt>
<pdfrwt beam="2">  1       21 0.65335385E-01 0.87944870E+02</pdfrwt>
<totfact> 0.51195643E+05</totfact>
</mgrwt>
</event>
<event>
 5    1  0.1590180E+000  0.1057173E+03  0.7546771E-02  0.1268713E+00
         21   -1    0    0  503  502  0.00000000000E+00  0.00000000000E+00  0.33865307063E+02  0.33865307063E+02  0.00000000000E+00 0.  1.
         21   -1    0    0  501  503 -0.00000000000E+00 -0.00000000000E+00 -0.49254246523E+03  0.49254246523E+03  0.00000000000E+00 0. -1.
         24    1    1    2    0    0 -0.78501845391E+02 -0.42580367163E+02 -0.32420491336E+03  0.34576244620E+03  0.80419002446E+02 0.  0.
          1    1    1    2  501    0  0.28460297952E+02  0.25974722392E+02 -0.11990672933E+03  0.12594561724E+03  0.00000000000E+00 0. -1.
         -2    1    1    2    0  502  0.50041547439E+02  0.16605644771E+02 -0.14565515478E+02  0.54699708861E+02  0.00000000000E+00 0.  1.
<mgrwt>
<rscale>  2 0.10571733E+03</rscale>
<asrwt>0</asrwt>
<pdfrwt beam="1">  1       21 0.52100470E-02 0.10571733E+03</pdfrwt>
<pdfrwt beam="2">  1       21 0.75775767E-01 0.10571733E+03</pdfrwt>
<totfact> 0.39605055E+05</totfact>
</mgrwt>
</event>
<event>
 5    1  0.1590180E+000  0.1099906E+03  0.7546771E-02  0.1260587E+00
         21   -1    0    0  501  502  0.00000000000E+00  0.00000000000E+00  0.13130838566E+03  0.13130838566E+03  0.00000000000E+00 0. -1.
         21   -1    0    0  502  503 -0.00000000000E+00 -0.00000000000E+00 -0.28475558000E+03  0.28475558000E+03  0.00000000000E+00 0.  1.
         24    1    1    2    0    0 -0.30906721679E+02  0.71186261993E+02 -0.65577006681E+02  0.12957727077E+03  0.80419002446E+02 0.  1.
          1    1    1    2  501    0  0.43915733957E+02 -0.91778700528E+01  0.88423139831E+02  0.99153802980E+02  0.00000000000E+00 0. -1.
         -2    1    1    2    0  503 -0.13009012278E+02 -0.62008391940E+02 -0.17629332750E+03  0.18733289191E+03  0.00000000000E+00 0.  1.
<mgrwt>
<rscale>  2 0.10999058E+03</rscale>
<asrwt>0</asrwt>
<pdfrwt beam="1">  1       21 0.20201290E-01 0.10999058E+03</pdfrwt>
<pdfrwt beam="2">  1       21 0.43808551E-01 0.10999058E+03</pdfrwt>
<totfact> 0.11696557E+05</totfact>
</mgrwt>
</event>
<event>
 5    1  0.1590180E+000  0.6320642E+02  0.7546771E-02  0.1384848E+00
         21   -1    0    0  501  502  0.00000000000E+00  0.00000000000E+00  0.21379840154E+02  0.21379840154E+02  0.00000000000E+00 0. -1.
         21   -1    0    0  502  503 -0.00000000000E+00 -0.00000000000E+00 -0.78687587414E+03  0.78687587414E+03  0.00000000000E+00 0.  1.
         24    1    1    2    0    0  0.14825824387E+02  0.13907305456E+02 -0.11680621273E+03  0.14326243576E+03  0.80419002446E+02 0. -1.
          1    1    1    2  501    0  0.74582699611E+01 -0.19167939076E+02 -0.53581784835E+01  0.21254311466E+02  0.00000000000E+00 0. -1.
         -2    1    1    2    0  503 -0.22284094348E+02  0.52606336201E+01 -0.64333164277E+03  0.64373896706E+03  0.00000000000E+00 0.  1.
<mgrwt>
<rscale>  2 0.63206416E+02</rscale>
<asrwt>0</asrwt>
<pdfrwt beam="1">  1       21 0.32892069E-02 0.63206416E+02</pdfrwt>
<pdfrwt beam="2">  1       21 0.12105780E+00 0.63206416E+02</pdfrwt>
<totfact> 0.29198881E+05</totfact>
</mgrwt>
</event>
<event>
 5    1  0.1590180E+000  0.1694313E+03  0.7546771E-02  0.1178442E+00
         21   -1    0    0  503  502  0.00000000000E+00  0.00000000000E+00  0.12879439828E+03  0.12879439828E+03  0.00000000000E+00 0.  1.
         21   -1    0    0  501  503 -0.00000000000E+00 -0.00000000000E+00 -0.47593512919E+03  0.47593512919E+03  0.00000000000E+00 0. -1.
         24    1    1    2    0    0  0.60159231587E+02  0.12388900548E+03 -0.19530300403E+03  0.25214697730E+03  0.80419002446E+02 0.  1.
          1    1    1    2  501    0 -0.91963153839E+02 -0.11315633020E+03 -0.22726697873E+03  0.27002195531E+03  0.00000000000E+00 0. -1.
         -2    1    1    2    0  502  0.31803922251E+02 -0.10732675277E+02  0.75429251852E+02  0.82560594863E+02  0.00000000000E+00 0.  1.
<mgrwt>
<rscale>  2 0.16943129E+03</rscale>
<asrwt>0</asrwt>
<pdfrwt beam="1">  1       21 0.19814523E-01 0.16943129E+03</pdfrwt>
<pdfrwt beam="2">  1       21 0.73220790E-01 0.16943129E+03</pdfrwt>
<totfact> 0.39877235E+04</totfact>
</mgrwt>
</event>
<event>
 5    1  0.1590180E+000  0.6670542E+02  0.7546771E-02  0.1371669E+00
         21   -1    0    0  501  502  0.00000000000E+00  0.00000000000E+00  0.14658770916E+02  0.14658770916E+02  0.00000000000E+00 0. -1.
         21   -1    0    0  502  503 -0.00000000000E+00 -0.00000000000E+00 -0.31813245414E+03  0.31813245414E+03  0.00000000000E+00 0.  1.
         24    1    1    2    0    0 -0.10326759295E+00  0.11068356022E+02 -0.15847776814E+03  0.17805880522E+03  0.80419002446E+02 0.  1.
          1    1    1    2  501    0  0.25538745066E+02 -0.69440842827E+01 -0.53667510312E+02  0.59838528301E+02  0.00000000000E+00 0. -1.
         -2    1    1    2    0  503 -0.25435477473E+02 -0.41242717390E+01 -0.91328404777E+02  0.94893891536E+02  0.00000000000E+00 0.  1.
<mgrwt>
<rscale>  2 0.66705417E+02</rscale>
<asrwt>0</asrwt>
<pdfrwt beam="1">  1       21 0.22551955E-02 0.66705417E+02</pdfrwt>
<pdfrwt beam="2">  1       21 0.48943454E-01 0.66705417E+02</pdfrwt>
<totfact> 0.38551042E+06</totfact>
</mgrwt>
</event>
<event>
 5    1  0.1590180E+000  0.8704993E+02  0.7546771E-02  0.1310157E+00
         21   -1    0    0  503  502  0.00000000000E+00  0.00000000000E+00  0.18360293114E+04  0.18360293114E+04  0.00000000000E+00 0.  1.
         21   -1    0    0  501  503 -0.00000000000E+00 -0.00000000000E+00 -0.11889711822E+02  0.11889711822E+02  0.00000000000E+00 0. -1.
         24    1    1    2    0    0  0.11366239616E+02 -0.28817639281E+02  0.51841622771E+03  0.52553044521E+03  0.80419002446E+02 0.  1.
          1    1    1    2  501    0 -0.38809095803E+02 -0.10285165453E+02  0.43253599727E+02  0.59015289839E+02  0.00000000000E+00 0. -1.
         -2    1    1    2    0  502  0.27442856186E+02  0.39102804734E+02  0.12624697721E+04  0.12633732881E+04  0.00000000000E+00 0.  1.
<mgrwt>
<rscale>  2 0.87049927E+02</rscale>
<asrwt>0</asrwt>
<pdfrwt beam="1">  1       21 0.28246582E+00 0.87049927E+02</pdfrwt>
<pdfrwt beam="2">  1       21 0.18291879E-02 0.87049927E+02</pdfrwt>
<totfact> 0.68788127E+04</totfact>
</mgrwt>
</event>
<event>
 5    1  0.1590180E+000  0.9623367E+02  0.7546771E-02  0.1288421E+00
         21   -1    0    0  501  502  0.00000000000E+00  0.00000000000E+00  0.80164133435E+02  0.80164133435E+02  0.00000000000E+00 0. -1.
         21   -1    0    0  502  503 -0.00000000000E+00 -0.00000000000E+00 -0.11889030005E+03  0.11889030005E+03  0.00000000000E+00 0.  1.
         24    1    1    2    0    0  0.15263785371E+02  0.46811074102E+02 -0.27088268129E+02  0.98108358599E+02  0.80419002446E+02 0.  1.
          1    1    1    2  501    0 -0.36847691703E+02 -0.61760393430E+02  0.73562107021E+00  0.71921065891E+02  0.00000000000E+00 0. -1.
         -2    1    1    2    0  503  0.21583906331E+02  0.14949319328E+02 -0.12373519555E+02  0.29025008993E+02  0.00000000000E+00 0.  1.
<mgrwt>
<rscale>  2 0.96233674E+02</rscale>
<asrwt>0</asrwt>
<pdfrwt beam="1">  1       21 0.12332944E-01 0.96233674E+02</pdfrwt>
<pdfrwt beam="2">  1       21 0.18290815E-01 0.96233674E+02</pdfrwt>
<totfact> 0.15072024E+06</totfact>
</mgrwt>
</event>
<event>
 5    1  0.1590180E+000  0.8287118E+02  0.7546771E-02  0.1321095E+00
         21   -1    0    0  503  502  0.00000000000E+00  0.00000000000E+00  0.19129602672E+02  0.19129602672E+02  0.00000000000E+00 0.  1.
         21   -1    0    0  501  503 -0.00000000000E+00 -0.00000000000E+00 -0.37453668594E+03  0.37453668594E+03  0.00000000000E+00 0. -1.
         24    1    1    2    0    0  0.22083885845E+02  0.27088718996E+02 -0.17745386025E+03  0.19793581076E+03  0.80419002446E+02 0. -1.
          1    1    1    2  501    0 -0.47635570769E+02 -0.18469142652E+02 -0.14110012328E+03  0.15006499133E+03  0.00000000000E+00 0. -1.
         -2    1    1    2    0  502  0.25551684925E+02 -0.86195763438E+01 -0.36853099739E+02  0.45665486521E+02  0.00000000000E+00 0.  1.
<mgrwt>
<rscale>  2 0.82871179E+02</rscale>
<asrwt>0</asrwt>
<pdfrwt beam="1">  1       21 0.29430157E-02 0.82871179E+02</pdfrwt>
<pdfrwt beam="2">  1       21 0.57621030E-01 0.82871179E+02</pdfrwt>
<totfact> 0.18184556E+06</totfact>
</mgrwt>
</event>
<event>
 5    1  0.1590180E+000  0.6559702E+02  0.7546771E-02  0.1375740E+00
         21   -1    0    0  501  502  0.00000000000E+00  0.00000000000E+00  0.21323006032E+03  0.21323006032E+03  0.00000000000E+00 0.  1.
         21   -1    0    0  502  503 -0.00000000000E+00 -0.00000000000E+00 -0.11522126294E+03  0.11522126294E+03  0.00000000000E+00 0. -1.
         24    1    1    2    0    0 -0.48370762109E+01  0.23345592800E+01  0.41787561754E+02  0.90786913952E+02  0.80419002446E+02 0.  1.
          1    1    1    2  501    0 -0.99413482723E+01  0.20851727424E+02  0.14391707040E+03  0.14575921273E+03  0.00000000000E+00 0. -1.
         -2    1    1    2    0  503  0.14778424483E+02 -0.23186286704E+02 -0.87695834775E+02  0.91905196579E+02  0.00000000000E+00 0.  1.
<mgrwt>
<rscale>  2 0.65597021E+02</rscale>
<asrwt>0</asrwt>
<pdfrwt beam="1">  1       21 0.32804625E-01 0.65597021E+02</pdfrwt>
<pdfrwt beam="2">  1       21 0.17726348E-01 0.65597021E+02</pdfrwt>
<totfact> 0.26556286E+05</totfact>
</mgrwt>
</event>
<event>
 5    1  0.1590180E+000  0.6789264E+02  0.7546771E-02  0.1367409E+00
         21   -1    0    0  503  502  0.00000000000E+00  0.00000000000E+00  0.17533170645E+03  0.17533170645E+03  0.00000000000E+00 0.  1.
         21   -1    0    0  501  503 -0.00000000000E+00 -0.00000000000E+00 -0.38176444366E+02  0.38176444366E+02  0.00000000000E+00 0. -1.
         24    1    1    2    0    0 -0.26694474775E+01 -0.21653384967E+02  0.98120475806E+02  0.12872776995E+03  0.80419002446E+02 0.  0.
          1    1    1    2  501    0 -0.19931379017E+02  0.22222579858E+02 -0.94270353138E+01  0.31304503188E+02  0.00000000000E+00 0. -1.
         -2    1    1    2    0  502  0.22600826494E+02 -0.56919489036E+00  0.48461821597E+02  0.53475877679E+02  0.00000000000E+00 0.  1.
<mgrwt>
<rscale>  2 0.67892636E+02</rscale>
<asrwt>0</asrwt>
<pdfrwt beam="1">  1       21 0.26974108E-01 0.67892636E+02</pdfrwt>
<pdfrwt beam="2">  1       21 0.58732992E-02 0.67892636E+02</pdfrwt>
<totfact> 0.25806888E+06</totfact>
</mgrwt>
</event>
<event>
 5    1  0.1590180E+000  0.1102493E+03  0.7546771E-02  0.1260109E+00
         21   -1    0    0  503  502  0.00000000000E+00  0.00000000000E+00  0.31154136166E+03  0.31154136166E+03  0.00000000000E+00 0.  1.
         21   -1    0    0  501  503 -0.00000000000E+00 -0.00000000000E+00 -0.80386611126E+02  0.80386611126E+02  0.00000000000E+00 0. -1.
         24    1    1    2    0    0  0.16974144827E+02  0.43036081255E+02  0.12964034663E+03  0.15941788266E+03  0.80419002446E+02 0.  0.
          1    1    1    2  501    0  0.23825930111E+02  0.33430289299E+02 -0.45853441027E+02  0.61545083007E+02  0.00000000000E+00 0. -1.
         -2    1    1    2    0  502 -0.40800074938E+02 -0.76466370554E+02  0.14736784493E+03  0.17096500712E+03  0.00000000000E+00 0.  1.
<mgrwt>
<rscale>  2 0.11024929E+03</rscale>
<asrwt>0</asrwt>
<pdfrwt beam="1">  1       21 0.47929440E-01 0.11024929E+03</pdfrwt>
<pdfrwt beam="2">  1       21 0.12367171E-01 0.11024929E+03</pdfrwt>
<totfact> 0.23616546E+05</totfact>
</mgrwt>
</event>
<event>
 5    1  0.1590180E+000  0.8122629E+02  0.7546771E-02  0.1325607E+00
         21   -1    0    0  503  502  0.00000000000E+00  0.00000000000E+00  0.70024777302E+02  0.70024777302E+02  0.00000000000E+00 0. -1.
         21   -1    0    0  501  503 -0.00000000000E+00 -0.00000000000E+00 -0.13745117038E+03  0.13745117038E+03  0.00000000000E+00 0.  1.
         24    1    1    2    0    0 -0.47560729414E+01  0.44426391584E+01 -0.93342981890E+01  0.81220085875E+02  0.80419002446E+02 0. -1.
          1    1    1    2  501    0 -0.38431590172E+02 -0.32099660797E+01 -0.71313027465E+02  0.81073046641E+02  0.00000000000E+00 0. -1.
         -2    1    1    2    0  502  0.43187663114E+02 -0.12326730787E+01  0.13220932576E+02  0.45182815166E+02  0.00000000000E+00 0.  1.
<mgrwt>
<rscale>  2 0.81226295E+02</rscale>
<asrwt>0</asrwt>
<pdfrwt beam="1">  1       21 0.10773043E-01 0.81226295E+02</pdfrwt>
<pdfrwt beam="2">  1       21 0.21146334E-01 0.81226295E+02</pdfrwt>
<totfact> 0.14569784E+06</totfact>
</mgrwt>
</event>
<event>
 5    1  0.1590180E+000  0.7334986E+02  0.7546771E-02  0.1349058E+00
         21   -1    0    0  503  502  0.00000000000E+00  0.00000000000E+00  0.42922921912E+03  0.42922921912E+03  0.00000000000E+00 0.  1.
         21   -1    0    0  501  503 -0.00000000000E+00 -0.00000000000E+00 -0.56409847267E+02  0.56409847267E+02  0.00000000000E+00 0. -1.
         24    1    1    2    0    0 -0.58276982774E+01  0.50744668903E+02  0.58387994182E+02  0.11173789558E+03  0.80419002446E+02 0.  1.
          1    1    1    2  501    0 -0.38259343118E+00 -0.22841565165E+02 -0.24655118473E+02  0.33611878018E+02  0.00000000000E+00 0. -1.
         -2    1    1    2    0  502  0.62102917086E+01 -0.27903103738E+02  0.33908649614E+03  0.34028929279E+03  0.00000000000E+00 0.  1.
<mgrwt>
<rscale>  2 0.73349855E+02</rscale>
<asrwt>0</asrwt>
<pdfrwt beam="1">  1       21 0.66035262E-01 0.73349855E+02</pdfrwt>
<pdfrwt beam="2">  1       21 0.86784383E-02 0.73349855E+02</pdfrwt>
<totfact> 0.22657073E+05</totfact>
</mgrwt>
</event>
<event>
 5    1  0.1590180E+000  0.6348409E+02  0.7546771E-02  0.1383766E+00
         21   -1    0    0  501  502  0.00000000000E+00  0.00000000000E+00  0.96555913138E+03  0.96555913138E+03  0.00000000000E+00 0. -1.
         21   -1    0    0  502  503 -0.00000000000E+00 -0.00000000000E+00 -0.33080271710E+02  0.33080271710E+02  0.00000000000E+00 0.  1.
         24    1    1    2    0    0  0.28705274167E+02 -0.57243286843E+01  0.20292145035E+03  0.22022963395E+03  0.80419002446E+02 0. -1.
          1    1    1    2  501    0 -0.17819149224E+02 -0.11358424229E+02  0.74960926322E+03  0.74990704983E+03  0.00000000000E+00 0. -1.
         -2    1    1    2    0  503 -0.10886124943E+02  0.17082752913E+02 -0.20051853898E+02  0.28502719311E+02  0.00000000000E+00 0.  1.
<mgrwt>
<rscale>  2 0.63484095E+02</rscale>
<asrwt>0</asrwt>
<pdfrwt beam="1">  1       21 0.14854754E+00 0.63484095E+02</pdfrwt>
<pdfrwt beam="2">  1       21 0.50892733E-02 0.63484095E+02</pdfrwt>
<totfact> 0.86937687E+04</totfact>
</mgrwt>
</event>
<event>
 5    1  0.1590180E+000  0.6870204E+02  0.7546771E-02  0.1364563E+00
         21   -1    0    0  503  502  0.00000000000E+00  0.00000000000E+00  0.63469345717E+02  0.63469345717E+02  0.00000000000E+00 0. -1.
         21   -1    0    0  501  503 -0.00000000000E+00 -0.00000000000E+00 -0.10212502232E+03  0.10212502232E+03  0.00000000000E+00 0. -1.
         24    1    1    2    0    0  0.38128352334E+01  0.28932661343E+02 -0.93018935597E+01  0.86054504723E+02  0.80419002446E+02 0. -1.
          1    1    1    2  501    0  0.19470360932E+02 -0.16123634122E+02 -0.42837661829E+02  0.49740645383E+02  0.00000000000E+00 0. -1.
         -2    1    1    2    0  502 -0.23283196166E+02 -0.12809027222E+02  0.13483878788E+02  0.29799217930E+02  0.00000000000E+00 0.  1.
<mgrwt>
<rscale>  2 0.68702038E+02</rscale>
<asrwt>0</asrwt>
<pdfrwt beam="1">  1       21 0.97645147E-02 0.68702038E+02</pdfrwt>
<pdfrwt beam="2">  1       21 0.15711542E-01 0.68702038E+02</pdfrwt>
<totfact> 0.29279651E+06</totfact>
</mgrwt>
</event>
<event>
 5    1  0.1590180E+000  0.6589397E+02  0.7546771E-02  0.1374640E+00
         21   -1    0    0  501  502  0.00000000000E+00  0.00000000000E+00  0.29883270601E+02  0.29883270601E+02  0.00000000000E+00 0. -1.
         21   -1    0    0  502  503 -0.00000000000E+00 -0.00000000000E+00 -0.34749216346E+03  0.34749216346E+03  0.00000000000E+00 0.  1.
         24    1    1    2    0    0  0.57684645774E+01  0.11527954716E+02 -0.47094494999E+02  0.94081222022E+02  0.80419002446E+02 0. -1.
          1    1    1    2  501    0  0.84324933226E+01 -0.27620989218E+02 -0.29347127587E+02  0.41173776687E+02  0.00000000000E+00 0. -1.
         -2    1    1    2    0  503 -0.14200957900E+02  0.16093034502E+02 -0.24116727027E+03  0.24212043535E+03  0.00000000000E+00 0.  1.
<mgrwt>
<rscale>  2 0.65893965E+02</rscale>
<asrwt>0</asrwt>
<pdfrwt beam="1">  1       21 0.45974264E-02 0.65893965E+02</pdfrwt>
<pdfrwt beam="2">  1       21 0.53460331E-01 0.65893965E+02</pdfrwt>
<totfact> 0.10178182E+06</totfact>
</mgrwt>
</event>
<event>
 5    1  0.1590180E+000  0.6935769E+02  0.7546771E-02  0.1362291E+00
         21   -1    0    0  503  502  0.00000000000E+00  0.00000000000E+00  0.69074548312E+01  0.69074548312E+01  0.00000000000E+00 0.  1.
         21   -1    0    0  501  503 -0.00000000000E+00 -0.00000000000E+00 -0.21360487517E+04  0.21360487517E+04  0.00000000000E+00 0. -1.
         24    1    1    2    0    0  0.12496464075E+02 -0.10517617886E+02 -0.89833823627E+03  0.90207848029E+03  0.80419002446E+02 0.  1.
          1    1    1    2  501    0 -0.32002308970E+02 -0.41210412926E+01 -0.12047839252E+04  0.12052159297E+04  0.00000000000E+00 0. -1.
         -2    1    1    2    0  502  0.19505844895E+02  0.14638659179E+02 -0.26019135463E+02  0.35661796616E+02  0.00000000000E+00 0.  1.
<mgrwt>
<rscale>  2 0.69357685E+02</rscale>
<asrwt>0</asrwt>
<pdfrwt beam="1">  1       21 0.10626847E-02 0.69357685E+02</pdfrwt>
<pdfrwt beam="2">  1       21 0.32862310E+00 0.69357685E+02</pdfrwt>
<totfact> 0.93947523E+04</totfact>
</mgrwt>
</event>
<event>
 5    1  0.1590180E+000  0.7948025E+02  0.7546771E-02  0.1330533E+00
         21   -1    0    0  501  502  0.00000000000E+00  0.00000000000E+00  0.13601422546E+03  0.13601422546E+03  0.00000000000E+00 0.  1.
         21   -1    0    0  502  503 -0.00000000000E+00 -0.00000000000E+00 -0.83195131234E+02  0.83195131234E+02  0.00000000000E+00 0.  1.
         24    1    1    2    0    0  0.51687150225E+01 -0.28892962062E+02  0.66397805399E+02  0.10833929752E+03  0.80419002446E+02 0.  1.
          1    1    1    2  501    0 -0.82282848169E+01 -0.21420264814E+02  0.34353600842E+02  0.41312253709E+02  0.00000000000E+00 0. -1.
         -2    1    1    2    0  503  0.30595697944E+01  0.50313226876E+02 -0.47932312012E+02  0.69557805463E+02  0.00000000000E+00 0.  1.
<mgrwt>
<rscale>  2 0.79480246E+02</rscale>
<asrwt>0</asrwt>
<pdfrwt beam="1">  1       21 0.20925265E-01 0.79480246E+02</pdfrwt>
<pdfrwt beam="2">  1       21 0.12799251E-01 0.79480246E+02</pdfrwt>
<totfact> 0.10986318E+06</totfact>
</mgrwt>
</event>
<event>
 5    1  0.1590180E+000  0.1207750E+03  0.7546771E-02  0.1241824E+00
         21   -1    0    0  501  502  0.00000000000E+00  0.00000000000E+00  0.39720967832E+02  0.39720967832E+02  0.00000000000E+00 0.  1.
         21   -1    0    0  502  503 -0.00000000000E+00 -0.00000000000E+00 -0.62127675017E+03  0.62127675017E+03  0.00000000000E+00 0.  1.
         24    1    1    2    0    0  0.39185292206E+02 -0.75612324446E+02 -0.11651670933E+03  0.16521522400E+03  0.80419002446E+02 0.  1.
          1    1    1    2  501    0  0.25657552484E+02  0.46990736824E+02 -0.45391727155E+02  0.70191511174E+02  0.00000000000E+00 0. -1.
         -2    1    1    2    0  503 -0.64842844690E+02  0.28621587623E+02 -0.41964734585E+03  0.42559098283E+03  0.00000000000E+00 0.  1.
<mgrwt>
<rscale>  2 0.12077496E+03</rscale>
<asrwt>0</asrwt>
<pdfrwt beam="1">  1       21 0.61109187E-02 0.12077496E+03</pdfrwt>
<pdfrwt beam="2">  1       21 0.95581029E-01 0.12077496E+03</pdfrwt>
<totfact> 0.17874498E+05</totfact>
</mgrwt>
</event>
<event>
 5    1  0.1590180E+000  0.1020148E+03  0.7546771E-02  0.1276115E+00
         21   -1    0    0  503  502  0.00000000000E+00  0.00000000000E+00  0.31973472848E+03  0.31973472848E+03  0.00000000000E+00 0. -1.
         21   -1    0    0  501  503 -0.00000000000E+00 -0.00000000000E+00 -0.36617698763E+02  0.36617698763E+02  0.00000000000E+00 0.  1.
         24    1    1    2    0    0  0.48665144948E+02  0.53287391712E+02  0.20823512885E+03  0.23459950403E+03  0.80419002446E+02 0. -1.
          1    1    1    2  501    0  0.56800450196E+01 -0.39507107700E+02  0.29800655891E+02  0.49811179084E+02  0.00000000000E+00 0. -1.
         -2    1    1    2    0  502 -0.54345189968E+02 -0.13780284013E+02  0.45081244975E+02  0.71941744131E+02  0.00000000000E+00 0.  1.
<mgrwt>
<rscale>  2 0.10201481E+03</rscale>
<asrwt>0</asrwt>
<pdfrwt beam="1">  1       21 0.49189956E-01 0.10201481E+03</pdfrwt>
<pdfrwt beam="2">  1       21 0.56334923E-02 0.10201481E+03</pdfrwt>
<totfact> 0.86757534E+05</totfact>
</mgrwt>
</event>
<event>
 5    1  0.1590180E+000  0.7816099E+02  0.7546771E-02  0.1334353E+00
         21   -1    0    0  503  502  0.00000000000E+00  0.00000000000E+00  0.20538990678E+03  0.20538990678E+03  0.00000000000E+00 0. -1.
         21   -1    0    0  501  503 -0.00000000000E+00 -0.00000000000E+00 -0.33831211431E+02  0.33831211431E+02  0.00000000000E+00 0.  1.
         24    1    1    2    0    0  0.25098403037E+02 -0.77098563814E+01  0.13021224464E+03  0.15527980013E+03  0.80419002446E+02 0. -1.
          1    1    1    2  501    0 -0.37332381461E+02  0.28930952691E+02  0.19423003111E+02  0.51068187544E+02  0.00000000000E+00 0. -1.
         -2    1    1    2    0  502  0.12233978424E+02 -0.21221096310E+02  0.21923447600E+02  0.32873130537E+02  0.00000000000E+00 0.  1.
<mgrwt>
<rscale>  2 0.78160989E+02</rscale>
<asrwt>0</asrwt>
<pdfrwt beam="1">  1       21 0.31598446E-01 0.78160989E+02</pdfrwt>
<pdfrwt beam="2">  1       21 0.52048019E-02 0.78160989E+02</pdfrwt>
<totfact> 0.23564393E+06</totfact>
</mgrwt>
</event>
<event>
 5    1  0.1590180E+000  0.8703080E+02  0.7546771E-02  0.1310206E+00
         21   -1    0    0  503  502  0.00000000000E+00  0.00000000000E+00  0.46194669746E+03  0.46194669746E+03  0.00000000000E+00 0.  1.
         21   -1    0    0  501  503 -0.00000000000E+00 -0.00000000000E+00 -0.11870887025E+03  0.11870887025E+03  0.00000000000E+00 0.  1.
         24    1    1    2    0    0 -0.54774763764E+02  0.15747934672E+02  0.11252989134E+02  0.99207448867E+02  0.80419002446E+02 0.  1.
          1    1    1    2  501    0  0.92472988968E+00 -0.21335263329E+02 -0.71359578501E+02  0.74486495626E+02  0.00000000000E+00 0. -1.
         -2    1    1    2    0  502  0.53850033874E+02  0.55873286563E+01  0.40334441658E+03  0.40696162322E+03  0.00000000000E+00 0.  1.
<mgrwt>
<rscale>  2 0.87030795E+02</rscale>
<asrwt>0</asrwt>
<pdfrwt beam="1">  1       21 0.71068722E-01 0.87030795E+02</pdfrwt>
<pdfrwt beam="2">  1       21 0.18262903E-01 0.87030795E+02</pdfrwt>
<totfact> 0.52001557E+04</totfact>
</mgrwt>
</event>
<event>
 5    1  0.1590180E+000  0.6473236E+02  0.7546771E-02  0.1378981E+00
         21   -1    0    0  503  502  0.00000000000E+00  0.00000000000E+00  0.10747568948E+02  0.10747568948E+02  0.00000000000E+00 0.  1.
         21   -1    0    0  501  503 -0.00000000000E+00 -0.00000000000E+00 -0.73434274816E+03  0.73434274816E+03  0.00000000000E+00 0. -1.
         24    1    1    2    0    0 -0.90436315271E+01 -0.18726151894E+02 -0.37631049362E+03  0.38536899148E+03  0.80419002446E+02 0.  1.
          1    1    1    2  501    0  0.23815484513E+02  0.17243509303E+01 -0.33116453883E+03  0.33202424982E+03  0.00000000000E+00 0. -1.
         -2    1    1    2    0  502 -0.14771852986E+02  0.17001800963E+02 -0.16120146769E+02  0.27697075811E+02  0.00000000000E+00 0.  1.
<mgrwt>
<rscale>  2 0.64732361E+02</rscale>
<asrwt>0</asrwt>
<pdfrwt beam="1">  1       21 0.16534719E-02 0.64732361E+02</pdfrwt>
<pdfrwt beam="2">  1       21 0.11297582E+00 0.64732361E+02</pdfrwt>
<totfact> 0.10290787E+06</totfact>
</mgrwt>
</event>
<event>
 5    1  0.1590180E+000  0.6882493E+02  0.7546771E-02  0.1364135E+00
         21   -1    0    0  503  502  0.00000000000E+00  0.00000000000E+00  0.80921510978E+01  0.80921510978E+01  0.00000000000E+00 0. -1.
         21   -1    0    0  501  503 -0.00000000000E+00 -0.00000000000E+00 -0.87272046405E+03  0.87272046405E+03  0.00000000000E+00 0. -1.
         24    1    1    2    0    0 -0.41787896485E+02 -0.27308445630E+01 -0.40286348293E+03  0.41294053766E+03  0.80419002446E+02 0. -1.
          1    1    1    2  501    0  0.23844952198E+02 -0.90624870850E+01 -0.42122889691E+03  0.42200058532E+03  0.00000000000E+00 0. -1.
         -2    1    1    2    0  502  0.17942944287E+02  0.11793331648E+02 -0.40535933104E+02  0.45871492168E+02  0.00000000000E+00 0.  1.
<mgrwt>
<rscale>  2 0.68824934E+02</rscale>
<asrwt>0</asrwt>
<pdfrwt beam="1">  1       21 0.12449472E-02 0.68824934E+02</pdfrwt>
<pdfrwt beam="2">  1       21 0.13426459E+00 0.68824934E+02</pdfrwt>
<totfact> 0.10637558E+06</totfact>
</mgrwt>
</event>
<event>
 5    1  0.1590180E+000  0.6619015E+02  0.7546771E-02  0.1373550E+00
         21   -1    0    0  501  502  0.00000000000E+00  0.00000000000E+00  0.10442775953E+03  0.10442775953E+03  0.00000000000E+00 0. -1.
         21   -1    0    0  502  503 -0.00000000000E+00 -0.00000000000E+00 -0.79492850658E+02  0.79492850658E+02  0.00000000000E+00 0. -1.
         24    1    1    2    0    0 -0.24244011118E+02  0.29400639516E+02  0.56565465855E+02  0.10544684709E+03  0.80419002446E+02 0. -1.
          1    1    1    2  501    0  0.52843867370E+01 -0.22658657028E+02  0.15002613561E+02  0.27684253559E+02  0.00000000000E+00 0. -1.
         -2    1    1    2    0  503  0.18959624381E+02 -0.67419824881E+01 -0.46633170543E+02  0.50789509541E+02  0.00000000000E+00 0.  1.
<mgrwt>
<rscale>  2 0.66190150E+02</rscale>
<asrwt>0</asrwt>
<pdfrwt beam="1">  1       21 0.16065809E-01 0.66190150E+02</pdfrwt>
<pdfrwt beam="2">  1       21 0.12229669E-01 0.66190150E+02</pdfrwt>
<totfact> 0.19030667E+06</totfact>
</mgrwt>
</event>
<event>
 5    1  0.1590180E+000  0.9149959E+02  0.7546771E-02  0.1299260E+00
         21   -1    0    0  503  502  0.00000000000E+00  0.00000000000E+00  0.12780350993E+03  0.12780350993E+03  0.00000000000E+00 0.  1.
         21   -1    0    0  501  503 -0.00000000000E+00 -0.00000000000E+00 -0.21617136672E+03  0.21617136672E+03  0.00000000000E+00 0. -1.
         24    1    1    2    0    0 -0.38213538591E+02  0.32259973547E+01 -0.62950622816E+02  0.10909023081E+03  0.80419002446E+02 0.  0.
          1    1    1    2  501    0  0.56225600974E+02 -0.28367535195E+02 -0.11991956867E+03  0.13545013182E+03  0.00000000000E+00 0. -1.
         -2    1    1    2    0  502 -0.18012062384E+02  0.25141537840E+02  0.94502334702E+02  0.99434514031E+02  0.00000000000E+00 0.  1.
<mgrwt>
<rscale>  2 0.91499593E+02</rscale>
<asrwt>0</asrwt>
<pdfrwt beam="1">  1       21 0.19662079E-01 0.91499593E+02</pdfrwt>
<pdfrwt beam="2">  1       21 0.33257133E-01 0.91499593E+02</pdfrwt>
<totfact> 0.21312640E+05</totfact>
</mgrwt>
</event>
<event>
 5    1  0.1590180E+000  0.7113759E+02  0.7546771E-02  0.1356267E+00
         21   -1    0    0  503  502  0.00000000000E+00  0.00000000000E+00  0.11994654921E+02  0.11994654921E+02  0.00000000000E+00 0. -1.
         21   -1    0    0  501  503 -0.00000000000E+00 -0.00000000000E+00 -0.59071214625E+03  0.59071214625E+03  0.00000000000E+00 0. -1.
         24    1    1    2    0    0 -0.64290068632E+01 -0.46551086076E+02 -0.21716876682E+03  0.23630028561E+03  0.80419002446E+02 0. -1.
          1    1    1    2  501    0  0.10611255060E+02  0.24669269593E+02 -0.29516968265E+03  0.29638878716E+03  0.00000000000E+00 0. -1.
         -2    1    1    2    0  502 -0.41822481963E+01  0.21881816483E+02 -0.66379041861E+02  0.70017728404E+02  0.00000000000E+00 0.  1.
<mgrwt>
<rscale>  2 0.71137593E+02</rscale>
<asrwt>0</asrwt>
<pdfrwt beam="1">  1       21 0.18453321E-02 0.71137593E+02</pdfrwt>
<pdfrwt beam="2">  1       21 0.90878762E-01 0.71137593E+02</pdfrwt>
<totfact> 0.14289084E+06</totfact>
</mgrwt>
</event>
<event>
 5    1  0.1590180E+000  0.8205281E+02  0.7546771E-02  0.1323325E+00
         21   -1    0    0  501  502  0.00000000000E+00  0.00000000000E+00  0.55619557798E+02  0.55619557798E+02  0.00000000000E+00 0.  1.
         21   -1    0    0  502  503 -0.00000000000E+00 -0.00000000000E+00 -0.12276740161E+03  0.12276740161E+03  0.00000000000E+00 0.  1.
         24    1    1    2    0    0 -0.28217112428E+00  0.58053660661E+02 -0.50600357064E+02  0.11134594391E+03  0.80419002446E+02 0.  1.
          1    1    1    2  501    0  0.13568468763E+02 -0.16881188388E+02 -0.43423632564E+01  0.22089227796E+02  0.00000000000E+00 0. -1.
         -2    1    1    2    0  503 -0.13286297639E+02 -0.41172472274E+02 -0.12205123497E+02  0.44951787703E+02  0.00000000000E+00 0.  1.
<mgrwt>
<rscale>  2 0.82052811E+02</rscale>
<asrwt>0</asrwt>
<pdfrwt beam="1">  1       21 0.85568551E-02 0.82052811E+02</pdfrwt>
<pdfrwt beam="2">  1       21 0.18887292E-01 0.82052811E+02</pdfrwt>
<totfact> 0.26642261E+06</totfact>
</mgrwt>
</event>
<event>
 5    1  0.1590180E+000  0.1420932E+03  0.7546771E-02  0.1210540E+00
         21   -1    0    0  503  502  0.00000000000E+00  0.00000000000E+00  0.45395215652E+03  0.45395215652E+03  0.00000000000E+00 0.  1.
         21   -1    0    0  501  503 -0.00000000000E+00 -0.00000000000E+00 -0.18803425649E+03  0.18803425649E+03  0.00000000000E+00 0. -1.
         24    1    1    2    0    0  0.82821759247E+02 -0.95521886308E+02  0.16785758338E+03  0.22500501955E+03  0.80419002446E+02 0. -1.
          1    1    1    2  501    0 -0.84869291844E+02  0.73615816147E+02 -0.13909923517E+03  0.17880347399E+03  0.00000000000E+00 0. -1.
         -2    1    1    2    0  502  0.20475325969E+01  0.21906070161E+02  0.23715955183E+03  0.23817791947E+03  0.00000000000E+00 0.  1.
<mgrwt>
<rscale>  2 0.14209324E+03</rscale>
<asrwt>0</asrwt>
<pdfrwt beam="1">  1       21 0.69838793E-01 0.14209324E+03</pdfrwt>
<pdfrwt beam="2">  1       21 0.28928347E-01 0.14209324E+03</pdfrwt>
<totfact> 0.21983738E+04</totfact>
</mgrwt>
</event>
<event>
 5    1  0.1590180E+000  0.6848629E+02  0.7546771E-02  0.1365317E+00
         21   -1    0    0  501  502  0.00000000000E+00  0.00000000000E+00  0.75851562345E+02  0.75851562345E+02  0.00000000000E+00 0.  1.
         21   -1    0    0  502  503 -0.00000000000E+00 -0.00000000000E+00 -0.29712672054E+03  0.29712672054E+03  0.00000000000E+00 0.  1.
         24    1    1    2    0    0  0.85593324017E+01 -0.10310139452E+02 -0.12308436050E+01  0.81537059531E+02  0.80419002446E+02 0.  1.
          1    1    1    2  501    0  0.15197710446E+02  0.23714987921E+02  0.29280269886E+02  0.40628872240E+02  0.00000000000E+00 0. -1.
         -2    1    1    2    0  503 -0.23757042848E+02 -0.13404848469E+02 -0.24932458448E+03  0.25081235112E+03  0.00000000000E+00 0.  1.
<mgrwt>
<rscale>  2 0.68486286E+02</rscale>
<asrwt>0</asrwt>
<pdfrwt beam="1">  1       21 0.11669471E-01 0.68486286E+02</pdfrwt>
<pdfrwt beam="2">  1       21 0.45711802E-01 0.68486286E+02</pdfrwt>
<totfact> 0.29031280E+05</totfact>
</mgrwt>
</event>
<event>
 5    1  0.1590180E+000  0.9131580E+02  0.7546771E-02  0.1299696E+00
         21   -1    0    0  503  502  0.00000000000E+00  0.00000000000E+00  0.26494022002E+03  0.26494022002E+03  0.00000000000E+00 0. -1.
         21   -1    0    0  501  503 -0.00000000000E+00 -0.00000000000E+00 -0.33451167720E+02  0.33451167720E+02  0.00000000000E+00 0.  1.
         24    1    1    2    0    0 -0.71083550569E+01  0.32412902418E+02  0.98636284714E+02  0.13151979916E+03  0.80419002446E+02 0. -1.
          1    1    1    2  501    0 -0.40510052338E+02 -0.53441491515E+01  0.31236581645E+02  0.51432949589E+02  0.00000000000E+00 0. -1.
         -2    1    1    2    0  502  0.47618407395E+02 -0.27068753266E+02  0.10161618594E+03  0.11543863898E+03  0.00000000000E+00 0.  1.
<mgrwt>
<rscale>  2 0.91315802E+02</rscale>
<asrwt>0</asrwt>
<pdfrwt beam="1">  1       21 0.40760032E-01 0.91315802E+02</pdfrwt>
<pdfrwt beam="2">  1       21 0.51463337E-02 0.91315802E+02</pdfrwt>
<totfact> 0.14711463E+06</totfact>
</mgrwt>
</event>
<event>
 5    1  0.1590180E+000  0.9040080E+02  0.7546771E-02  0.1301884E+00
         21   -1    0    0  503  502  0.00000000000E+00  0.00000000000E+00  0.13971736702E+03  0.13971736702E+03  0.00000000000E+00 0.  1.
         21   -1    0    0  501  503 -0.00000000000E+00 -0.00000000000E+00 -0.70122851271E+02  0.70122851271E+02  0.00000000000E+00 0.  1.
         24    1    1    2    0    0  0.45482129658E+02 -0.53707833432E+02  0.15784086810E+02  0.10802550088E+03  0.80419002446E+02 0.  1.
          1    1    1    2  501    0 -0.21012012916E+02  0.87733101281E+01 -0.55599920981E+01  0.23439052232E+02  0.00000000000E+00 0. -1.
         -2    1    1    2    0  502 -0.24470116742E+02  0.44934523304E+02  0.59370421040E+02  0.78375665179E+02  0.00000000000E+00 0.  1.
<mgrwt>
<rscale>  2 0.90400798E+02</rscale>
<asrwt>0</asrwt>
<pdfrwt beam="1">  1       21 0.21494979E-01 0.90400798E+02</pdfrwt>
<pdfrwt beam="2">  1       21 0.10788131E-01 0.90400798E+02</pdfrwt>
<totfact> 0.14153135E+06</totfact>
</mgrwt>
</event>
<event>
 5    1  0.1590180E+000  0.9221266E+02  0.7546771E-02  0.1297580E+00
         21   -1    0    0  501  502  0.00000000000E+00  0.00000000000E+00  0.11327339794E+03  0.11327339794E+03  0.00000000000E+00 0.  1.
         21   -1    0    0  502  503 -0.00000000000E+00 -0.00000000000E+00 -0.91214878031E+02  0.91214878031E+02  0.00000000000E+00 0.  1.
         24    1    1    2    0    0  0.35545214260E+02  0.53251904991E+02  0.11528289497E+02  0.10343763848E+03  0.80419002446E+02 0.  1.
          1    1    1    2  501    0  0.12185165902E+02 -0.20145670792E+02  0.31471033477E+02  0.39303336599E+02  0.00000000000E+00 0. -1.
         -2    1    1    2    0  503 -0.47730380161E+02 -0.33106234199E+02 -0.20940803070E+02  0.61747300883E+02  0.00000000000E+00 0.  1.
<mgrwt>
<rscale>  2 0.92212655E+02</rscale>
<asrwt>0</asrwt>
<pdfrwt beam="1">  1       21 0.17426677E-01 0.92212655E+02</pdfrwt>
<pdfrwt beam="2">  1       21 0.14033058E-01 0.92212655E+02</pdfrwt>
<totfact> 0.13079485E+06</totfact>
</mgrwt>
</event>
<event>
 5    1  0.1590180E+000  0.8560239E+02  0.7546771E-02  0.1313865E+00
         21   -1    0    0  503  502  0.00000000000E+00  0.00000000000E+00  0.10430191788E+03  0.10430191788E+03  0.00000000000E+00 0. -1.
         21   -1    0    0  501  503 -0.00000000000E+00 -0.00000000000E+00 -0.18828891235E+03  0.18828891235E+03  0.00000000000E+00 0. -1.
         24    1    1    2    0    0 -0.44466491148E+02  0.26163667795E+02  0.24775277337E+02  0.98705808689E+02  0.80419002446E+02 0. -1.
          1    1    1    2  501    0  0.26343563778E+02  0.15260026059E+02 -0.13715608179E+03  0.14049427932E+03  0.00000000000E+00 0. -1.
         -2    1    1    2    0  502  0.18122927371E+02 -0.41423693855E+02  0.28393809983E+02  0.53390742217E+02  0.00000000000E+00 0.  1.
<mgrwt>
<rscale>  2 0.85602394E+02</rscale>
<asrwt>0</asrwt>
<pdfrwt beam="1">  1       21 0.16046449E-01 0.85602394E+02</pdfrwt>
<pdfrwt beam="2">  1       21 0.28967525E-01 0.85602394E+02</pdfrwt>
<totfact> 0.40150084E+05</totfact>
</mgrwt>
</event>
<event>
 5    1  0.1590180E+000  0.1015903E+03  0.7546771E-02  0.1276987E+00
         21   -1    0    0  501  502  0.00000000000E+00  0.00000000000E+00  0.63339520885E+02  0.63339520885E+02  0.00000000000E+00 0. -1.
         21   -1    0    0  502  503 -0.00000000000E+00 -0.00000000000E+00 -0.26411191144E+03  0.26411191144E+03  0.00000000000E+00 0. -1.
         24    1    1    2    0    0  0.36848226940E+02 -0.50669228726E+02 -0.13270905838E+03  0.16734417438E+03  0.80419002446E+02 0. -1.
          1    1    1    2  501    0 -0.30705639343E+02  0.72406972403E+02  0.95936883789E+01  0.79231589639E+02  0.00000000000E+00 0. -1.
         -2    1    1    2    0  503 -0.61425875973E+01 -0.21737743677E+02 -0.77657020553E+02  0.80875668305E+02  0.00000000000E+00 0.  1.
<mgrwt>
<rscale>  2 0.10159030E+03</rscale>
<asrwt>0</asrwt>
<pdfrwt beam="1">  1       21 0.97445416E-02 0.10159030E+03</pdfrwt>
<pdfrwt beam="2">  1       21 0.40632602E-01 0.10159030E+03</pdfrwt>
<totfact> 0.50073223E+05</totfact>
</mgrwt>
</event>
<event>
 5    1  0.1590180E+000  0.8957774E+02  0.7546771E-02  0.1303878E+00
         21   -1    0    0  503  502  0.00000000000E+00  0.00000000000E+00  0.56429438072E+02  0.56429438072E+02  0.00000000000E+00 0.  1.
         21   -1    0    0  501  503 -0.00000000000E+00 -0.00000000000E+00 -0.19546183917E+04  0.19546183917E+04  0.00000000000E+00 0.  1.
         24    1    1    2    0    0  0.82735167961E+00 -0.41073472283E+02 -0.18687295952E+04  0.18709102679E+04  0.80419002446E+02 0.  1.
          1    1    1    2  501    0  0.11727496736E+02  0.62730771357E+02 -0.68588467588E+02  0.93685974088E+02  0.00000000000E+00 0. -1.
         -2    1    1    2    0  502 -0.12554848416E+02 -0.21657299074E+02  0.39129109167E+02  0.46451587768E+02  0.00000000000E+00 0.  1.
<mgrwt>
<rscale>  2 0.89577736E+02</rscale>
<asrwt>0</asrwt>
<pdfrwt beam="1">  1       21 0.86814521E-02 0.89577736E+02</pdfrwt>
<pdfrwt beam="2">  1       21 0.30071052E+00 0.89577736E+02</pdfrwt>
<totfact> 0.41740847E+03</totfact>
</mgrwt>
</event>
<event>
 5    1  0.1590180E+000  0.1028295E+03  0.7546771E-02  0.1274456E+00
         21   -1    0    0  503  502  0.00000000000E+00  0.00000000000E+00  0.82998685481E+02  0.82998685481E+02  0.00000000000E+00 0. -1.
         21   -1    0    0  501  503 -0.00000000000E+00 -0.00000000000E+00 -0.19470996415E+03  0.19470996415E+03  0.00000000000E+00 0. -1.
         24    1    1    2    0    0  0.14980206278E+02 -0.29562457257E+02 -0.21901185071E+02  0.89695168884E+02  0.80419002446E+02 0.  0.
          1    1    1    2  501    0  0.47014309470E+02 -0.56977491412E+01 -0.10491730414E+03  0.11511060050E+03  0.00000000000E+00 0. -1.
         -2    1    1    2    0  502 -0.61994515749E+02  0.35260206398E+02  0.15107210538E+02  0.72902880248E+02  0.00000000000E+00 0.  1.
<mgrwt>
<rscale>  2 0.10282948E+03</rscale>
<asrwt>0</asrwt>
<pdfrwt beam="1">  1       21 0.12769029E-01 0.10282948E+03</pdfrwt>
<pdfrwt beam="2">  1       21 0.29955379E-01 0.10282948E+03</pdfrwt>
<totfact> 0.56537584E+05</totfact>
</mgrwt>
</event>
<event>
 5    1  0.1775384E+000  0.1261918E+03  0.7546771E-02  0.1233218E+00
         21   -1    0    0  501  502  0.00000000000E+00  0.00000000000E+00  0.81352813951E+03  0.81352813951E+03  0.00000000000E+00 0.  1.
         21   -1    0    0  502  503 -0.00000000000E+00 -0.00000000000E+00 -0.34995123700E+02  0.34995123700E+02  0.00000000000E+00 0.  1.
         24    1    1    2    0    0 -0.81310551823E+02  0.67736565991E+02  0.67859717223E+03  0.69149185557E+03  0.80419002446E+02 0.  1.
          1    1    1    2  501    0 -0.53276670675E+01 -0.19689650974E+02  0.27808483569E+02  0.34487362182E+02  0.00000000000E+00 0. -1.
         -2    1    1    2    0  503  0.86638218891E+02 -0.48046915017E+02  0.72127360018E+02  0.12254404546E+03  0.00000000000E+00 0.  1.
<mgrwt>
<rscale>  2 0.12619178E+03</rscale>
<asrwt>0</asrwt>
<pdfrwt beam="1">  1       21 0.12515816E+00 0.12619178E+03</pdfrwt>
<pdfrwt beam="2">  1       21 0.53838658E-02 0.12619178E+03</pdfrwt>
<totfact> 0.11613424E+05</totfact>
</mgrwt>
</event>
<event>
 5    1  0.1590180E+000  0.7297530E+02  0.7546771E-02  0.1350258E+00
         21   -1    0    0  503  502  0.00000000000E+00  0.00000000000E+00  0.83726036834E+01  0.83726036834E+01  0.00000000000E+00 0. -1.
         21   -1    0    0  501  503 -0.00000000000E+00 -0.00000000000E+00 -0.64252181616E+03  0.64252181616E+03  0.00000000000E+00 0.  1.
         24    1    1    2    0    0 -0.25410540330E+02 -0.28169871602E+02 -0.36063177944E+03  0.37143200390E+03  0.80419002446E+02 0.  1.
          1    1    1    2  501    0  0.24830437382E+02 -0.37458280610E+01 -0.13487030116E+03  0.13718811896E+03  0.00000000000E+00 0. -1.
         -2    1    1    2    0  502  0.58010294798E+00  0.31915699663E+02 -0.13864713187E+03  0.14227429698E+03  0.00000000000E+00 0.  1.
<mgrwt>
<rscale>  2 0.72975299E+02</rscale>
<asrwt>0</asrwt>
<pdfrwt beam="1">  1       21 0.12880925E-02 0.72975299E+02</pdfrwt>
<pdfrwt beam="2">  1       21 0.98849536E-01 0.72975299E+02</pdfrwt>
<totfact> 0.20829026E+06</totfact>
</mgrwt>
</event>
<event>
 5    1  0.1590180E+000  0.7710893E+02  0.7546771E-02  0.1337462E+00
         21   -1    0    0  503  502  0.00000000000E+00  0.00000000000E+00  0.46865094881E+03  0.46865094881E+03  0.00000000000E+00 0. -1.
         21   -1    0    0  501  503 -0.00000000000E+00 -0.00000000000E+00 -0.17994788932E+02  0.17994788932E+02  0.00000000000E+00 0.  1.
         24    1    1    2    0    0 -0.44637755728E+02 -0.13323301677E+02  0.13336036958E+03  0.16254920404E+03  0.80419002446E+02 0.  1.
          1    1    1    2  501    0  0.19628459668E+02  0.26527697466E+02  0.10889047091E+03  0.11378106089E+03  0.00000000000E+00 0. -1.
         -2    1    1    2    0  502  0.25009296060E+02 -0.13204395789E+02  0.20840531939E+03  0.21031547282E+03  0.00000000000E+00 0.  1.
<mgrwt>
<rscale>  2 0.77108935E+02</rscale>
<asrwt>0</asrwt>
<pdfrwt beam="1">  1       21 0.72100136E-01 0.77108935E+02</pdfrwt>
<pdfrwt beam="2">  1       21 0.27684294E-02 0.77108935E+02</pdfrwt>
<totfact> 0.12458222E+06</totfact>
</mgrwt>
</event>
<event>
 5    1  0.1590180E+000  0.1137749E+03  0.7546771E-02  0.1253735E+00
         21   -1    0    0  501  502  0.00000000000E+00  0.00000000000E+00  0.28019405932E+02  0.28019405932E+02  0.00000000000E+00 0.  1.
         21   -1    0    0  502  503 -0.00000000000E+00 -0.00000000000E+00 -0.69189894524E+03  0.69189894524E+03  0.00000000000E+00 0. -1.
         24    1    1    2    0    0  0.72977930917E+02 -0.17689557188E+02 -0.24783216491E+03  0.27115806599E+03  0.80419002446E+02 0.  1.
          1    1    1    2  501    0 -0.93996484026E+02  0.78749727165E+01 -0.12402980088E+03  0.15582280228E+03  0.00000000000E+00 0. -1.
         -2    1    1    2    0  503  0.21018553109E+02  0.98145844715E+01 -0.29201757352E+03  0.29293748290E+03  0.00000000000E+00 0.  1.
<mgrwt>
<rscale>  2 0.11377489E+03</rscale>
<asrwt>0</asrwt>
<pdfrwt beam="1">  1       21 0.43106776E-02 0.11377489E+03</pdfrwt>
<pdfrwt beam="2">  1       21 0.10644600E+00 0.11377489E+03</pdfrwt>
<totfact> 0.25011838E+05</totfact>
</mgrwt>
</event>
<event>
 5    1  0.1590180E+000  0.7072457E+02  0.7546771E-02  0.1357646E+00
         21   -1    0    0  501  502  0.00000000000E+00  0.00000000000E+00  0.21956873548E+03  0.21956873548E+03  0.00000000000E+00 0. -1.
         21   -1    0    0  502  503 -0.00000000000E+00 -0.00000000000E+00 -0.10384552748E+03  0.10384552748E+03  0.00000000000E+00 0.  1.
         24    1    1    2    0    0  0.10938059820E+02  0.17530163979E+02 -0.54985970166E+02  0.99587251550E+02  0.80419002446E+02 0.  0.
          1    1    1    2  501    0  0.21623479029E+02 -0.40392530822E+00  0.18358022242E+03  0.18484976621E+03  0.00000000000E+00 0. -1.
         -2    1    1    2    0  503 -0.32561538850E+02 -0.17126238670E+02 -0.12871044267E+02  0.38977245205E+02  0.00000000000E+00 0.  1.
<mgrwt>
<rscale>  2 0.70724569E+02</rscale>
<asrwt>0</asrwt>
<pdfrwt beam="1">  1       21 0.33779805E-01 0.70724569E+02</pdfrwt>
<pdfrwt beam="2">  1       21 0.15976235E-01 0.70724569E+02</pdfrwt>
<totfact> 0.30210226E+05</totfact>
</mgrwt>
</event>
<event>
 5    1  0.1590180E+000  0.8247748E+02  0.7546771E-02  0.1322164E+00
         21   -1    0    0  503  502  0.00000000000E+00  0.00000000000E+00  0.90520348913E+03  0.90520348913E+03  0.00000000000E+00 0. -1.
         21   -1    0    0  501  503 -0.00000000000E+00 -0.00000000000E+00 -0.98293063309E+01  0.98293063309E+01  0.00000000000E+00 0. -1.
         24    1    1    2    0    0 -0.33638101689E+02 -0.79456766176E+01  0.55738509619E+03  0.56421628572E+03  0.80419002446E+02 0. -1.
          1    1    1    2  501    0  0.28384075391E+02  0.37709908949E+02  0.96295765106E+02  0.10724069818E+03  0.00000000000E+00 0. -1.
         -2    1    1    2    0  502  0.52540262978E+01 -0.29764232331E+02  0.24169332150E+03  0.24357581156E+03  0.00000000000E+00 0.  1.
<mgrwt>
<rscale>  2 0.82477480E+02</rscale>
<asrwt>0</asrwt>
<pdfrwt beam="1">  1       21 0.13926201E+00 0.82477480E+02</pdfrwt>
<pdfrwt beam="2">  1       21 0.15122017E-02 0.82477480E+02</pdfrwt>
<totfact> 0.71612847E+05</totfact>
</mgrwt>
</event>
<event>
 5    1  0.1590180E+000  0.8353836E+02  0.7546771E-02  0.1319300E+00
         21   -1    0    0  503  502  0.00000000000E+00  0.00000000000E+00  0.12221667078E+03  0.12221667078E+03  0.00000000000E+00 0.  1.
         21   -1    0    0  501  503 -0.00000000000E+00 -0.00000000000E+00 -0.15522179094E+03  0.15522179094E+03  0.00000000000E+00 0.  1.
         24    1    1    2    0    0  0.18264899691E+02  0.34173055047E+02 -0.85561194396E+02  0.12365006346E+03  0.80419002446E+02 0.  1.
          1    1    1    2  501    0  0.25678029336E+02 -0.16014679369E+02 -0.39748404063E+02  0.49957649779E+02  0.00000000000E+00 0. -1.
         -2    1    1    2    0  502 -0.43942929027E+02 -0.18158375678E+02  0.92304478297E+02  0.10383074849E+03  0.00000000000E+00 0.  1.
<mgrwt>
<rscale>  2 0.83538365E+02</rscale>
<asrwt>0</asrwt>
<pdfrwt beam="1">  1       21 0.18802565E-01 0.83538365E+02</pdfrwt>
<pdfrwt beam="2">  1       21 0.23880276E-01 0.83538365E+02</pdfrwt>
<totfact> 0.43357849E+05</totfact>
</mgrwt>
</event>
<event>
 5    1  0.1590180E+000  0.9294547E+02  0.7546771E-02  0.1295872E+00
         21   -1    0    0  501  502  0.00000000000E+00  0.00000000000E+00  0.63260420655E+02  0.63260420655E+02  0.00000000000E+00 0.  1.
         21   -1    0    0  502  503 -0.00000000000E+00 -0.00000000000E+00 -0.16770292620E+03  0.16770292620E+03  0.00000000000E+00 0.  1.
         24    1    1    2    0    0 -0.29608022801E+02  0.61205464230E+02 -0.29791277845E+02  0.10944167422E+03  0.80419002446E+02 0.  1.
          1    1    1    2  501    0  0.26288898275E+01 -0.52013712376E+02 -0.13116239794E+02  0.53706359802E+02  0.00000000000E+00 0. -1.
         -2    1    1    2    0  503  0.26979132974E+02 -0.91917518543E+01 -0.61534987909E+02  0.67815312836E+02  0.00000000000E+00 0.  1.
<mgrwt>
<rscale>  2 0.92945473E+02</rscale>
<asrwt>0</asrwt>
<pdfrwt beam="1">  1       21 0.97323725E-02 0.92945473E+02</pdfrwt>
<pdfrwt beam="2">  1       21 0.25800450E-01 0.92945473E+02</pdfrwt>
<totfact> 0.12058024E+06</totfact>
</mgrwt>
</event>
<event>
 5    1  0.1590180E+000  0.6589683E+02  0.7546771E-02  0.1374629E+00
         21   -1    0    0  503  502  0.00000000000E+00  0.00000000000E+00  0.24384104315E+02  0.24384104315E+02  0.00000000000E+00 0.  1.
         21   -1    0    0  501  503 -0.00000000000E+00 -0.00000000000E+00 -0.15525732719E+04  0.15525732719E+04  0.00000000000E+00 0. -1.
         24    1    1    2    0    0 -0.14151573607E+02  0.27103824802E+01 -0.94920998916E+03  0.95271949318E+03  0.80419002446E+02 0.  0.
          1    1    1    2  501    0  0.13643233064E+02 -0.24636540147E+02 -0.59588265882E+03  0.59654776842E+03  0.00000000000E+00 0. -1.
         -2    1    1    2    0  502  0.50834054259E+00  0.21926157667E+02  0.16903480374E+02  0.27690114642E+02  0.00000000000E+00 0.  1.
<mgrwt>
<rscale>  2 0.65896827E+02</rscale>
<asrwt>0</asrwt>
<pdfrwt beam="1">  1       21 0.37514005E-02 0.65896827E+02</pdfrwt>
<pdfrwt beam="2">  1       21 0.23885744E+00 0.65896827E+02</pdfrwt>
<totfact> 0.39005004E+04</totfact>
</mgrwt>
</event>
<event>
 5    1  0.1590180E+000  0.1183501E+03  0.7546771E-02  0.1245844E+00
         21   -1    0    0  503  502  0.00000000000E+00  0.00000000000E+00  0.94563329904E+03  0.94563329904E+03  0.00000000000E+00 0.  1.
         21   -1    0    0  501  503 -0.00000000000E+00 -0.00000000000E+00 -0.55328537675E+02  0.55328537675E+02  0.00000000000E+00 0. -1.
         24    1    1    2    0    0 -0.59917997396E+02  0.64483689575E+02  0.19956961911E+03  0.23247271121E+03  0.80419002446E+02 0. -1.
          1    1    1    2  501    0  0.78898962274E+02 -0.55552622226E+02  0.21417127169E+02  0.98842467696E+02  0.00000000000E+00 0. -1.
         -2    1    1    2    0  502 -0.18980964878E+02 -0.89310673487E+01  0.66931801509E+03  0.66964665781E+03  0.00000000000E+00 0.  1.
<mgrwt>
<rscale>  2 0.11835015E+03</rscale>
<asrwt>0</asrwt>
<pdfrwt beam="1">  1       21 0.14548203E+00 0.11835015E+03</pdfrwt>
<pdfrwt beam="2">  1       21 0.85120834E-02 0.11835015E+03</pdfrwt>
<totfact> 0.36634950E+04</totfact>
</mgrwt>
</event>
<event>
 5    1  0.1590180E+000  0.9424842E+02  0.7546771E-02  0.1292878E+00
         21   -1    0    0  503  502  0.00000000000E+00  0.00000000000E+00  0.28506033636E+03  0.28506033636E+03  0.00000000000E+00 0.  1.
         21   -1    0    0  501  503 -0.00000000000E+00 -0.00000000000E+00 -0.35455131529E+02  0.35455131529E+02  0.00000000000E+00 0. -1.
         24    1    1    2    0    0 -0.47876741395E+02 -0.60868737083E+01  0.96211364005E+02  0.13436173159E+03  0.80419002446E+02 0. -1.
          1    1    1    2  501    0  0.50937818957E+02  0.37432471989E+02  0.58346362195E+02  0.86024120691E+02  0.00000000000E+00 0. -1.
         -2    1    1    2    0  502 -0.30610775619E+01 -0.31345598281E+02  0.95047478627E+02  0.10012961560E+03  0.00000000000E+00 0.  1.
<mgrwt>
<rscale>  2 0.94248420E+02</rscale>
<asrwt>0</asrwt>
<pdfrwt beam="1">  1       21 0.43855435E-01 0.94248420E+02</pdfrwt>
<pdfrwt beam="2">  1       21 0.54546358E-02 0.94248420E+02</pdfrwt>
<totfact> 0.11542535E+06</totfact>
</mgrwt>
</event>
<event>
 5    1  0.1590180E+000  0.8708356E+02  0.7546771E-02  0.1310072E+00
         21   -1    0    0  501  502  0.00000000000E+00  0.00000000000E+00  0.35994108101E+02  0.35994108101E+02  0.00000000000E+00 0.  1.
         21   -1    0    0  502  503 -0.00000000000E+00 -0.00000000000E+00 -0.22902678016E+03  0.22902678016E+03  0.00000000000E+00 0.  1.
         24    1    1    2    0    0  0.25884636280E+02 -0.43727894057E+02 -0.99158986970E+02  0.13741129417E+03  0.80419002446E+02 0.  1.
          1    1    1    2  501    0 -0.30537439378E+02 -0.42537530982E+01 -0.13005161348E+02  0.33462872574E+02  0.00000000000E+00 0. -1.
         -2    1    1    2    0  503  0.46528030980E+01  0.47981647155E+02 -0.80868523744E+02  0.94146721520E+02  0.00000000000E+00 0.  1.
<mgrwt>
<rscale>  2 0.87083556E+02</rscale>
<asrwt>0</asrwt>
<pdfrwt beam="1">  1       21 0.55375550E-02 0.87083556E+02</pdfrwt>
<pdfrwt beam="2">  1       21 0.35234890E-01 0.87083556E+02</pdfrwt>
<totfact> 0.17302281E+06</totfact>
</mgrwt>
</event>
<event>
 5    1  0.1590180E+000  0.8551225E+02  0.7546771E-02  0.1314098E+00
         21   -1    0    0  503  502  0.00000000000E+00  0.00000000000E+00  0.17564941011E+02  0.17564941011E+02  0.00000000000E+00 0.  1.
         21   -1    0    0  501  503 -0.00000000000E+00 -0.00000000000E+00 -0.63489675038E+03  0.63489675038E+03  0.00000000000E+00 0.  1.
         24    1    1    2    0    0 -0.48067998200E+02 -0.38782311126E+02 -0.44743960541E+03  0.45878537090E+03  0.80419002446E+02 0.  1.
          1    1    1    2  501    0  0.16281068763E+02  0.33710482582E+02 -0.15262347144E+03  0.15714768172E+03  0.00000000000E+00 0. -1.
         -2    1    1    2    0  502  0.31786929437E+02  0.50718285434E+01 -0.17268732524E+02  0.36528638776E+02  0.00000000000E+00 0.  1.
<mgrwt>
<rscale>  2 0.85512255E+02</rscale>
<asrwt>0</asrwt>
<pdfrwt beam="1">  1       21 0.27022990E-02 0.85512255E+02</pdfrwt>
<pdfrwt beam="2">  1       21 0.97676410E-01 0.85512255E+02</pdfrwt>
<totfact> 0.66041741E+05</totfact>
</mgrwt>
</event>
<event>
 5    1  0.1590180E+000  0.1231032E+03  0.7546771E-02  0.1238064E+00
         21   -1    0    0  501  502  0.00000000000E+00  0.00000000000E+00  0.68006843707E+03  0.68006843707E+03  0.00000000000E+00 0. -1.
         21   -1    0    0  502  503 -0.00000000000E+00 -0.00000000000E+00 -0.41963538041E+02  0.41963538041E+02  0.00000000000E+00 0.  1.
         24    1    1    2    0    0  0.44580094011E+02 -0.51470902575E+02  0.71116072566E+02  0.12712729969E+03  0.80419002446E+02 0.  1.
          1    1    1    2  501    0 -0.33526910635E+01 -0.40188021299E+02  0.38417231056E+03  0.38628316271E+03  0.00000000000E+00 0. -1.
         -2    1    1    2    0  503 -0.41227402948E+02  0.91658923874E+02  0.18281651590E+03  0.20862151271E+03  0.00000000000E+00 0.  1.
<mgrwt>
<rscale>  2 0.12310324E+03</rscale>
<asrwt>0</asrwt>
<pdfrwt beam="1">  1       21 0.10462591E+00 0.12310324E+03</pdfrwt>
<pdfrwt beam="2">  1       21 0.64559294E-02 0.12310324E+03</pdfrwt>
<totfact> 0.13168330E+05</totfact>
</mgrwt>
</event>
<event>
 5    1  0.1590180E+000  0.8065496E+02  0.7546771E-02  0.1327203E+00
         21   -1    0    0  503  502  0.00000000000E+00  0.00000000000E+00  0.77361022170E+02  0.77361022170E+02  0.00000000000E+00 0.  1.
         21   -1    0    0  501  503 -0.00000000000E+00 -0.00000000000E+00 -0.36312775138E+03  0.36312775138E+03  0.00000000000E+00 0. -1.
         24    1    1    2    0    0  0.52911536651E+02 -0.39724993309E+01 -0.36264298237E+02  0.10294526090E+03  0.80419002446E+02 0.  1.
          1    1    1    2  501    0 -0.11906824088E+02  0.18038036585E+02 -0.28233641254E+03  0.28316248528E+03  0.00000000000E+00 0. -1.
         -2    1    1    2    0  502 -0.41004712563E+02 -0.14065537254E+02  0.32833981574E+02  0.54381027359E+02  0.00000000000E+00 0.  1.
<mgrwt>
<rscale>  2 0.80654964E+02</rscale>
<asrwt>0</asrwt>
<pdfrwt beam="1">  1       21 0.11901696E-01 0.80654964E+02</pdfrwt>
<pdfrwt beam="2">  1       21 0.55865808E-01 0.80654964E+02</pdfrwt>
<totfact> 0.18599155E+05</totfact>
</mgrwt>
</event>
<event>
 5    1  0.1590180E+000  0.8662654E+02  0.7546771E-02  0.1311233E+00
         21   -1    0    0  503  502  0.00000000000E+00  0.00000000000E+00  0.96420453282E+02  0.96420453282E+02  0.00000000000E+00 0. -1.
         21   -1    0    0  501  503 -0.00000000000E+00 -0.00000000000E+00 -0.13609397551E+03  0.13609397551E+03  0.00000000000E+00 0.  1.
         24    1    1    2    0    0  0.11135574605E+02 -0.22310085381E+01 -0.53153637543E+01  0.81390708727E+02  0.80419002446E+02 0. -1.
          1    1    1    2  501    0 -0.51358527336E+02  0.56486975764E+01 -0.76791877607E+02  0.92555921371E+02  0.00000000000E+00 0. -1.
         -2    1    1    2    0  502  0.40222952731E+02 -0.34176890383E+01  0.42433719131E+02  0.58567798695E+02  0.00000000000E+00 0.  1.
<mgrwt>
<rscale>  2 0.86626540E+02</rscale>
<asrwt>0</asrwt>
<pdfrwt beam="1">  1       21 0.14833916E-01 0.86626540E+02</pdfrwt>
<pdfrwt beam="2">  1       21 0.20937535E-01 0.86626540E+02</pdfrwt>
<totfact> 0.84688911E+05</totfact>
</mgrwt>
</event>
<event>
 5    1  0.1997744E+000  0.1806693E+03  0.7546771E-02  0.1167157E+00
         21   -1    0    0  501  502  0.00000000000E+00  0.00000000000E+00  0.79774641444E+03  0.79774641444E+03  0.00000000000E+00 0. -1.
         21   -1    0    0  502  503 -0.00000000000E+00 -0.00000000000E+00 -0.68899217507E+02  0.68899217507E+02  0.00000000000E+00 0.  1.
         24    1    1    2    0    0 -0.42540934578E+02 -0.54624793628E+02  0.13166177136E+03  0.16910244583E+03  0.80419002446E+02 0. -1.
          1    1    1    2  501    0 -0.10257318997E+03  0.83704607977E+01  0.51359616088E+03  0.52380563226E+03  0.00000000000E+00 0. -1.
         -2    1    1    2    0  503  0.14511412455E+03  0.46254332830E+02  0.83589264689E+02  0.17373755386E+03  0.00000000000E+00 0.  1.
<mgrwt>
<rscale>  2 0.18066932E+03</rscale>
<asrwt>0</asrwt>
<pdfrwt beam="1">  1       21 0.12273021E+00 0.18066932E+03</pdfrwt>
<pdfrwt beam="2">  1       21 0.10599880E-01 0.18066932E+03</pdfrwt>
<totfact> 0.36797657E+04</totfact>
</mgrwt>
</event>
<event>
 5    1  0.1590180E+000  0.9442312E+02  0.7546771E-02  0.1292481E+00
         21   -1    0    0  501  502  0.00000000000E+00  0.00000000000E+00  0.67288929158E+02  0.67288929158E+02  0.00000000000E+00 0. -1.
         21   -1    0    0  502  503 -0.00000000000E+00 -0.00000000000E+00 -0.14553736766E+03  0.14553736766E+03  0.00000000000E+00 0. -1.
         24    1    1    2    0    0  0.63698263730E+02 -0.20558736325E+02 -0.33290349251E+02  0.10979796787E+03  0.80419002446E+02 0. -1.
          1    1    1    2  501    0 -0.34637900516E+02  0.37118084649E+02 -0.51438149037E+01  0.51029356178E+02  0.00000000000E+00 0. -1.
         -2    1    1    2    0  503 -0.29060363215E+02 -0.16559348323E+02 -0.39814274351E+02  0.51998972770E+02  0.00000000000E+00 0.  1.
<mgrwt>
<rscale>  2 0.94423117E+02</rscale>
<asrwt>0</asrwt>
<pdfrwt beam="1">  1       21 0.10352143E-01 0.94423117E+02</pdfrwt>
<pdfrwt beam="2">  1       21 0.22390364E-01 0.94423117E+02</pdfrwt>
<totfact> 0.14118167E+06</totfact>
</mgrwt>
</event>
<event>
 5    1  0.1590180E+000  0.1191763E+03  0.7546771E-02  0.1244462E+00
         21   -1    0    0  501  502  0.00000000000E+00  0.00000000000E+00  0.14402852474E+04  0.14402852474E+04  0.00000000000E+00 0. -1.
         21   -1    0    0  502  503 -0.00000000000E+00 -0.00000000000E+00 -0.83085797767E+02  0.83085797767E+02  0.00000000000E+00 0.  1.
         24    1    1    2    0    0 -0.88799688918E+02 -0.22401453023E+02  0.98376510491E+02  0.15662810610E+03  0.80419002446E+02 0.  1.
          1    1    1    2  501    0 -0.63133641282E+01  0.20384023282E+02  0.12706918096E+04  0.12708709777E+04  0.00000000000E+00 0. -1.
         -2    1    1    2    0  503  0.95113053046E+02  0.20174297407E+01 -0.11868870497E+02  0.95871961331E+02  0.00000000000E+00 0.  1.
<mgrwt>
<rscale>  2 0.11917625E+03</rscale>
<asrwt>0</asrwt>
<pdfrwt beam="1">  1       21 0.22158233E+00 0.11917625E+03</pdfrwt>
<pdfrwt beam="2">  1       21 0.12782431E-01 0.11917625E+03</pdfrwt>
<totfact> 0.56088619E+03</totfact>
</mgrwt>
</event>
<event>
 5    1  0.1590180E+000  0.7971543E+02  0.7546771E-02  0.1329861E+00
         21   -1    0    0  501  502  0.00000000000E+00  0.00000000000E+00  0.16124928599E+04  0.16124928599E+04  0.00000000000E+00 0. -1.
         21   -1    0    0  502  503 -0.00000000000E+00 -0.00000000000E+00 -0.22286680427E+02  0.22286680427E+02  0.00000000000E+00 0.  1.
         24    1    1    2    0    0 -0.28252409292E+02  0.51953500130E+02  0.22836292370E+03  0.24922721698E+03  0.80419002446E+02 0.  0.
          1    1    1    2  501    0  0.11852719449E+02 -0.29592182999E+02  0.13570334702E+04  0.13574078324E+04  0.00000000000E+00 0. -1.
         -2    1    1    2    0  503  0.16399689842E+02 -0.22361317131E+02  0.48097855268E+01  0.28144490892E+02  0.00000000000E+00 0.  1.
<mgrwt>
<rscale>  2 0.79715425E+02</rscale>
<asrwt>0</asrwt>
<pdfrwt beam="1">  1       21 0.24807573E+00 0.79715425E+02</pdfrwt>
<pdfrwt beam="2">  1       21 0.34287213E-02 0.79715425E+02</pdfrwt>
<totfact> 0.39139446E+04</totfact>
</mgrwt>
</event>
<event>
 5    1  0.1590180E+000  0.2828964E+03  0.7546771E-02  0.1094117E+00
         21   -1    0    0  503  502  0.00000000000E+00  0.00000000000E+00  0.29220377768E+03  0.29220377768E+03  0.00000000000E+00 0.  1.
         21   -1    0    0  501  503 -0.00000000000E+00 -0.00000000000E+00 -0.13336562863E+04  0.13336562863E+04  0.00000000000E+00 0. -1.
         24    1    1    2    0    0  0.10898552213E+03 -0.53442339747E+02 -0.12216957929E+03  0.19006985498E+03  0.80419002446E+02 0. -1.
          1    1    1    2  501    0 -0.19690913340E+03 -0.11653966740E+03 -0.11289568255E+04  0.11519106800E+04  0.00000000000E+00 0. -1.
         -2    1    1    2    0  502  0.87923611268E+02  0.16998200715E+03  0.20967389624E+03  0.28387952891E+03  0.00000000000E+00 0.  1.
<mgrwt>
<rscale>  2 0.28289638E+03</rscale>
<asrwt>0</asrwt>
<pdfrwt beam="1">  1       21 0.44954428E-01 0.28289638E+03</pdfrwt>
<pdfrwt beam="2">  1       21 0.20517789E+00 0.28289638E+03</pdfrwt>
<totfact> 0.53969882E+02</totfact>
</mgrwt>
</event>
<event>
 5    1  0.1590180E+000  0.1066516E+03  0.7546771E-02  0.1266899E+00
         21   -1    0    0  501  502  0.00000000000E+00  0.00000000000E+00  0.12652153837E+03  0.12652153837E+03  0.00000000000E+00 0.  1.
         21   -1    0    0  502  503 -0.00000000000E+00 -0.00000000000E+00 -0.25233699811E+03  0.25233699811E+03  0.00000000000E+00 0.  1.
         24    1    1    2    0    0 -0.64290640773E+02  0.28664136997E+01  0.38760376492E+02  0.11005037737E+03  0.80419002446E+02 0.  1.
          1    1    1    2  501    0 -0.22111097253E+02  0.73506652509E+01  0.40116641400E+02  0.46392648325E+02  0.00000000000E+00 0. -1.
         -2    1    1    2    0  503  0.86401738026E+02 -0.10217078951E+02 -0.20469247763E+03  0.22241551078E+03  0.00000000000E+00 0.  1.
<mgrwt>
<rscale>  2 0.10665164E+03</rscale>
<asrwt>0</asrwt>
<pdfrwt beam="1">  1       21 0.19464852E-01 0.10665164E+03</pdfrwt>
<pdfrwt beam="2">  1       21 0.38821076E-01 0.10665164E+03</pdfrwt>
<totfact> 0.15963446E+05</totfact>
</mgrwt>
</event>
<event>
 5    1  0.1590180E+000  0.1093259E+03  0.7546771E-02  0.1261823E+00
         21   -1    0    0  501  502  0.00000000000E+00  0.00000000000E+00  0.18422287001E+03  0.18422287001E+03  0.00000000000E+00 0.  1.
         21   -1    0    0  502  503 -0.00000000000E+00 -0.00000000000E+00 -0.12427807607E+03  0.12427807607E+03  0.00000000000E+00 0.  1.
         24    1    1    2    0    0  0.32692273701E+02  0.82951677668E+02 -0.53560882210E+01  0.12019013779E+03  0.80419002446E+02 0.  0.
          1    1    1    2  501    0 -0.30904982264E+02 -0.22805846803E+02  0.10793512907E+03  0.11456533797E+03  0.00000000000E+00 0. -1.
         -2    1    1    2    0  503 -0.17872914365E+01 -0.60145830865E+02 -0.42634246913E+02  0.73745470308E+02  0.00000000000E+00 0.  1.
<mgrwt>
<rscale>  2 0.10932588E+03</rscale>
<asrwt>0</asrwt>
<pdfrwt beam="1">  1       21 0.28341980E-01 0.10932588E+03</pdfrwt>
<pdfrwt beam="2">  1       21 0.19119704E-01 0.10932588E+03</pdfrwt>
<totfact> 0.30376357E+05</totfact>
</mgrwt>
</event>
<event>
 5    1  0.1590180E+000  0.7131908E+02  0.7546771E-02  0.1355664E+00
         21   -1    0    0  501  502  0.00000000000E+00  0.00000000000E+00  0.31945886495E+02  0.31945886495E+02  0.00000000000E+00 0.  1.
         21   -1    0    0  502  503 -0.00000000000E+00 -0.00000000000E+00 -0.20361630163E+03  0.20361630163E+03  0.00000000000E+00 0. -1.
         24    1    1    2    0    0 -0.49546215342E+01  0.10700314518E+02 -0.55314703935E+02  0.98315702872E+02  0.80419002446E+02 0.  1.
          1    1    1    2  501    0 -0.10333398551E+02 -0.32855017714E+02 -0.26531748735E+02  0.43476027941E+02  0.00000000000E+00 0. -1.
         -2    1    1    2    0  503  0.15288020085E+02  0.22154703197E+02 -0.89823962468E+02  0.93770457316E+02  0.00000000000E+00 0.  1.
<mgrwt>
<rscale>  2 0.71319083E+02</rscale>
<asrwt>0</asrwt>
<pdfrwt beam="1">  1       21 0.49147517E-02 0.71319083E+02</pdfrwt>
<pdfrwt beam="2">  1       21 0.31325585E-01 0.71319083E+02</pdfrwt>
<totfact> 0.26220587E+06</totfact>
</mgrwt>
</event>
<event>
 5    1  0.1677169E+000  0.6789044E+02  0.7546771E-02  0.1367417E+00
         21   -1    0    0  503  502  0.00000000000E+00  0.00000000000E+00  0.13799221586E+03  0.13799221586E+03  0.00000000000E+00 0. -1.
         21   -1    0    0  501  503 -0.00000000000E+00 -0.00000000000E+00 -0.22951418255E+03  0.22951418255E+03  0.00000000000E+00 0. -1.
         24    1    1    2    0    0 -0.20990294194E+01  0.68797249478E+01  0.80109571234E+02  0.11373871767E+03  0.80419002446E+02 0. -1.
          1    1    1    2  501    0  0.11417608223E+02 -0.28930439913E+02 -0.20795350047E+03  0.21026647496E+03  0.00000000000E+00 0. -1.
         -2    1    1    2    0  502 -0.93185788038E+01  0.22050714965E+02  0.36321962542E+02  0.43501205780E+02  0.00000000000E+00 0.  1.
<mgrwt>
<rscale>  2 0.67890437E+02</rscale>
<asrwt>0</asrwt>
<pdfrwt beam="1">  1       21 0.21229572E-01 0.67890437E+02</pdfrwt>
<pdfrwt beam="2">  1       21 0.35309874E-01 0.67890437E+02</pdfrwt>
<totfact> 0.16627187E+05</totfact>
</mgrwt>
</event>
<event>
 5    1  0.1590180E+000  0.8380558E+02  0.7546771E-02  0.1318586E+00
         21   -1    0    0  501  502  0.00000000000E+00  0.00000000000E+00  0.55484467452E+02  0.55484467452E+02  0.00000000000E+00 0. -1.
         21   -1    0    0  502  503 -0.00000000000E+00 -0.00000000000E+00 -0.14895371623E+03  0.14895371623E+03  0.00000000000E+00 0. -1.
         24    1    1    2    0    0 -0.62816331790E+02 -0.28310726779E+01 -0.23526546445E+02  0.10475982462E+03  0.80419002446E+02 0. -1.
          1    1    1    2  501    0  0.24844530969E+02  0.10182782664E+02 -0.10648145229E+02  0.28884646071E+02  0.00000000000E+00 0. -1.
         -2    1    1    2    0  503  0.37971800821E+02 -0.73517099862E+01 -0.59294557107E+02  0.70793712997E+02  0.00000000000E+00 0.  1.
<mgrwt>
<rscale>  2 0.83805578E+02</rscale>
<asrwt>0</asrwt>
<pdfrwt beam="1">  1       21 0.85360719E-02 0.83805578E+02</pdfrwt>
<pdfrwt beam="2">  1       21 0.22915956E-01 0.83805578E+02</pdfrwt>
<totfact> 0.18787383E+06</totfact>
</mgrwt>
</event>
<event>
 5    1  0.1590180E+000  0.9244964E+02  0.7546771E-02  0.1297026E+00
         21   -1    0    0  501  502  0.00000000000E+00  0.00000000000E+00  0.11578453268E+03  0.11578453268E+03  0.00000000000E+00 0. -1.
         21   -1    0    0  502  503 -0.00000000000E+00 -0.00000000000E+00 -0.20724760638E+03  0.20724760638E+03  0.00000000000E+00 0.  1.
         24    1    1    2    0    0  0.24698762744E+02  0.34114426930E+01  0.29218452315E+01  0.84246186598E+02  0.80419002446E+02 0.  1.
          1    1    1    2  501    0  0.24918441359E+02 -0.34196375469E+02  0.60176110990E+02  0.73562797315E+02  0.00000000000E+00 0. -1.
         -2    1    1    2    0  503 -0.49617204103E+02  0.30784932776E+02 -0.15456102992E+03  0.16522315515E+03  0.00000000000E+00 0.  1.
<mgrwt>
<rscale>  2 0.92449643E+02</rscale>
<asrwt>0</asrwt>
<pdfrwt beam="1">  1       21 0.17813005E-01 0.92449643E+02</pdfrwt>
<pdfrwt beam="2">  1       21 0.31884247E-01 0.92449643E+02</pdfrwt>
<totfact> 0.27664679E+05</totfact>
</mgrwt>
</event>
<event>
 5    1  0.1590180E+000  0.1102990E+03  0.7546771E-02  0.1260017E+00
         21   -1    0    0  503  502  0.00000000000E+00  0.00000000000E+00  0.10951227642E+04  0.10951227642E+04  0.00000000000E+00 0.  1.
         21   -1    0    0  501  503 -0.00000000000E+00 -0.00000000000E+00 -0.30157633852E+02  0.30157633852E+02  0.00000000000E+00 0. -1.
         24    1    1    2    0    0 -0.35000792437E+02 -0.81626256366E+02  0.29040787328E+03  0.31415259034E+03  0.80419002446E+02 0. -1.
          1    1    1    2  501    0 -0.10561661905E+02  0.30629781439E+02 -0.11422587460E+01  0.32419700310E+02  0.00000000000E+00 0. -1.
         -2    1    1    2    0  502  0.45562454342E+02  0.50996474928E+02  0.77569951583E+03  0.77870810742E+03  0.00000000000E+00 0.  1.
<mgrwt>
<rscale>  2 0.11029896E+03</rscale>
<asrwt>0</asrwt>
<pdfrwt beam="1">  1       21 0.16848039E+00 0.11029896E+03</pdfrwt>
<pdfrwt beam="2">  1       21 0.46396368E-02 0.11029896E+03</pdfrwt>
<totfact> 0.70271264E+04</totfact>
</mgrwt>
</event>
<event>
 5    1  0.1590180E+000  0.6640236E+02  0.7546771E-02  0.1372773E+00
         21   -1    0    0  503  502  0.00000000000E+00  0.00000000000E+00  0.10607427677E+02  0.10607427677E+02  0.00000000000E+00 0. -1.
         21   -1    0    0  501  503 -0.00000000000E+00 -0.00000000000E+00 -0.10133448136E+04  0.10133448136E+04  0.00000000000E+00 0. -1.
         24    1    1    2    0    0  0.12700142299E+01 -0.13519984488E+02 -0.40930641947E+03  0.41735280506E+03  0.80419002446E+02 0.  0.
          1    1    1    2  501    0  0.16163165422E+02  0.25431567970E+02 -0.58163250456E+03  0.58241255389E+03  0.00000000000E+00 0. -1.
         -2    1    1    2    0  502 -0.17433179652E+02 -0.11911583482E+02 -0.11798461892E+02  0.24186882330E+02  0.00000000000E+00 0.  1.
<mgrwt>
<rscale>  2 0.66402359E+02</rscale>
<asrwt>0</asrwt>
<pdfrwt beam="1">  1       21 0.16319119E-02 0.66402359E+02</pdfrwt>
<pdfrwt beam="2">  1       21 0.15589921E+00 0.66402359E+02</pdfrwt>
<totfact> 0.47948447E+05</totfact>
</mgrwt>
</event>
<event>
 5    1  0.1590180E+000  0.7935917E+02  0.7546771E-02  0.1330880E+00
         21   -1    0    0  503  502  0.00000000000E+00  0.00000000000E+00  0.83898088307E+02  0.83898088307E+02  0.00000000000E+00 0.  1.
         21   -1    0    0  501  503 -0.00000000000E+00 -0.00000000000E+00 -0.55786267781E+03  0.55786267781E+03  0.00000000000E+00 0. -1.
         24    1    1    2    0    0  0.14073845029E+02  0.29528507826E+02 -0.26508681118E+03  0.27894128290E+03  0.80419002446E+02 0.  0.
          1    1    1    2  501    0 -0.10698398676E+02 -0.50010948961E+02 -0.28210676692E+03  0.28670503778E+03  0.00000000000E+00 0. -1.
         -2    1    1    2    0  502 -0.33754463532E+01  0.20482441135E+02  0.73228988596E+02  0.76114445434E+02  0.00000000000E+00 0.  1.
<mgrwt>
<rscale>  2 0.79359170E+02</rscale>
<asrwt>0</asrwt>
<pdfrwt beam="1">  1       21 0.12907399E-01 0.79359170E+02</pdfrwt>
<pdfrwt beam="2">  1       21 0.85825024E-01 0.79359170E+02</pdfrwt>
<totfact> 0.64244756E+04</totfact>
</mgrwt>
</event>
<event>
 5    1  0.1590180E+000  0.7269506E+02  0.7546771E-02  0.1351161E+00
         21   -1    0    0  503  502  0.00000000000E+00  0.00000000000E+00  0.53815323119E+02  0.53815323119E+02  0.00000000000E+00 0.  1.
         21   -1    0    0  501  503 -0.00000000000E+00 -0.00000000000E+00 -0.12616932717E+03  0.12616932717E+03  0.00000000000E+00 0. -1.
         24    1    1    2    0    0  0.16273342311E+02 -0.21178945405E+00 -0.26932783932E+02  0.86356570853E+02  0.80419002446E+02 0. -1.
          1    1    1    2  501    0 -0.28896286417E+02  0.23238450811E+02 -0.54434654057E+02  0.65864653093E+02  0.00000000000E+00 0. -1.
         -2    1    1    2    0  502  0.12622944106E+02 -0.23026661357E+02  0.90134339352E+01  0.27763426346E+02  0.00000000000E+00 0.  1.
<mgrwt>
<rscale>  2 0.72695065E+02</rscale>
<asrwt>0</asrwt>
<pdfrwt beam="1">  1       21 0.82792806E-02 0.72695065E+02</pdfrwt>
<pdfrwt beam="2">  1       21 0.19410665E-01 0.72695065E+02</pdfrwt>
<totfact> 0.26647633E+06</totfact>
</mgrwt>
</event>
<event>
 5    1  0.1590180E+000  0.7482216E+02  0.7546771E-02  0.1344423E+00
         21   -1    0    0  503  502  0.00000000000E+00  0.00000000000E+00  0.15866264627E+02  0.15866264627E+02  0.00000000000E+00 0. -1.
         21   -1    0    0  501  503 -0.00000000000E+00 -0.00000000000E+00 -0.11229963060E+04  0.11229963060E+04  0.00000000000E+00 0.  1.
         24    1    1    2    0    0  0.10490539110E+02 -0.40606841722E+02 -0.10514151108E+04  0.10553198179E+04  0.80419002446E+02 0.  1.
          1    1    1    2  501    0  0.98009109468E+01  0.37076144797E+02 -0.48252870393E+02  0.61636335627E+02  0.00000000000E+00 0. -1.
         -2    1    1    2    0  502 -0.20291450057E+02  0.35306969247E+01 -0.74620602078E+01  0.21906417067E+02  0.00000000000E+00 0.  1.
<mgrwt>
<rscale>  2 0.74822161E+02</rscale>
<asrwt>0</asrwt>
<pdfrwt beam="1">  1       21 0.24409643E-02 0.74822161E+02</pdfrwt>
<pdfrwt beam="2">  1       21 0.17276863E+00 0.74822161E+02</pdfrwt>
<totfact> 0.19285154E+05</totfact>
</mgrwt>
</event>
<event>
 5    1  0.1590180E+000  0.1093044E+03  0.7546771E-02  0.1261863E+00
         21   -1    0    0  503  502  0.00000000000E+00  0.00000000000E+00  0.19511372143E+03  0.19511372143E+03  0.00000000000E+00 0.  1.
         21   -1    0    0  501  503 -0.00000000000E+00 -0.00000000000E+00 -0.71200108519E+02  0.71200108519E+02  0.00000000000E+00 0. -1.
         24    1    1    2    0    0  0.25891533162E+02 -0.42575052215E+02  0.95632690858E+02  0.13452075704E+03  0.80419002446E+02 0.  0.
          1    1    1    2  501    0  0.21952688485E+02 -0.29940673645E+02 -0.74307515008E+01  0.37862653604E+02  0.00000000000E+00 0. -1.
         -2    1    1    2    0  502 -0.47844221647E+02  0.72515725860E+02  0.35711673553E+02  0.93930419300E+02  0.00000000000E+00 0.  1.
<mgrwt>
<rscale>  2 0.10930444E+03</rscale>
<asrwt>0</asrwt>
<pdfrwt beam="1">  1       21 0.30017495E-01 0.10930444E+03</pdfrwt>
<pdfrwt beam="2">  1       21 0.10953863E-01 0.10930444E+03</pdfrwt>
<totfact> 0.73780090E+05</totfact>
</mgrwt>
</event>
<event>
 5    1  0.1590180E+000  0.6774957E+02  0.7546771E-02  0.1367917E+00
         21   -1    0    0  501  502  0.00000000000E+00  0.00000000000E+00  0.73746598527E+03  0.73746598527E+03  0.00000000000E+00 0. -1.
         21   -1    0    0  502  503 -0.00000000000E+00 -0.00000000000E+00 -0.25845880312E+02  0.25845880312E+02  0.00000000000E+00 0. -1.
         24    1    1    2    0    0 -0.35419125368E+01  0.89215447369E+01  0.41558558999E+02  0.91030043861E+02  0.80419002446E+02 0. -1.
          1    1    1    2  501    0  0.28510692213E+02 -0.75965437862E+01  0.34409224866E+03  0.34535495166E+03  0.00000000000E+00 0. -1.
         -2    1    1    2    0  503 -0.24968779676E+02 -0.13250009507E+01  0.32596929731E+03  0.32692687007E+03  0.00000000000E+00 0.  1.
<mgrwt>
<rscale>  2 0.67749565E+02</rscale>
<asrwt>0</asrwt>
<pdfrwt beam="1">  1       21 0.11345629E+00 0.67749565E+02</pdfrwt>
<pdfrwt beam="2">  1       21 0.39762898E-02 0.67749565E+02</pdfrwt>
<totfact> 0.24966196E+05</totfact>
</mgrwt>
</event>
<event>
 5    1  0.1590180E+000  0.7869654E+02  0.7546771E-02  0.1332792E+00
         21   -1    0    0  501  502  0.00000000000E+00  0.00000000000E+00  0.14669396610E+02  0.14669396610E+02  0.00000000000E+00 0. -1.
         21   -1    0    0  502  503 -0.00000000000E+00 -0.00000000000E+00 -0.59341959607E+03  0.59341959607E+03  0.00000000000E+00 0. -1.
         24    1    1    2    0    0 -0.32108972393E+02  0.56236948348E+00 -0.45110410860E+03  0.45934021718E+03  0.80419002446E+02 0. -1.
          1    1    1    2  501    0  0.34812589786E+02  0.26406768887E+02 -0.49452392067E+02  0.65990703374E+02  0.00000000000E+00 0. -1.
         -2    1    1    2    0  503 -0.27036173932E+01 -0.26969138370E+02 -0.78193698797E+02  0.82758072132E+02  0.00000000000E+00 0.  1.
<mgrwt>
<rscale>  2 0.78696541E+02</rscale>
<asrwt>0</asrwt>
<pdfrwt beam="1">  1       21 0.22568300E-02 0.78696541E+02</pdfrwt>
<pdfrwt beam="2">  1       21 0.91295333E-01 0.78696541E+02</pdfrwt>
<totfact> 0.10284361E+06</totfact>
</mgrwt>
</event>
<event>
 5    1  0.1590180E+000  0.8149358E+02  0.7546771E-02  0.1324866E+00
         21   -1    0    0  501  502  0.00000000000E+00  0.00000000000E+00  0.39964171307E+03  0.39964171307E+03  0.00000000000E+00 0. -1.
         21   -1    0    0  502  503 -0.00000000000E+00 -0.00000000000E+00 -0.22474589748E+02  0.22474589748E+02  0.00000000000E+00 0. -1.
         24    1    1    2    0    0 -0.24256883131E+02 -0.23326616611E+02  0.26252405814E+03  0.27662000015E+03  0.80419002446E+02 0. -1.
          1    1    1    2  501    0  0.39846306686E+02  0.37517752189E+02  0.11146573651E+03  0.12417697170E+03  0.00000000000E+00 0. -1.
         -2    1    1    2    0  503 -0.15589423554E+02 -0.14191135578E+02  0.31773286768E+01  0.21319330976E+02  0.00000000000E+00 0.  1.
<mgrwt>
<rscale>  2 0.81493583E+02</rscale>
<asrwt>0</asrwt>
<pdfrwt beam="1">  1       21 0.61483335E-01 0.81493583E+02</pdfrwt>
<pdfrwt beam="2">  1       21 0.34576295E-02 0.81493583E+02</pdfrwt>
<totfact> 0.12210496E+06</totfact>
</mgrwt>
</event>
<event>
 5    1  0.1590180E+000  0.9599227E+02  0.7546771E-02  0.1288957E+00
         21   -1    0    0  501  502  0.00000000000E+00  0.00000000000E+00  0.21377870426E+02  0.21377870426E+02  0.00000000000E+00 0. -1.
         21   -1    0    0  502  503 -0.00000000000E+00 -0.00000000000E+00 -0.57917460205E+03  0.57917460205E+03  0.00000000000E+00 0.  1.
         24    1    1    2    0    0 -0.50571700446E+02 -0.12920599647E+02 -0.12716549322E+03  0.15925676564E+03  0.80419002446E+02 0. -1.
          1    1    1    2  501    0 -0.20522480340E+02 -0.79634036344E+01 -0.84331667257E+02  0.87157432839E+02  0.00000000000E+00 0. -1.
         -2    1    1    2    0  503  0.71094180787E+02  0.20884003281E+02 -0.34629957114E+03  0.35413827400E+03  0.00000000000E+00 0.  1.
<mgrwt>
<rscale>  2 0.95992274E+02</rscale>
<asrwt>0</asrwt>
<pdfrwt beam="1">  1       21 0.32889034E-02 0.95992274E+02</pdfrwt>
<pdfrwt beam="2">  1       21 0.89103779E-01 0.95992274E+02</pdfrwt>
<totfact> 0.59132465E+05</totfact>
</mgrwt>
</event>
<event>
 5    1  0.1590180E+000  0.6541461E+02  0.7546771E-02  0.1376419E+00
         21   -1    0    0  501  502  0.00000000000E+00  0.00000000000E+00  0.15114962756E+03  0.15114962756E+03  0.00000000000E+00 0. -1.
         21   -1    0    0  502  503 -0.00000000000E+00 -0.00000000000E+00 -0.70103396367E+02  0.70103396367E+02  0.00000000000E+00 0.  1.
         24    1    1    2    0    0 -0.27194230808E+02 -0.17684555291E+01  0.11996944918E+03  0.14697801984E+03  0.80419002446E+02 0. -1.
          1    1    1    2  501    0  0.14397588935E+02  0.19383568712E+02  0.55347561163E+01  0.24771895939E+02  0.00000000000E+00 0. -1.
         -2    1    1    2    0  503  0.12796641874E+02 -0.17615113183E+02 -0.44457974102E+02  0.49503108154E+02  0.00000000000E+00 0.  1.
<mgrwt>
<rscale>  2 0.65414611E+02</rscale>
<asrwt>0</asrwt>
<pdfrwt beam="1">  1       21 0.23253789E-01 0.65414611E+02</pdfrwt>
<pdfrwt beam="2">  1       21 0.10785138E-01 0.65414611E+02</pdfrwt>
<totfact> 0.12119631E+06</totfact>
</mgrwt>
</event>
<event>
 5    1  0.1590180E+000  0.8554111E+02  0.7546771E-02  0.1314024E+00
         21   -1    0    0  501  502  0.00000000000E+00  0.00000000000E+00  0.11577984024E+03  0.11577984024E+03  0.00000000000E+00 0. -1.
         21   -1    0    0  502  503 -0.00000000000E+00 -0.00000000000E+00 -0.73400469115E+02  0.73400469115E+02  0.00000000000E+00 0. -1.
         24    1    1    2    0    0  0.11815927429E+02  0.21986429848E+02 -0.60702947054E+01  0.84422056778E+02  0.80419002446E+02 0. -1.
          1    1    1    2  501    0 -0.31485643172E+02 -0.46058785144E+02  0.48109060441E+02  0.73669797824E+02  0.00000000000E+00 0. -1.
         -2    1    1    2    0  503  0.19669715743E+02  0.24072355296E+02  0.34060538912E+00  0.31088454753E+02  0.00000000000E+00 0.  1.
<mgrwt>
<rscale>  2 0.85541107E+02</rscale>
<asrwt>0</asrwt>
<pdfrwt beam="1">  1       21 0.17812283E-01 0.85541107E+02</pdfrwt>
<pdfrwt beam="2">  1       21 0.11292380E-01 0.85541107E+02</pdfrwt>
<totfact> 0.18382810E+06</totfact>
</mgrwt>
</event>
<event>
 5    1  0.1590180E+000  0.1714206E+03  0.7546771E-02  0.1176374E+00
         21   -1    0    0  503  502  0.00000000000E+00  0.00000000000E+00  0.37710847773E+03  0.37710847773E+03  0.00000000000E+00 0. -1.
         21   -1    0    0  501  503 -0.00000000000E+00 -0.00000000000E+00 -0.98420433141E+02  0.98420433141E+02  0.00000000000E+00 0.  1.
         24    1    1    2    0    0 -0.99961607930E+02  0.82035380038E+02  0.23451083239E+03  0.27961522330E+03  0.80419002446E+02 0. -1.
          1    1    1    2  501    0 -0.35983961590E+02 -0.14987946294E+02  0.45935564104E+01  0.39250283901E+02  0.00000000000E+00 0. -1.
         -2    1    1    2    0  502  0.13594556952E+03 -0.67047433744E+02  0.39583655789E+02  0.15666340367E+03  0.00000000000E+00 0.  1.
<mgrwt>
<rscale>  2 0.17142062E+03</rscale>
<asrwt>0</asrwt>
<pdfrwt beam="1">  1       21 0.58016688E-01 0.17142062E+03</pdfrwt>
<pdfrwt beam="2">  1       21 0.15141605E-01 0.17142062E+03</pdfrwt>
<totfact> 0.10824690E+05</totfact>
</mgrwt>
</event>
<event>
 5    1  0.1590180E+000  0.6513492E+02  0.7546771E-02  0.1377465E+00
         21   -1    0    0  501  502  0.00000000000E+00  0.00000000000E+00  0.57512810678E+01  0.57512810678E+01  0.00000000000E+00 0.  1.
         21   -1    0    0  502  503 -0.00000000000E+00 -0.00000000000E+00 -0.92831709494E+03  0.92831709494E+03  0.00000000000E+00 0. -1.
         24    1    1    2    0    0 -0.51082874809E+01  0.71001843859E+01 -0.37212358829E+03  0.38081450620E+03  0.80419002446E+02 0.  1.
          1    1    1    2  501    0  0.26118912196E+02  0.25745044348E+01 -0.16098879998E+03  0.16311412988E+03  0.00000000000E+00 0. -1.
         -2    1    1    2    0  503 -0.21010624715E+02 -0.96746888207E+01 -0.38945342561E+03  0.39013973993E+03  0.00000000000E+00 0.  1.
<mgrwt>
<rscale>  2 0.65134916E+02</rscale>
<asrwt>0</asrwt>
<pdfrwt beam="1">  1       21 0.88481307E-03 0.65134916E+02</pdfrwt>
<pdfrwt beam="2">  1       21 0.14281792E+00 0.65134916E+02</pdfrwt>
<totfact> 0.15518505E+06</totfact>
</mgrwt>
</event>
<event>
 5    1  0.1590180E+000  0.7929879E+02  0.7546771E-02  0.1331053E+00
         21   -1    0    0  503  502  0.00000000000E+00  0.00000000000E+00  0.18478361590E+02  0.18478361590E+02  0.00000000000E+00 0. -1.
         21   -1    0    0  501  503 -0.00000000000E+00 -0.00000000000E+00 -0.41301297046E+03  0.41301297046E+03  0.00000000000E+00 0.  1.
         24    1    1    2    0    0 -0.37602645127E+02 -0.36215552416E+02 -0.23817956780E+03  0.25675328163E+03  0.80419002446E+02 0.  0.
          1    1    1    2  501    0  0.29039767219E+02  0.39149751837E+01 -0.12675247707E+03  0.13009544786E+03  0.00000000000E+00 0. -1.
         -2    1    1    2    0  502  0.85628779086E+01  0.32300577233E+02 -0.29602563998E+02  0.44642602555E+02  0.00000000000E+00 0.  1.
<mgrwt>
<rscale>  2 0.79298788E+02</rscale>
<asrwt>0</asrwt>
<pdfrwt beam="1">  1       21 0.28428249E-02 0.79298788E+02</pdfrwt>
<pdfrwt beam="2">  1       21 0.63540457E-01 0.79298788E+02</pdfrwt>
<totfact> 0.15644195E+06</totfact>
</mgrwt>
</event>
<event>
 5    1  0.1590180E+000  0.9153983E+02  0.7546771E-02  0.1299165E+00
         21   -1    0    0  501  502  0.00000000000E+00  0.00000000000E+00  0.53683638736E+03  0.53683638736E+03  0.00000000000E+00 0.  1.
         21   -1    0    0  502  503 -0.00000000000E+00 -0.00000000000E+00 -0.20057126978E+02  0.20057126978E+02  0.00000000000E+00 0. -1.
         24    1    1    2    0    0 -0.54066787418E+02 -0.28962360486E+02  0.39672445857E+03  0.40941366344E+03  0.80419002446E+02 0.  1.
          1    1    1    2  501    0 -0.50366653409E+01  0.21834860869E+02  0.54505331091E+02  0.58931827260E+02  0.00000000000E+00 0. -1.
         -2    1    1    2    0  503  0.59103452759E+02  0.71274996175E+01  0.65549470715E+02  0.88548023636E+02  0.00000000000E+00 0.  1.
<mgrwt>
<rscale>  2 0.91539834E+02</rscale>
<asrwt>0</asrwt>
<pdfrwt beam="1">  1       21 0.82590202E-01 0.91539834E+02</pdfrwt>
<pdfrwt beam="2">  1       21 0.30857123E-02 0.91539834E+02</pdfrwt>
<totfact> 0.77794847E+05</totfact>
</mgrwt>
</event>
<event>
 5    1  0.1590180E+000  0.1283782E+03  0.7546771E-02  0.1229882E+00
         21   -1    0    0  503  502  0.00000000000E+00  0.00000000000E+00  0.39554107981E+03  0.39554107981E+03  0.00000000000E+00 0.  1.
         21   -1    0    0  501  503 -0.00000000000E+00 -0.00000000000E+00 -0.24994049696E+03  0.24994049696E+03  0.00000000000E+00 0. -1.
         24    1    1    2    0    0 -0.81809637132E+02  0.51657207737E+02 -0.52296575061E+02  0.13624768459E+03  0.80419002446E+02 0. -1.
          1    1    1    2  501    0  0.10102971222E+03 -0.41680882175E+02 -0.13609213338E+03  0.17454331112E+03  0.00000000000E+00 0. -1.
         -2    1    1    2    0  502 -0.19220075085E+02 -0.99763255621E+01  0.33398929129E+03  0.33469058107E+03  0.00000000000E+00 0.  1.
<mgrwt>
<rscale>  2 0.12837816E+03</rscale>
<asrwt>0</asrwt>
<pdfrwt beam="1">  1       21 0.60852474E-01 0.12837816E+03</pdfrwt>
<pdfrwt beam="2">  1       21 0.38452384E-01 0.12837816E+03</pdfrwt>
<totfact> 0.17126921E+04</totfact>
</mgrwt>
</event>
<event>
 5    1  0.1590180E+000  0.1209699E+03  0.7546771E-02  0.1241505E+00
         21   -1    0    0  503  502  0.00000000000E+00  0.00000000000E+00  0.98730451796E+02  0.98730451796E+02  0.00000000000E+00 0.  1.
         21   -1    0    0  501  503 -0.00000000000E+00 -0.00000000000E+00 -0.27384348555E+03  0.27384348555E+03  0.00000000000E+00 0. -1.
         24    1    1    2    0    0 -0.40786447647E+01  0.65100985681E+01 -0.14176282987E+03  0.16316535360E+03  0.80419002446E+02 0.  0.
          1    1    1    2  501    0 -0.77155819908E+02  0.11333237037E+02 -0.81912671951E+02  0.11309796034E+03  0.00000000000E+00 0. -1.
         -2    1    1    2    0  502  0.81234464673E+02 -0.17843335606E+02  0.48562468069E+02  0.96310623408E+02  0.00000000000E+00 0.  1.
<mgrwt>
<rscale>  2 0.12096994E+03</rscale>
<asrwt>0</asrwt>
<pdfrwt beam="1">  1       21 0.15189300E-01 0.12096994E+03</pdfrwt>
<pdfrwt beam="2">  1       21 0.42129767E-01 0.12096994E+03</pdfrwt>
<totfact> 0.21189451E+05</totfact>
</mgrwt>
</event>
<event>
 5    1  0.1590180E+000  0.7518330E+02  0.7546771E-02  0.1343304E+00
         21   -1    0    0  501  502  0.00000000000E+00  0.00000000000E+00  0.22474683276E+02  0.22474683276E+02  0.00000000000E+00 0. -1.
         21   -1    0    0  502  503 -0.00000000000E+00 -0.00000000000E+00 -0.48512999899E+03  0.48512999899E+03  0.00000000000E+00 0.  1.
         24    1    1    2    0    0 -0.43408850474E+02 -0.64992801368E+01 -0.12328159820E+03  0.15359732209E+03  0.80419002446E+02 0. -1.
          1    1    1    2  501    0  0.35247478279E+02 -0.13033296167E+02 -0.43949601922E+02  0.57825764527E+02  0.00000000000E+00 0. -1.
         -2    1    1    2    0  503  0.81613721947E+01  0.19532576303E+02 -0.29542411559E+03  0.29618159565E+03  0.00000000000E+00 0.  1.
<mgrwt>
<rscale>  2 0.75183303E+02</rscale>
<asrwt>0</asrwt>
<pdfrwt beam="1">  1       21 0.34576439E-02 0.75183303E+02</pdfrwt>
<pdfrwt beam="2">  1       21 0.74635377E-01 0.75183303E+02</pdfrwt>
<totfact> 0.80602983E+05</totfact>
</mgrwt>
</event>
<event>
 5    1  0.1590180E+000  0.1168743E+03  0.7546771E-02  0.1248344E+00
         21   -1    0    0  501  502  0.00000000000E+00  0.00000000000E+00  0.32415337898E+03  0.32415337898E+03  0.00000000000E+00 0.  1.
         21   -1    0    0  502  503 -0.00000000000E+00 -0.00000000000E+00 -0.10530216994E+03  0.10530216994E+03  0.00000000000E+00 0.  1.
         24    1    1    2    0    0  0.69090479002E+02 -0.74839102713E+02  0.86732956180E+02  0.15609038159E+03  0.80419002446E+02 0.  0.
          1    1    1    2  501    0 -0.59227602917E+02  0.50944380791E+02  0.19246427554E+03  0.20771551757E+03  0.00000000000E+00 0. -1.
         -2    1    1    2    0  503 -0.98628760851E+01  0.23894721922E+02 -0.60346022676E+02  0.65649649757E+02  0.00000000000E+00 0.  1.
<mgrwt>
<rscale>  2 0.11687432E+03</rscale>
<asrwt>0</asrwt>
<pdfrwt beam="1">  1       21 0.49869750E-01 0.11687432E+03</pdfrwt>
<pdfrwt beam="2">  1       21 0.16200334E-01 0.11687432E+03</pdfrwt>
<totfact> 0.13404877E+05</totfact>
</mgrwt>
</event>
<event>
 5    1  0.1590180E+000  0.7476907E+02  0.7546771E-02  0.1344588E+00
         21   -1    0    0  503  502  0.00000000000E+00  0.00000000000E+00  0.17524858003E+03  0.17524858003E+03  0.00000000000E+00 0.  1.
         21   -1    0    0  501  503 -0.00000000000E+00 -0.00000000000E+00 -0.43549393548E+02  0.43549393548E+02  0.00000000000E+00 0.  1.
         24    1    1    2    0    0  0.65361318825E+01 -0.13003175187E+02  0.23676003632E+02  0.85085678509E+02  0.80419002446E+02 0.  1.
          1    1    1    2  501    0  0.27982616237E+02  0.17497352207E+02  0.18898396257E+02  0.38030691906E+02  0.00000000000E+00 0. -1.
         -2    1    1    2    0  502 -0.34518748120E+02 -0.44941770201E+01  0.89124786596E+02  0.95681603167E+02  0.00000000000E+00 0.  1.
<mgrwt>
<rscale>  2 0.74769069E+02</rscale>
<asrwt>0</asrwt>
<pdfrwt beam="1">  1       21 0.26961320E-01 0.74769069E+02</pdfrwt>
<pdfrwt beam="2">  1       21 0.66999068E-02 0.74769069E+02</pdfrwt>
<totfact> 0.20829552E+06</totfact>
</mgrwt>
</event>
<event>
 5    1  0.1590180E+000  0.6929951E+02  0.7546771E-02  0.1362491E+00
         21   -1    0    0  501  502  0.00000000000E+00  0.00000000000E+00  0.75753050252E+02  0.75753050252E+02  0.00000000000E+00 0. -1.
         21   -1    0    0  502  503 -0.00000000000E+00 -0.00000000000E+00 -0.11576650277E+03  0.11576650277E+03  0.00000000000E+00 0.  1.
         24    1    1    2    0    0 -0.34433071837E+02  0.77273637930E+00 -0.84383420241E+02  0.12154839005E+03  0.80419002446E+02 0.  1.
          1    1    1    2  501    0  0.12655032944E+02  0.18243524528E+02  0.30965468418E+02  0.38102969443E+02  0.00000000000E+00 0. -1.
         -2    1    1    2    0  503  0.21778038894E+02 -0.19016260908E+02  0.13404499307E+02  0.31868193526E+02  0.00000000000E+00 0.  1.
<mgrwt>
<rscale>  2 0.69299507E+02</rscale>
<asrwt>0</asrwt>
<pdfrwt beam="1">  1       21 0.11654315E-01 0.69299507E+02</pdfrwt>
<pdfrwt beam="2">  1       21 0.17810231E-01 0.69299507E+02</pdfrwt>
<totfact> 0.17249522E+06</totfact>
</mgrwt>
</event>
<event>
 5    1  0.1590180E+000  0.9765350E+02  0.7546771E-02  0.1285309E+00
         21   -1    0    0  503  502  0.00000000000E+00  0.00000000000E+00  0.70484559450E+03  0.70484559450E+03  0.00000000000E+00 0.  1.
         21   -1    0    0  501  503 -0.00000000000E+00 -0.00000000000E+00 -0.56115065554E+02  0.56115065554E+02  0.00000000000E+00 0. -1.
         24    1    1    2    0    0 -0.44638527497E+02 -0.66048577206E+02  0.72285589947E+02  0.13434074273E+03  0.80419002446E+02 0. -1.
          1    1    1    2  501    0  0.21036290671E+02  0.47844026454E+02  0.29465868860E+01  0.52347480998E+02  0.00000000000E+00 0. -1.
         -2    1    1    2    0  502  0.23602236826E+02  0.18204550752E+02  0.57349835212E+03  0.57427243633E+03  0.00000000000E+00 0.  1.
<mgrwt>
<rscale>  2 0.97653500E+02</rscale>
<asrwt>0</asrwt>
<pdfrwt beam="1">  1       21 0.10843778E+00 0.97653500E+02</pdfrwt>
<pdfrwt beam="2">  1       21 0.86330875E-02 0.97653500E+02</pdfrwt>
<totfact> 0.74615285E+04</totfact>
</mgrwt>
</event>
<event>
 5    1  0.1590180E+000  0.8132654E+02  0.7546771E-02  0.1325329E+00
         21   -1    0    0  501  502  0.00000000000E+00  0.00000000000E+00  0.25876589532E+02  0.25876589532E+02  0.00000000000E+00 0. -1.
         21   -1    0    0  502  503 -0.00000000000E+00 -0.00000000000E+00 -0.51793930293E+03  0.51793930293E+03  0.00000000000E+00 0. -1.
         24    1    1    2    0    0 -0.28319865685E+01 -0.61267464445E+02 -0.35912928761E+03  0.37309889241E+03  0.80419002446E+02 0. -1.
          1    1    1    2  501    0  0.36036279090E+01  0.27083978130E+02  0.57156425753E+01  0.27914092776E+02  0.00000000000E+00 0. -1.
         -2    1    1    2    0  503 -0.77164134052E+00  0.34183486315E+02 -0.13864906837E+03  0.14280290727E+03  0.00000000000E+00 0.  1.
<mgrwt>
<rscale>  2 0.81326537E+02</rscale>
<asrwt>0</asrwt>
<pdfrwt beam="1">  1       21 0.39810139E-02 0.81326537E+02</pdfrwt>
<pdfrwt beam="2">  1       21 0.79682966E-01 0.81326537E+02</pdfrwt>
<totfact> 0.55513908E+05</totfact>
</mgrwt>
</event>
<event>
 5    1  0.1590180E+000  0.6518337E+02  0.7546771E-02  0.1377283E+00
         21   -1    0    0  503  502  0.00000000000E+00  0.00000000000E+00  0.81364244530E+02  0.81364244530E+02  0.00000000000E+00 0.  1.
         21   -1    0    0  501  503 -0.00000000000E+00 -0.00000000000E+00 -0.89868287983E+02  0.89868287983E+02  0.00000000000E+00 0.  1.
         24    1    1    2    0    0 -0.21672735208E+01  0.14845144349E+02 -0.55057724038E+02  0.98608540785E+02  0.80419002446E+02 0.  1.
          1    1    1    2  501    0  0.21754371814E+02  0.31262981922E+01  0.38351404102E+01  0.22309969417E+02  0.00000000000E+00 0. -1.
         -2    1    1    2    0  502 -0.19587098293E+02 -0.17971442541E+02  0.42718540174E+02  0.50314022312E+02  0.00000000000E+00 0.  1.
<mgrwt>
<rscale>  2 0.65183374E+02</rscale>
<asrwt>0</asrwt>
<pdfrwt beam="1">  1       21 0.12517576E-01 0.65183374E+02</pdfrwt>
<pdfrwt beam="2">  1       21 0.13825890E-01 0.65183374E+02</pdfrwt>
<totfact> 0.23810528E+06</totfact>
</mgrwt>
</event>
<event>
 5    1  0.2111119E+000  0.7738480E+02  0.7546771E-02  0.1336641E+00
         21   -1    0    0  503  502  0.00000000000E+00  0.00000000000E+00  0.18465895921E+03  0.18465895921E+03  0.00000000000E+00 0. -1.
         21   -1    0    0  501  503 -0.00000000000E+00 -0.00000000000E+00 -0.19512728676E+03  0.19512728676E+03  0.00000000000E+00 0. -1.
         24    1    1    2    0    0  0.56904286694E+01 -0.55327167873E+02  0.14982154179E+03  0.17890552485E+03  0.80419002446E+02 0. -1.
          1    1    1    2  501    0  0.37815571012E+01  0.22841453205E+02 -0.16508820056E+03  0.16670376757E+03  0.00000000000E+00 0. -1.
         -2    1    1    2    0  502 -0.94719857706E+01  0.32485714668E+02  0.47983312207E+01  0.34176953557E+02  0.00000000000E+00 0.  1.
<mgrwt>
<rscale>  2 0.77384802E+02</rscale>
<asrwt>0</asrwt>
<pdfrwt beam="1">  1       21 0.28409071E-01 0.77384802E+02</pdfrwt>
<pdfrwt beam="2">  1       21 0.30019582E-01 0.77384802E+02</pdfrwt>
<totfact> 0.13160483E+05</totfact>
</mgrwt>
</event>
<event>
 5    1  0.1590180E+000  0.8794875E+02  0.7546771E-02  0.1307897E+00
         21   -1    0    0  503  502  0.00000000000E+00  0.00000000000E+00  0.18360278746E+03  0.18360278746E+03  0.00000000000E+00 0.  1.
         21   -1    0    0  501  503 -0.00000000000E+00 -0.00000000000E+00 -0.32860684812E+03  0.32860684812E+03  0.00000000000E+00 0. -1.
         24    1    1    2    0    0  0.84216358244E+01 -0.60880163663E+02  0.53875687633E+02  0.11466090855E+03  0.80419002446E+02 0. -1.
          1    1    1    2  501    0 -0.21600101618E+02  0.13427262610E+02 -0.29152210299E+03  0.29262944537E+03  0.00000000000E+00 0. -1.
         -2    1    1    2    0  502  0.13178465794E+02  0.47452901053E+02  0.92642354695E+02  0.10491928165E+03  0.00000000000E+00 0.  1.
<mgrwt>
<rscale>  2 0.87948751E+02</rscale>
<asrwt>0</asrwt>
<pdfrwt beam="1">  1       21 0.28246583E-01 0.87948751E+02</pdfrwt>
<pdfrwt beam="2">  1       21 0.50554899E-01 0.87948751E+02</pdfrwt>
<totfact> 0.47368531E+04</totfact>
</mgrwt>
</event>
<event>
 5    1  0.1590180E+000  0.6898810E+02  0.7546771E-02  0.1363568E+00
         21   -1    0    0  503  502  0.00000000000E+00  0.00000000000E+00  0.17073774023E+02  0.17073774023E+02  0.00000000000E+00 0. -1.
         21   -1    0    0  501  503 -0.00000000000E+00 -0.00000000000E+00 -0.13086951202E+04  0.13086951202E+04  0.00000000000E+00 0. -1.
         24    1    1    2    0    0  0.32200238461E+02 -0.27504755060E+02 -0.13113102019E+03  0.15954913763E+03  0.80419002446E+02 0. -1.
          1    1    1    2  501    0 -0.11463941862E+02  0.23246394269E+02 -0.11219418498E+04  0.11222412090E+04  0.00000000000E+00 0. -1.
         -2    1    1    2    0  502 -0.20736296598E+02  0.42583607908E+01 -0.38548476163E+02  0.43978547585E+02  0.00000000000E+00 0.  1.
<mgrwt>
<rscale>  2 0.68988102E+02</rscale>
<asrwt>0</asrwt>
<pdfrwt beam="1">  1       21 0.26267353E-02 0.68988102E+02</pdfrwt>
<pdfrwt beam="2">  1       21 0.20133765E+00 0.68988102E+02</pdfrwt>
<totfact> 0.11366934E+05</totfact>
</mgrwt>
</event>
<event>
 5    1  0.1590180E+000  0.9750111E+02  0.7546771E-02  0.1285640E+00
         21   -1    0    0  501  502  0.00000000000E+00  0.00000000000E+00  0.53806675321E+02  0.53806675321E+02  0.00000000000E+00 0.  1.
         21   -1    0    0  502  503 -0.00000000000E+00 -0.00000000000E+00 -0.18109967729E+03  0.18109967729E+03  0.00000000000E+00 0.  1.
         24    1    1    2    0    0  0.70373464601E+02 -0.24157440950E+02 -0.69323452023E+02  0.12964938653E+03  0.80419002446E+02 0.  1.
          1    1    1    2  501    0 -0.33208134432E+02  0.33448761407E+02 -0.44002412475E+02  0.64481099057E+02  0.00000000000E+00 0. -1.
         -2    1    1    2    0  503 -0.37165330169E+02 -0.92913204570E+01 -0.13967137474E+02  0.40775867025E+02  0.00000000000E+00 0.  1.
<mgrwt>
<rscale>  2 0.97501106E+02</rscale>
<asrwt>0</asrwt>
<pdfrwt beam="1">  1       21 0.82779500E-02 0.97501106E+02</pdfrwt>
<pdfrwt beam="2">  1       21 0.27861489E-01 0.97501106E+02</pdfrwt>
<totfact> 0.13798944E+06</totfact>
</mgrwt>
</event>
<event>
 5    1  0.1590180E+000  0.8461332E+02  0.7546771E-02  0.1316447E+00
         21   -1    0    0  503  502  0.00000000000E+00  0.00000000000E+00  0.30040437216E+02  0.30040437216E+02  0.00000000000E+00 0. -1.
         21   -1    0    0  501  503 -0.00000000000E+00 -0.00000000000E+00 -0.25521917218E+03  0.25521917218E+03  0.00000000000E+00 0.  1.
         24    1    1    2    0    0 -0.33750608403E+02 -0.24396176110E+02 -0.15176979371E+03  0.17673585718E+03  0.80419002446E+02 0.  0.
          1    1    1    2  501    0 -0.18897954201E+02  0.17149918917E+02 -0.33237735502E+02  0.41904647155E+02  0.00000000000E+00 0. -1.
         -2    1    1    2    0  502  0.52648562604E+02  0.72462571933E+01 -0.40171205754E+02  0.66619105062E+02  0.00000000000E+00 0.  1.
<mgrwt>
<rscale>  2 0.84613316E+02</rscale>
<asrwt>0</asrwt>
<pdfrwt beam="1">  1       21 0.46216056E-02 0.84613316E+02</pdfrwt>
<pdfrwt beam="2">  1       21 0.39264489E-01 0.84613316E+02</pdfrwt>
<totfact> 0.18889498E+06</totfact>
</mgrwt>
</event>
<event>
 5    1  0.1590180E+000  0.7080409E+02  0.7546771E-02  0.1357380E+00
         21   -1    0    0  503  502  0.00000000000E+00  0.00000000000E+00  0.12860223337E+02  0.12860223337E+02  0.00000000000E+00 0.  1.
         21   -1    0    0  501  503 -0.00000000000E+00 -0.00000000000E+00 -0.46390033409E+03  0.46390033409E+03  0.00000000000E+00 0. -1.
         24    1    1    2    0    0  0.16893955481E+02  0.12976763745E+02 -0.22149836537E+03  0.23660630580E+03  0.80419002446E+02 0.  0.
          1    1    1    2  501    0  0.14980830606E+02 -0.20763245178E+02 -0.17216125468E+03  0.17405469040E+03  0.00000000000E+00 0. -1.
         -2    1    1    2    0  502 -0.31874786087E+02  0.77864814325E+01 -0.57380490697E+02  0.66099561223E+02  0.00000000000E+00 0.  1.
<mgrwt>
<rscale>  2 0.70804093E+02</rscale>
<asrwt>0</asrwt>
<pdfrwt beam="1">  1       21 0.19784957E-02 0.70804093E+02</pdfrwt>
<pdfrwt beam="2">  1       21 0.71369289E-01 0.70804093E+02</pdfrwt>
<totfact> 0.21742097E+06</totfact>
</mgrwt>
</event>
<event>
 5    1  0.1590180E+000  0.1027025E+03  0.7546771E-02  0.1274714E+00
         21   -1    0    0  503  502  0.00000000000E+00  0.00000000000E+00  0.28037707688E+03  0.28037707688E+03  0.00000000000E+00 0. -1.
         21   -1    0    0  501  503 -0.00000000000E+00 -0.00000000000E+00 -0.12645980361E+03  0.12645980361E+03  0.00000000000E+00 0. -1.
         24    1    1    2    0    0 -0.35822174751E+01  0.66757635275E+02  0.10740192844E+03  0.14990598499E+03  0.80419002446E+02 0. -1.
          1    1    1    2  501    0  0.22819683921E+02  0.75756483382E+01 -0.93880439457E+02  0.96910604861E+02  0.00000000000E+00 0. -1.
         -2    1    1    2    0  502 -0.19237466446E+02 -0.74333283613E+02  0.14039578429E+03  0.16002029063E+03  0.00000000000E+00 0.  1.
<mgrwt>
<rscale>  2 0.10270246E+03</rscale>
<asrwt>0</asrwt>
<pdfrwt beam="1">  1       21 0.43134935E-01 0.10270246E+03</pdfrwt>
<pdfrwt beam="2">  1       21 0.19455354E-01 0.10270246E+03</pdfrwt>
<totfact> 0.12969249E+05</totfact>
</mgrwt>
</event>
<event>
 5    1  0.1590180E+000  0.9895574E+02  0.7546771E-02  0.1282507E+00
         21   -1    0    0  503  502  0.00000000000E+00  0.00000000000E+00  0.68108865649E+01  0.68108865649E+01  0.00000000000E+00 0. -1.
         21   -1    0    0  501  503 -0.00000000000E+00 -0.00000000000E+00 -0.24050075740E+04  0.24050075740E+04  0.00000000000E+00 0. -1.
         24    1    1    2    0    0  0.33942085264E+02  0.39755722487E+02 -0.56332260094E+03  0.57142991810E+03  0.80419002446E+02 0. -1.
          1    1    1    2  501    0 -0.57492208880E+02 -0.50114666160E+02 -0.17509311584E+04  0.17525914399E+04  0.00000000000E+00 0. -1.
         -2    1    1    2    0  502  0.23550123616E+02  0.10358943673E+02 -0.83942928145E+02  0.87797102582E+02  0.00000000000E+00 0.  1.
<mgrwt>
<rscale>  2 0.98955740E+02</rscale>
<asrwt>0</asrwt>
<pdfrwt beam="1">  1       21 0.10478281E-02 0.98955740E+02</pdfrwt>
<pdfrwt beam="2">  1       21 0.37000137E+00 0.98955740E+02</pdfrwt>
<totfact> 0.52777123E+04</totfact>
</mgrwt>
</event>
<event>
 5    1  0.1590180E+000  0.8706013E+02  0.7546771E-02  0.1310131E+00
         21   -1    0    0  503  502  0.00000000000E+00  0.00000000000E+00  0.14073527499E+03  0.14073527499E+03  0.00000000000E+00 0.  1.
         21   -1    0    0  501  503 -0.00000000000E+00 -0.00000000000E+00 -0.63441711103E+02  0.63441711103E+02  0.00000000000E+00 0.  1.
         24    1    1    2    0    0  0.97879117248E+01  0.67742478298E+02  0.48047677006E+02  0.11602000604E+03  0.80419002446E+02 0.  1.
          1    1    1    2  501    0 -0.16481071247E+01 -0.21535548149E+02 -0.12841553436E+02  0.25127705542E+02  0.00000000000E+00 0. -1.
         -2    1    1    2    0  502 -0.81398046001E+01 -0.46206930149E+02  0.42087440316E+02  0.63029274509E+02  0.00000000000E+00 0.  1.
<mgrwt>
<rscale>  2 0.87060126E+02</rscale>
<asrwt>0</asrwt>
<pdfrwt beam="1">  1       21 0.21651581E-01 0.87060126E+02</pdfrwt>
<pdfrwt beam="2">  1       21 0.97602633E-02 0.87060126E+02</pdfrwt>
<totfact> 0.16592954E+06</totfact>
</mgrwt>
</event>
<event>
 5    1  0.1590180E+000  0.1404562E+03  0.7546771E-02  0.1212716E+00
         21   -1    0    0  501  502  0.00000000000E+00  0.00000000000E+00  0.22031043128E+03  0.22031043128E+03  0.00000000000E+00 0. -1.
         21   -1    0    0  502  503 -0.00000000000E+00 -0.00000000000E+00 -0.11671751060E+03  0.11671751060E+03  0.00000000000E+00 0.  1.
         24    1    1    2    0    0  0.35411415489E+02  0.64783258929E+02  0.31004046592E+02  0.11348702941E+03  0.80419002446E+02 0.  1.
          1    1    1    2  501    0 -0.34408026489E+02  0.47942823539E+02  0.91853211686E+02  0.10917618382E+03  0.00000000000E+00 0. -1.
         -2    1    1    2    0  503 -0.10033889996E+01 -0.11272608247E+03 -0.19264337595E+02  0.11436472866E+03  0.00000000000E+00 0.  1.
<mgrwt>
<rscale>  2 0.14045624E+03</rscale>
<asrwt>0</asrwt>
<pdfrwt beam="1">  1       21 0.33893912E-01 0.14045624E+03</pdfrwt>
<pdfrwt beam="2">  1       21 0.17956540E-01 0.14045624E+03</pdfrwt>
<totfact> 0.23959221E+05</totfact>
</mgrwt>
</event>
<event>
 5    1  0.1590180E+000  0.6966551E+02  0.7546771E-02  0.1361234E+00
         21   -1    0    0  501  502  0.00000000000E+00  0.00000000000E+00  0.47944865517E+02  0.47944865517E+02  0.00000000000E+00 0.  1.
         21   -1    0    0  502  503 -0.00000000000E+00 -0.00000000000E+00 -0.11093054507E+03  0.11093054507E+03  0.00000000000E+00 0. -1.
         24    1    1    2    0    0 -0.18050171909E+02  0.56934759992E+01 -0.37557270870E+02  0.90752349416E+02  0.80419002446E+02 0. -1.
          1    1    1    2  501    0 -0.15825403290E+02 -0.14767066536E+02  0.43952464892E+01  0.22086824920E+02  0.00000000000E+00 0. -1.
         -2    1    1    2    0  503  0.33875575199E+02  0.90735905368E+01 -0.29823655172E+02  0.46036236250E+02  0.00000000000E+00 0.  1.
<mgrwt>
<rscale>  2 0.69665509E+02</rscale>
<asrwt>0</asrwt>
<pdfrwt beam="1">  1       21 0.73761332E-02 0.69665509E+02</pdfrwt>
<pdfrwt beam="2">  1       21 0.17066238E-01 0.69665509E+02</pdfrwt>
<totfact> 0.40754310E+06</totfact>
</mgrwt>
</event>
<event>
 5    1  0.1590180E+000  0.7150485E+02  0.7546771E-02  0.1355049E+00
         21   -1    0    0  501  502  0.00000000000E+00  0.00000000000E+00  0.39074912090E+02  0.39074912090E+02  0.00000000000E+00 0.  1.
         21   -1    0    0  502  503 -0.00000000000E+00 -0.00000000000E+00 -0.34716032312E+03  0.34716032312E+03  0.00000000000E+00 0.  1.
         24    1    1    2    0    0  0.35986875223E+02 -0.28108153884E+02 -0.74125774708E+02  0.11851991366E+03  0.80419002446E+02 0.  1.
          1    1    1    2  501    0 -0.14341607400E+02  0.24780369299E+02  0.38593169718E+01  0.28890184023E+02  0.00000000000E+00 0. -1.
         -2    1    1    2    0  503 -0.21645267823E+02  0.33277845852E+01 -0.23781895330E+03  0.23882513753E+03  0.00000000000E+00 0.  1.
<mgrwt>
<rscale>  2 0.71504846E+02</rscale>
<asrwt>0</asrwt>
<pdfrwt beam="1">  1       21 0.60115250E-02 0.71504846E+02</pdfrwt>
<pdfrwt beam="2">  1       21 0.53409280E-01 0.71504846E+02</pdfrwt>
<totfact> 0.65517968E+05</totfact>
</mgrwt>
</event>
<event>
 5    1  0.1590180E+000  0.6772955E+02  0.7546771E-02  0.1367989E+00
         21   -1    0    0  503  502  0.00000000000E+00  0.00000000000E+00  0.31657235084E+03  0.31657235084E+03  0.00000000000E+00 0.  1.
         21   -1    0    0  501  503 -0.00000000000E+00 -0.00000000000E+00 -0.61439066227E+02  0.61439066227E+02  0.00000000000E+00 0. -1.
         24    1    1    2    0    0  0.79534741536E+01  0.48195422051E+01  0.14247150832E+03  0.16386528728E+03  0.80419002446E+02 0.  0.
          1    1    1    2  501    0 -0.17062767361E+02 -0.26198746427E+02 -0.44992094494E+02  0.54788693280E+02  0.00000000000E+00 0. -1.
         -2    1    1    2    0  502  0.91092932070E+01  0.21379204222E+02  0.15765387078E+03  0.15935743650E+03  0.00000000000E+00 0.  1.
<mgrwt>
<rscale>  2 0.67729549E+02</rscale>
<asrwt>0</asrwt>
<pdfrwt beam="1">  1       21 0.48703438E-01 0.67729549E+02</pdfrwt>
<pdfrwt beam="2">  1       21 0.94521642E-02 0.67729549E+02</pdfrwt>
<totfact> 0.36766787E+05</totfact>
</mgrwt>
</event>
<event>
 5    1  0.1590180E+000  0.6811449E+02  0.7546771E-02  0.1366625E+00
         21   -1    0    0  501  502  0.00000000000E+00  0.00000000000E+00  0.40328789012E+02  0.40328789012E+02  0.00000000000E+00 0. -1.
         21   -1    0    0  502  503 -0.00000000000E+00 -0.00000000000E+00 -0.12208052823E+03  0.12208052823E+03  0.00000000000E+00 0.  1.
         24    1    1    2    0    0 -0.47366650721E+01  0.55316042515E+01 -0.28925499774E+02  0.85772577979E+02  0.80419002446E+02 0. -1.
          1    1    1    2  501    0  0.27385814551E+02  0.86965585505E+01 -0.25902708633E+02  0.38685440204E+02  0.00000000000E+00 0. -1.
         -2    1    1    2    0  503 -0.22649149479E+02 -0.14228162802E+02 -0.26923530808E+02  0.37951299056E+02  0.00000000000E+00 0.  1.
<mgrwt>
<rscale>  2 0.68114486E+02</rscale>
<asrwt>0</asrwt>
<pdfrwt beam="1">  1       21 0.62044293E-02 0.68114486E+02</pdfrwt>
<pdfrwt beam="2">  1       21 0.18781619E-01 0.68114486E+02</pdfrwt>
<totfact> 0.45794789E+06</totfact>
</mgrwt>
</event>
<event>
 5    1  0.1590180E+000  0.7621612E+02  0.7546771E-02  0.1340146E+00
         21   -1    0    0  501  502  0.00000000000E+00  0.00000000000E+00  0.34987469701E+02  0.34987469701E+02  0.00000000000E+00 0. -1.
         21   -1    0    0  502  503 -0.00000000000E+00 -0.00000000000E+00 -0.18002539378E+03  0.18002539378E+03  0.00000000000E+00 0.  1.
         24    1    1    2    0    0  0.49167812911E+01  0.72171138297E+01 -0.10312458421E+03  0.13106546949E+03  0.80419002446E+02 0.  1.
          1    1    1    2  501    0 -0.30689901147E+02  0.17920023372E+02 -0.13248572506E+02  0.37927851818E+02  0.00000000000E+00 0. -1.
         -2    1    1    2    0  503  0.25773119856E+02 -0.25137137202E+02 -0.28664767368E+02  0.46019542176E+02  0.00000000000E+00 0.  1.
<mgrwt>
<rscale>  2 0.76216117E+02</rscale>
<asrwt>0</asrwt>
<pdfrwt beam="1">  1       21 0.53826876E-02 0.76216117E+02</pdfrwt>
<pdfrwt beam="2">  1       21 0.27696215E-01 0.76216117E+02</pdfrwt>
<totfact> 0.28583163E+06</totfact>
</mgrwt>
</event>
<event>
 5    1  0.1590180E+000  0.1278401E+03  0.7546771E-02  0.1230696E+00
         21   -1    0    0  501  502  0.00000000000E+00  0.00000000000E+00  0.35306203651E+03  0.35306203651E+03  0.00000000000E+00 0. -1.
         21   -1    0    0  502  503 -0.00000000000E+00 -0.00000000000E+00 -0.14405563103E+03  0.14405563103E+03  0.00000000000E+00 0.  1.
         24    1    1    2    0    0  0.71503894411E+02  0.42966588978E+02  0.64936932435E+02  0.13282678884E+03  0.80419002446E+02 0.  1.
          1    1    1    2  501    0  0.21709386631E+02 -0.41210630653E+02  0.23170387559E+03  0.23633937359E+03  0.00000000000E+00 0. -1.
         -2    1    1    2    0  503 -0.93213281043E+02 -0.17559583243E+01 -0.87634402544E+02  0.12795150512E+03  0.00000000000E+00 0.  1.
<mgrwt>
<rscale>  2 0.12784010E+03</rscale>
<asrwt>0</asrwt>
<pdfrwt beam="1">  1       21 0.54317236E-01 0.12784010E+03</pdfrwt>
<pdfrwt beam="2">  1       21 0.22162405E-01 0.12784010E+03</pdfrwt>
<totfact> 0.62838880E+04</totfact>
</mgrwt>
</event>
<event>
 5    1  0.1590180E+000  0.6474999E+02  0.7546771E-02  0.1378914E+00
         21   -1    0    0  501  502  0.00000000000E+00  0.00000000000E+00  0.50578760665E+02  0.50578760665E+02  0.00000000000E+00 0.  1.
         21   -1    0    0  502  503 -0.00000000000E+00 -0.00000000000E+00 -0.12439936033E+03  0.12439936033E+03  0.00000000000E+00 0. -1.
         24    1    1    2    0    0 -0.19089230655E+02 -0.89331346762E+01 -0.30057389987E+02  0.88401709652E+02  0.80419002446E+02 0.  1.
          1    1    1    2  501    0  0.19413667221E+02 -0.13680136883E+02  0.11849261764E+02  0.26541319192E+02  0.00000000000E+00 0. -1.
         -2    1    1    2    0  503 -0.32443656592E+00  0.22613271559E+02 -0.55612471438E+02  0.60035092147E+02  0.00000000000E+00 0.  1.
<mgrwt>
<rscale>  2 0.64749989E+02</rscale>
<asrwt>0</asrwt>
<pdfrwt beam="1">  1       21 0.77813479E-02 0.64749989E+02</pdfrwt>
<pdfrwt beam="2">  1       21 0.19138363E-01 0.64749989E+02</pdfrwt>
<totfact> 0.30155367E+06</totfact>
</mgrwt>
</event>
<event>
 5    1  0.1590180E+000  0.9493232E+02  0.7546771E-02  0.1291329E+00
         21   -1    0    0  503  502  0.00000000000E+00  0.00000000000E+00  0.41300850904E+02  0.41300850904E+02  0.00000000000E+00 0.  1.
         21   -1    0    0  501  503 -0.00000000000E+00 -0.00000000000E+00 -0.46049058076E+03  0.46049058076E+03  0.00000000000E+00 0.  1.
         24    1    1    2    0    0 -0.12091163210E+02 -0.75209785029E+02 -0.24331222977E+03  0.26734016739E+03  0.80419002446E+02 0.  1.
          1    1    1    2  501    0 -0.61627498245E+01  0.21648060849E+02 -0.17643183108E+03  0.17786176948E+03  0.00000000000E+00 0. -1.
         -2    1    1    2    0  502  0.18253913034E+02  0.53561724180E+02  0.55433099114E+00  0.56589494794E+02  0.00000000000E+00 0.  1.
<mgrwt>
<rscale>  2 0.94932323E+02</rscale>
<asrwt>0</asrwt>
<pdfrwt beam="1">  1       21 0.63539773E-02 0.94932323E+02</pdfrwt>
<pdfrwt beam="2">  1       21 0.70844702E-01 0.94932323E+02</pdfrwt>
<totfact> 0.32914011E+05</totfact>
</mgrwt>
</event>
<event>
 5    1  0.1590180E+000  0.9195579E+02  0.7546771E-02  0.1298183E+00
         21   -1    0    0  503  502  0.00000000000E+00  0.00000000000E+00  0.56214199155E+02  0.56214199155E+02  0.00000000000E+00 0. -1.
         21   -1    0    0  501  503 -0.00000000000E+00 -0.00000000000E+00 -0.22409248195E+03  0.22409248195E+03  0.00000000000E+00 0.  1.
         24    1    1    2    0    0 -0.49501732208E+02  0.15044867249E+02 -0.39683788418E+02  0.10353158233E+03  0.80419002446E+02 0. -1.
          1    1    1    2  501    0 -0.47440375372E+01  0.22060714100E+02 -0.10450540927E+03  0.10691380437E+03  0.00000000000E+00 0. -1.
         -2    1    1    2    0  502  0.54245769745E+02 -0.37105581350E+02 -0.23689085109E+02  0.69861294404E+02  0.00000000000E+00 0.  1.
<mgrwt>
<rscale>  2 0.91955791E+02</rscale>
<asrwt>0</asrwt>
<pdfrwt beam="1">  1       21 0.86483383E-02 0.91955791E+02</pdfrwt>
<pdfrwt beam="2">  1       21 0.34475767E-01 0.91955791E+02</pdfrwt>
<totfact> 0.84954910E+05</totfact>
</mgrwt>
</event>
<event>
 5    1  0.1590180E+000  0.8137426E+02  0.7546771E-02  0.1325196E+00
         21   -1    0    0  503  502  0.00000000000E+00  0.00000000000E+00  0.14043177818E+02  0.14043177818E+02  0.00000000000E+00 0. -1.
         21   -1    0    0  501  503 -0.00000000000E+00 -0.00000000000E+00 -0.54173466037E+03  0.54173466037E+03  0.00000000000E+00 0.  1.
         24    1    1    2    0    0 -0.42188379012E+02  0.35170466218E+02 -0.38245525923E+03  0.39465942569E+03  0.80419002446E+02 0.  1.
          1    1    1    2  501    0  0.17850532734E+02 -0.36871559665E+02 -0.11610722077E+03  0.12312205386E+03  0.00000000000E+00 0. -1.
         -2    1    1    2    0  502  0.24337846278E+02  0.17010934461E+01 -0.29129002545E+02  0.37996358636E+02  0.00000000000E+00 0.  1.
<mgrwt>
<rscale>  2 0.81374257E+02</rscale>
<asrwt>0</asrwt>
<pdfrwt beam="1">  1       21 0.21604894E-02 0.81374257E+02</pdfrwt>
<pdfrwt beam="2">  1       21 0.83343775E-01 0.81374257E+02</pdfrwt>
<totfact> 0.13530268E+06</totfact>
</mgrwt>
</event>
<event>
 5    1  0.1590180E+000  0.7537890E+02  0.7546771E-02  0.1342702E+00
         21   -1    0    0  501  502  0.00000000000E+00  0.00000000000E+00  0.53158674068E+03  0.53158674068E+03  0.00000000000E+00 0. -1.
         21   -1    0    0  502  503 -0.00000000000E+00 -0.00000000000E+00 -0.29921700310E+02  0.29921700310E+02  0.00000000000E+00 0.  1.
         24    1    1    2    0    0 -0.30890760500E+01 -0.40253170736E+01  0.13549588686E+03  0.15764547846E+03  0.80419002446E+02 0.  0.
          1    1    1    2  501    0 -0.20007360799E+01 -0.32871668998E+02  0.36511959589E+03  0.36660178515E+03  0.00000000000E+00 0. -1.
         -2    1    1    2    0  503  0.50898121299E+01  0.36896986071E+02  0.10495576152E+01  0.37261177381E+02  0.00000000000E+00 0.  1.
<mgrwt>
<rscale>  2 0.75378904E+02</rscale>
<asrwt>0</asrwt>
<pdfrwt beam="1">  1       21 0.81782569E-01 0.75378904E+02</pdfrwt>
<pdfrwt beam="2">  1       21 0.46033389E-02 0.75378904E+02</pdfrwt>
<totfact> 0.41293488E+05</totfact>
</mgrwt>
</event>
<event>
 5    1  0.1590180E+000  0.1169105E+03  0.7546771E-02  0.1248282E+00
         21   -1    0    0  503  502  0.00000000000E+00  0.00000000000E+00  0.18429878217E+03  0.18429878217E+03  0.00000000000E+00 0.  1.
         21   -1    0    0  501  503 -0.00000000000E+00 -0.00000000000E+00 -0.12858348688E+03  0.12858348688E+03  0.00000000000E+00 0. -1.
         24    1    1    2    0    0  0.16146334589E+02 -0.76767611900E+02  0.45212013093E+02  0.12110042295E+03  0.80419002446E+02 0. -1.
          1    1    1    2  501    0  0.21743020594E+02  0.80518420865E+02 -0.65980112051E+02  0.10634542881E+03  0.00000000000E+00 0. -1.
         -2    1    1    2    0  502 -0.37889355183E+02 -0.37508089642E+01  0.76483394244E+02  0.85436417289E+02  0.00000000000E+00 0.  1.
<mgrwt>
<rscale>  2 0.11691055E+03</rscale>
<asrwt>0</asrwt>
<pdfrwt beam="1">  1       21 0.28353659E-01 0.11691055E+03</pdfrwt>
<pdfrwt beam="2">  1       21 0.19782075E-01 0.11691055E+03</pdfrwt>
<totfact> 0.28468854E+05</totfact>
</mgrwt>
</event>
<event>
 5    1  0.1590180E+000  0.1029917E+03  0.7546771E-02  0.1274128E+00
         21   -1    0    0  503  502  0.00000000000E+00  0.00000000000E+00  0.85468955780E+02  0.85468955780E+02  0.00000000000E+00 0.  1.
         21   -1    0    0  501  503 -0.00000000000E+00 -0.00000000000E+00 -0.13024784002E+03  0.13024784002E+03  0.00000000000E+00 0.  1.
         24    1    1    2    0    0  0.16699332700E+02  0.84079024617E+02 -0.18704863570E+02  0.11901780526E+03  0.80419002446E+02 0.  1.
          1    1    1    2  501    0  0.41510010844E+01 -0.33207143632E+02 -0.24890857391E+02  0.41707313266E+02  0.00000000000E+00 0. -1.
         -2    1    1    2    0  502 -0.20850333784E+02 -0.50871880985E+02 -0.11831632766E+01  0.54991677272E+02  0.00000000000E+00 0.  1.
<mgrwt>
<rscale>  2 0.10299166E+03</rscale>
<asrwt>0</asrwt>
<pdfrwt beam="1">  1       21 0.13149070E-01 0.10299166E+03</pdfrwt>
<pdfrwt beam="2">  1       21 0.20038129E-01 0.10299166E+03</pdfrwt>
<totfact> 0.11408865E+06</totfact>
</mgrwt>
</event>
<event>
 5    1  0.1813893E+000  0.1051456E+03  0.7546771E-02  0.1269833E+00
         21   -1    0    0  501  502  0.00000000000E+00  0.00000000000E+00  0.71342619437E+02  0.71342619437E+02  0.00000000000E+00 0. -1.
         21   -1    0    0  502  503 -0.00000000000E+00 -0.00000000000E+00 -0.91435377238E+03  0.91435377238E+03  0.00000000000E+00 0.  1.
         24    1    1    2    0    0 -0.23825338884E+02 -0.30650637162E+02 -0.12082966304E+03  0.15024690265E+03  0.80419002446E+02 0.  1.
          1    1    1    2  501    0 -0.11818141227E+02 -0.40081049232E+02  0.46604009051E+02  0.62594669336E+02  0.00000000000E+00 0. -1.
         -2    1    1    2    0  503  0.35643480111E+02  0.70731686395E+02 -0.76878549895E+03  0.77285481983E+03  0.00000000000E+00 0.  1.
<mgrwt>
<rscale>  2 0.10514556E+03</rscale>
<asrwt>0</asrwt>
<pdfrwt beam="1">  1       21 0.10975789E-01 0.10514556E+03</pdfrwt>
<pdfrwt beam="2">  1       21 0.14066980E+00 0.10514556E+03</pdfrwt>
<totfact> 0.25945319E+04</totfact>
</mgrwt>
</event>
<event>
 5    1  0.1590180E+000  0.7334668E+02  0.7546771E-02  0.1349069E+00
         21   -1    0    0  501  502  0.00000000000E+00  0.00000000000E+00  0.69777201837E+01  0.69777201837E+01  0.00000000000E+00 0.  1.
         21   -1    0    0  502  503 -0.00000000000E+00 -0.00000000000E+00 -0.16872764556E+04  0.16872764556E+04  0.00000000000E+00 0.  1.
         24    1    1    2    0    0  0.21995984681E+01 -0.50994915654E+02 -0.43279928999E+03  0.44315658748E+03  0.80419002446E+02 0.  1.
          1    1    1    2  501    0 -0.41711999051E+01  0.22706124370E+02 -0.80274163944E+02  0.83527889890E+02  0.00000000000E+00 0. -1.
         -2    1    1    2    0  503  0.19716014370E+01  0.28288791284E+02 -0.11672252814E+04  0.11675696984E+04  0.00000000000E+00 0.  1.
<mgrwt>
<rscale>  2 0.73346675E+02</rscale>
<asrwt>0</asrwt>
<pdfrwt beam="1">  1       21 0.10734941E-02 0.73346675E+02</pdfrwt>
<pdfrwt beam="2">  1       21 0.25958131E+00 0.73346675E+02</pdfrwt>
<totfact> 0.21676145E+05</totfact>
</mgrwt>
</event>
<event>
 5    1  0.1590180E+000  0.7560170E+02  0.7546771E-02  0.1342018E+00
         21   -1    0    0  503  502  0.00000000000E+00  0.00000000000E+00  0.75801829133E+03  0.75801829133E+03  0.00000000000E+00 0.  1.
         21   -1    0    0  501  503 -0.00000000000E+00 -0.00000000000E+00 -0.29237911491E+02  0.29237911491E+02  0.00000000000E+00 0. -1.
         24    1    1    2    0    0  0.28540290586E+02 -0.46063144471E+02  0.46762617674E+03  0.47757493505E+03  0.80419002446E+02 0.  0.
          1    1    1    2  501    0 -0.13975376494E+02  0.24607158592E+02 -0.15193444886E+02  0.32119529412E+02  0.00000000000E+00 0. -1.
         -2    1    1    2    0  502 -0.14564914092E+02  0.21455985879E+02  0.27634764799E+03  0.27756173836E+03  0.00000000000E+00 0.  1.
<mgrwt>
<rscale>  2 0.75601698E+02</rscale>
<asrwt>0</asrwt>
<pdfrwt beam="1">  1       21 0.11661818E+00 0.75601698E+02</pdfrwt>
<pdfrwt beam="2">  1       21 0.44981408E-02 0.75601698E+02</pdfrwt>
<totfact> 0.19055218E+05</totfact>
</mgrwt>
</event>
<event>
 5    1  0.1590180E+000  0.7615967E+02  0.7546771E-02  0.1340317E+00
         21   -1    0    0  503  502  0.00000000000E+00  0.00000000000E+00  0.49281599105E+03  0.49281599105E+03  0.00000000000E+00 0.  1.
         21   -1    0    0  501  503 -0.00000000000E+00 -0.00000000000E+00 -0.13440957200E+03  0.13440957200E+03  0.00000000000E+00 0. -1.
         24    1    1    2    0    0 -0.21618563482E+02 -0.70830303153E+01  0.25410419788E+02  0.87352372570E+02  0.80419002446E+02 0.  1.
          1    1    1    2  501    0 -0.89357656538E+01  0.29516228458E+02 -0.10029402591E+03  0.10492829591E+03  0.00000000000E+00 0. -1.
         -2    1    1    2    0  502  0.30554329136E+02 -0.22433198143E+02  0.43329002517E+03  0.43494489458E+03  0.00000000000E+00 0.  1.
<mgrwt>
<rscale>  2 0.76159670E+02</rscale>
<asrwt>0</asrwt>
<pdfrwt beam="1">  1       21 0.75817844E-01 0.76159670E+02</pdfrwt>
<pdfrwt beam="2">  1       21 0.20678396E-01 0.76159670E+02</pdfrwt>
<totfact> 0.36399263E+04</totfact>
</mgrwt>
</event>
<event>
 5    1  0.1590180E+000  0.1102721E+03  0.7546771E-02  0.1260067E+00
         21   -1    0    0  501  502  0.00000000000E+00  0.00000000000E+00  0.46509540903E+02  0.46509540903E+02  0.00000000000E+00 0. -1.
         21   -1    0    0  502  503 -0.00000000000E+00 -0.00000000000E+00 -0.52694400790E+03  0.52694400790E+03  0.00000000000E+00 0.  1.
         24    1    1    2    0    0 -0.42417525233E+02 -0.75209767949E+02 -0.25730326218E+03  0.28306879080E+03  0.80419002446E+02 0.  0.
          1    1    1    2  501    0  0.41911838846E+02  0.18460791033E+02  0.12937984064E+02  0.47589856826E+02  0.00000000000E+00 0. -1.
         -2    1    1    2    0  503  0.50568638733E+00  0.56748976916E+02 -0.23606918887E+03  0.24279490117E+03  0.00000000000E+00 0.  1.
<mgrwt>
<rscale>  2 0.11027214E+03</rscale>
<asrwt>0</asrwt>
<pdfrwt beam="1">  1       21 0.71553140E-02 0.11027214E+03</pdfrwt>
<pdfrwt beam="2">  1       21 0.81068309E-01 0.11027214E+03</pdfrwt>
<totfact> 0.19931347E+05</totfact>
</mgrwt>
</event>
<event>
 5    1  0.1590180E+000  0.1084989E+03  0.7546771E-02  0.1263375E+00
         21   -1    0    0  503  502  0.00000000000E+00  0.00000000000E+00  0.58452291928E+02  0.58452291928E+02  0.00000000000E+00 0.  1.
         21   -1    0    0  501  503 -0.00000000000E+00 -0.00000000000E+00 -0.27139922051E+03  0.27139922051E+03  0.00000000000E+00 0.  1.
         24    1    1    2    0    0  0.52546252150E+02  0.74741248827E+02 -0.59281107512E+02  0.13538400405E+03  0.80419002446E+02 0.  1.
          1    1    1    2  501    0 -0.27993091688E+02 -0.17539733401E+02 -0.11840315211E+03  0.12292502536E+03  0.00000000000E+00 0. -1.
         -2    1    1    2    0  502 -0.24553160461E+02 -0.57201515427E+02 -0.35262668968E+02  0.71542483033E+02  0.00000000000E+00 0.  1.
<mgrwt>
<rscale>  2 0.10849889E+03</rscale>
<asrwt>0</asrwt>
<pdfrwt beam="1">  1       21 0.89926601E-02 0.10849889E+03</pdfrwt>
<pdfrwt beam="2">  1       21 0.41753727E-01 0.10849889E+03</pdfrwt>
<totfact> 0.54492105E+05</totfact>
</mgrwt>
</event>
<event>
 5    1  0.1590180E+000  0.7622721E+02  0.7546771E-02  0.1340112E+00
         21   -1    0    0  501  502  0.00000000000E+00  0.00000000000E+00  0.15935376875E+03  0.15935376875E+03  0.00000000000E+00 0. -1.
         21   -1    0    0  502  503 -0.00000000000E+00 -0.00000000000E+00 -0.80918922219E+02  0.80918922219E+02  0.00000000000E+00 0.  1.
         24    1    1    2    0    0  0.29523564974E+01 -0.25981582516E+02  0.43159572324E+02  0.94940632379E+02  0.80419002446E+02 0. -1.
          1    1    1    2  501    0 -0.18236565623E+02  0.41976988515E+02  0.81846143725E+02  0.93773296482E+02  0.00000000000E+00 0. -1.
         -2    1    1    2    0  503  0.15284209126E+02 -0.15995405999E+02 -0.46570869522E+02  0.51558762104E+02  0.00000000000E+00 0.  1.
<mgrwt>
<rscale>  2 0.76227209E+02</rscale>
<asrwt>0</asrwt>
<pdfrwt beam="1">  1       21 0.24515964E-01 0.76227209E+02</pdfrwt>
<pdfrwt beam="2">  1       21 0.12449065E-01 0.76227209E+02</pdfrwt>
<totfact> 0.86043220E+05</totfact>
</mgrwt>
</event>
<event>
 5    1  0.1590180E+000  0.8352810E+02  0.7546771E-02  0.1319327E+00
         21   -1    0    0  501  502  0.00000000000E+00  0.00000000000E+00  0.17516832139E+03  0.17516832139E+03  0.00000000000E+00 0.  1.
         21   -1    0    0  502  503 -0.00000000000E+00 -0.00000000000E+00 -0.51050003664E+02  0.51050003664E+02  0.00000000000E+00 0. -1.
         24    1    1    2    0    0 -0.15015429056E+02  0.14128899321E+02  0.30139345903E+02  0.88321486806E+02  0.80419002446E+02 0. -1.
          1    1    1    2  501    0  0.13291029611E+02 -0.48160596182E+02  0.90845921836E+02  0.10367775078E+03  0.00000000000E+00 0. -1.
         -2    1    1    2    0  503  0.17243994448E+01  0.34031696861E+02  0.31330499853E+01  0.34219087465E+02  0.00000000000E+00 0.  1.
<mgrwt>
<rscale>  2 0.83528096E+02</rscale>
<asrwt>0</asrwt>
<pdfrwt beam="1">  1       21 0.26948972E-01 0.83528096E+02</pdfrwt>
<pdfrwt beam="2">  1       21 0.78538468E-02 0.83528096E+02</pdfrwt>
<totfact> 0.16002596E+06</totfact>
</mgrwt>
</event>
<event>
 5    1  0.1590180E+000  0.1468834E+03  0.7546771E-02  0.1204356E+00
         21   -1    0    0  501  502  0.00000000000E+00  0.00000000000E+00  0.17144240960E+04  0.17144240960E+04  0.00000000000E+00 0.  1.
         21   -1    0    0  502  503 -0.00000000000E+00 -0.00000000000E+00 -0.40718220254E+02  0.40718220254E+02  0.00000000000E+00 0. -1.
         24    1    1    2    0    0  0.75883409373E+02  0.94298475400E+02  0.20075638352E+03  0.24783227344E+03  0.80419002446E+02 0. -1.
          1    1    1    2  501    0 -0.13700381625E+02  0.16466926011E+02  0.12539816098E+04  0.12541645578E+04  0.00000000000E+00 0. -1.
         -2    1    1    2    0  503 -0.62183027748E+02 -0.11076540141E+03  0.21896788240E+03  0.25314548507E+03  0.00000000000E+00 0.  1.
<mgrwt>
<rscale>  2 0.14688337E+03</rscale>
<asrwt>0</asrwt>
<pdfrwt beam="1">  1       21 0.26375750E+00 0.14688337E+03</pdfrwt>
<pdfrwt beam="2">  1       21 0.62643429E-02 0.14688337E+03</pdfrwt>
<totfact> 0.10634250E+04</totfact>
</mgrwt>
</event>
<event>
 5    1  0.2215285E+000  0.9939678E+02  0.7546771E-02  0.1281570E+00
         21   -1    0    0  503  502  0.00000000000E+00  0.00000000000E+00  0.18911117812E+03  0.18911117812E+03  0.00000000000E+00 0. -1.
         21   -1    0    0  501  503 -0.00000000000E+00 -0.00000000000E+00 -0.26450138044E+03  0.26450138044E+03  0.00000000000E+00 0. -1.
         24    1    1    2    0    0  0.46472306201E+02 -0.19686330456E+02  0.77178980796E+02  0.12235619266E+03  0.80419002446E+02 0. -1.
          1    1    1    2  501    0  0.27503402117E+02  0.86663451318E+00 -0.22461460339E+03  0.22629385374E+03  0.00000000000E+00 0. -1.
         -2    1    1    2    0  502 -0.73975708318E+02  0.18819695943E+02  0.72045420282E+02  0.10496251217E+03  0.00000000000E+00 0.  1.
<mgrwt>
<rscale>  2 0.99396776E+02</rscale>
<asrwt>0</asrwt>
<pdfrwt beam="1">  1       21 0.29094027E-01 0.99396776E+02</pdfrwt>
<pdfrwt beam="2">  1       21 0.40692520E-01 0.99396776E+02</pdfrwt>
<totfact> 0.68809084E+04</totfact>
</mgrwt>
</event>
<event>
 5    1  0.1590180E+000  0.7414132E+02  0.7546771E-02  0.1346551E+00
         21   -1    0    0  501  502  0.00000000000E+00  0.00000000000E+00  0.36602902562E+03  0.36602902562E+03  0.00000000000E+00 0. -1.
         21   -1    0    0  502  503 -0.00000000000E+00 -0.00000000000E+00 -0.24539678512E+02  0.24539678512E+02  0.00000000000E+00 0.  1.
         24    1    1    2    0    0  0.45210402441E+02  0.11981968254E+02  0.97739885130E+02  0.13493646339E+03  0.80419002446E+02 0.  0.
          1    1    1    2  501    0 -0.32696627027E+02  0.61010557921E+01  0.22276997761E+03  0.22523932877E+03  0.00000000000E+00 0. -1.
         -2    1    1    2    0  503 -0.12513775414E+02 -0.18083024046E+02  0.20979484365E+02  0.30392911970E+02  0.00000000000E+00 0.  1.
<mgrwt>
<rscale>  2 0.74141322E+02</rscale>
<asrwt>0</asrwt>
<pdfrwt beam="1">  1       21 0.56312154E-01 0.74141322E+02</pdfrwt>
<pdfrwt beam="2">  1       21 0.37753354E-02 0.74141322E+02</pdfrwt>
<totfact> 0.12674664E+06</totfact>
</mgrwt>
</event>
<event>
 5    1  0.2045441E+000  0.1301513E+03  0.7546771E-02  0.1227231E+00
         21   -1    0    0  501  502  0.00000000000E+00  0.00000000000E+00  0.13627124337E+03  0.13627124337E+03  0.00000000000E+00 0. -1.
         21   -1    0    0  502  503 -0.00000000000E+00 -0.00000000000E+00 -0.36105855791E+03  0.36105855791E+03  0.00000000000E+00 0.  1.
         24    1    1    2    0    0 -0.44261951067E+02  0.45640739021E+01  0.52325688363E+02  0.10575984446E+03  0.80419002446E+02 0. -1.
          1    1    1    2  501    0  0.87624956942E+02 -0.53770342419E+02  0.40217348678E+01  0.10288613684E+03  0.00000000000E+00 0. -1.
         -2    1    1    2    0  503 -0.43363005875E+02  0.49206268517E+02 -0.28113473777E+03  0.28868381999E+03  0.00000000000E+00 0.  1.
<mgrwt>
<rscale>  2 0.13015131E+03</rscale>
<asrwt>0</asrwt>
<pdfrwt beam="1">  1       21 0.20964807E-01 0.13015131E+03</pdfrwt>
<pdfrwt beam="2">  1       21 0.55547470E-01 0.13015131E+03</pdfrwt>
<totfact> 0.66420118E+04</totfact>
</mgrwt>
</event>
<event>
 5    1  0.1590180E+000  0.8413706E+02  0.7546771E-02  0.1317705E+00
         21   -1    0    0  501  502  0.00000000000E+00  0.00000000000E+00  0.71173200039E+03  0.71173200039E+03  0.00000000000E+00 0.  1.
         21   -1    0    0  502  503 -0.00000000000E+00 -0.00000000000E+00 -0.12470346941E+02  0.12470346941E+02  0.00000000000E+00 0. -1.
         24    1    1    2    0    0 -0.21572127556E+02  0.57193223750E+02  0.25593884200E+03  0.27515146434E+03  0.80419002446E+02 0.  1.
          1    1    1    2  501    0 -0.38100181207E+01 -0.29304736402E+02  0.27348911046E+03  0.27508103780E+03  0.00000000000E+00 0. -1.
         -2    1    1    2    0  503  0.25382145676E+02 -0.27888487347E+02  0.16983370098E+03  0.17396984519E+03  0.00000000000E+00 0.  1.
<mgrwt>
<rscale>  2 0.84137063E+02</rscale>
<asrwt>0</asrwt>
<pdfrwt beam="1">  1       21 0.10949720E+00 0.84137063E+02</pdfrwt>
<pdfrwt beam="2">  1       21 0.19185155E-02 0.84137063E+02</pdfrwt>
<totfact> 0.87733876E+05</totfact>
</mgrwt>
</event>
<event>
 5    1  0.1590180E+000  0.6689535E+02  0.7546771E-02  0.1370981E+00
         21   -1    0    0  503  502  0.00000000000E+00  0.00000000000E+00  0.36406271229E+03  0.36406271229E+03  0.00000000000E+00 0.  1.
         21   -1    0    0  501  503 -0.00000000000E+00 -0.00000000000E+00 -0.15781142003E+02  0.15781142003E+02  0.00000000000E+00 0. -1.
         24    1    1    2    0    0  0.95866485044E+01 -0.55901294751E+01  0.18777729075E+03  0.20457438807E+03  0.80419002446E+02 0. -1.
          1    1    1    2  501    0  0.18984967301E+02 -0.84430705415E+01  0.13316228692E+02  0.24678662244E+02  0.00000000000E+00 0. -1.
         -2    1    1    2    0  502 -0.28571615805E+02  0.14033200017E+02  0.14718805085E+03  0.15059080398E+03  0.00000000000E+00 0.  1.
<mgrwt>
<rscale>  2 0.66895349E+02</rscale>
<asrwt>0</asrwt>
<pdfrwt beam="1">  1       21 0.56009642E-01 0.66895349E+02</pdfrwt>
<pdfrwt beam="2">  1       21 0.24278683E-02 0.66895349E+02</pdfrwt>
<totfact> 0.26041155E+06</totfact>
</mgrwt>
</event>
<event>
 5    1  0.1590180E+000  0.6749670E+02  0.7546771E-02  0.1368819E+00
         21   -1    0    0  503  502  0.00000000000E+00  0.00000000000E+00  0.29352513348E+03  0.29352513348E+03  0.00000000000E+00 0. -1.
         21   -1    0    0  501  503 -0.00000000000E+00 -0.00000000000E+00 -0.19933790473E+02  0.19933790473E+02  0.00000000000E+00 0.  1.
         24    1    1    2    0    0 -0.17731090730E+02  0.12164221593E+02  0.15139728575E+03  0.17277359160E+03  0.80419002446E+02 0.  0.
          1    1    1    2  501    0  0.78205488671E+01 -0.30185817755E+02  0.21412121443E+02  0.37826227975E+02  0.00000000000E+00 0. -1.
         -2    1    1    2    0  502  0.99105418631E+01  0.18021596162E+02  0.10078193581E+03  0.10285910438E+03  0.00000000000E+00 0.  1.
<mgrwt>
<rscale>  2 0.67496700E+02</rscale>
<asrwt>0</asrwt>
<pdfrwt beam="1">  1       21 0.45157710E-01 0.67496700E+02</pdfrwt>
<pdfrwt beam="2">  1       21 0.30667372E-02 0.67496700E+02</pdfrwt>
<totfact> 0.27689750E+06</totfact>
</mgrwt>
</event>
<event>
 5    1  0.1590180E+000  0.8210269E+02  0.7546771E-02  0.1323188E+00
         21   -1    0    0  501  502  0.00000000000E+00  0.00000000000E+00  0.13241472194E+03  0.13241472194E+03  0.00000000000E+00 0. -1.
         21   -1    0    0  502  503 -0.00000000000E+00 -0.00000000000E+00 -0.64140792245E+02  0.64140792245E+02  0.00000000000E+00 0. -1.
         24    1    1    2    0    0 -0.33077948385E+02 -0.74671539371E+01 -0.14863466184E+01  0.87288797895E+02  0.80419002446E+02 0. -1.
          1    1    1    2  501    0  0.51509981396E+02  0.19321220015E+02  0.67730244863E+02  0.87258087278E+02  0.00000000000E+00 0. -1.
         -2    1    1    2    0  503 -0.18432033011E+02 -0.11854066078E+02  0.20300314547E+01  0.22008629017E+02  0.00000000000E+00 0.  1.
<mgrwt>
<rscale>  2 0.82102690E+02</rscale>
<asrwt>0</asrwt>
<pdfrwt beam="1">  1       21 0.20371496E-01 0.82102690E+02</pdfrwt>
<pdfrwt beam="2">  1       21 0.98678143E-02 0.82102690E+02</pdfrwt>
<totfact> 0.18168414E+06</totfact>
</mgrwt>
</event>
<event>
 5    1  0.1590180E+000  0.6742142E+02  0.7546771E-02  0.1369088E+00
         21   -1    0    0  501  502  0.00000000000E+00  0.00000000000E+00  0.10808939950E+03  0.10808939950E+03  0.00000000000E+00 0.  1.
         21   -1    0    0  502  503 -0.00000000000E+00 -0.00000000000E+00 -0.43588832848E+02  0.43588832848E+02  0.00000000000E+00 0.  1.
         24    1    1    2    0    0  0.30462034933E+01 -0.14904325437E+02  0.37462845023E+02  0.90011660267E+02  0.80419002446E+02 0.  1.
          1    1    1    2  501    0  0.20641586420E+02 -0.59029443062E+01  0.20044306736E+02  0.29371654260E+02  0.00000000000E+00 0. -1.
         -2    1    1    2    0  503 -0.23687789914E+02  0.20807269744E+02  0.69934148929E+01  0.32294917820E+02  0.00000000000E+00 0.  1.
<mgrwt>
<rscale>  2 0.67421424E+02</rscale>
<asrwt>0</asrwt>
<pdfrwt beam="1">  1       21 0.16629138E-01 0.67421424E+02</pdfrwt>
<pdfrwt beam="2">  1       21 0.67059743E-02 0.67421424E+02</pdfrwt>
<totfact> 0.49984633E+06</totfact>
</mgrwt>
</event>
<event>
 5    1  0.1590180E+000  0.9607148E+02  0.7546771E-02  0.1288781E+00
         21   -1    0    0  503  502  0.00000000000E+00  0.00000000000E+00  0.19051882551E+03  0.19051882551E+03  0.00000000000E+00 0.  1.
         21   -1    0    0  501  503 -0.00000000000E+00 -0.00000000000E+00 -0.82730982541E+02  0.82730982541E+02  0.00000000000E+00 0.  1.
         24    1    1    2    0    0 -0.25228499055E+02  0.65759898207E+02  0.87398275069E+02  0.13808155495E+03  0.80419002446E+02 0.  1.
          1    1    1    2  501    0 -0.14428825641E+02 -0.14817104963E+02 -0.41101070780E+02  0.46011255451E+02  0.00000000000E+00 0. -1.
         -2    1    1    2    0  502  0.39657324696E+02 -0.50942793244E+02  0.61490638681E+02  0.89156997655E+02  0.00000000000E+00 0.  1.
<mgrwt>
<rscale>  2 0.96071483E+02</rscale>
<asrwt>0</asrwt>
<pdfrwt beam="1">  1       21 0.29310588E-01 0.96071483E+02</pdfrwt>
<pdfrwt beam="2">  1       21 0.12727844E-01 0.96071483E+02</pdfrwt>
<totfact> 0.59275333E+05</totfact>
</mgrwt>
</event>
<event>
 5    1  0.1590180E+000  0.8636111E+02  0.7546771E-02  0.1311911E+00
         21   -1    0    0  501  502  0.00000000000E+00  0.00000000000E+00  0.29737784478E+03  0.29737784478E+03  0.00000000000E+00 0.  1.
         21   -1    0    0  502  503 -0.00000000000E+00 -0.00000000000E+00 -0.55594614314E+02  0.55594614314E+02  0.00000000000E+00 0.  1.
         24    1    1    2    0    0 -0.53028413849E+02 -0.14149221027E+02  0.16260994605E+03  0.18952947961E+03  0.80419002446E+02 0.  1.
          1    1    1    2  501    0  0.45225824709E+02 -0.13044044743E+02  0.11117536063E+03  0.12072896560E+03  0.00000000000E+00 0. -1.
         -2    1    1    2    0  503  0.78025891403E+01  0.27193265770E+02 -0.32002076212E+02  0.42714013888E+02  0.00000000000E+00 0.  1.
<mgrwt>
<rscale>  2 0.86361113E+02</rscale>
<asrwt>0</asrwt>
<pdfrwt beam="1">  1       21 0.45750437E-01 0.86361113E+02</pdfrwt>
<pdfrwt beam="2">  1       21 0.85530177E-02 0.86361113E+02</pdfrwt>
<totfact> 0.49471367E+05</totfact>
</mgrwt>
</event>
<event>
 5    1  0.1590180E+000  0.9781616E+02  0.7546771E-02  0.1284956E+00
         21   -1    0    0  501  502  0.00000000000E+00  0.00000000000E+00  0.15846928092E+02  0.15846928092E+02  0.00000000000E+00 0.  1.
         21   -1    0    0  502  503 -0.00000000000E+00 -0.00000000000E+00 -0.75509143676E+03  0.75509143676E+03  0.00000000000E+00 0.  1.
         24    1    1    2    0    0  0.54450729942E+02 -0.51019947960E+02 -0.34442746462E+03  0.36147670938E+03  0.80419002446E+02 0.  1.
          1    1    1    2  501    0 -0.27450265227E+02 -0.83639440823E+00 -0.32914039229E+02  0.42866660647E+02  0.00000000000E+00 0. -1.
         -2    1    1    2    0  503 -0.27000464716E+02  0.51856342368E+02 -0.36190300481E+03  0.36659499483E+03  0.00000000000E+00 0.  1.
<mgrwt>
<rscale>  2 0.97816162E+02</rscale>
<asrwt>0</asrwt>
<pdfrwt beam="1">  1       21 0.24379893E-02 0.97816162E+02</pdfrwt>
<pdfrwt beam="2">  1       21 0.11616790E+00 0.97816162E+02</pdfrwt>
<totfact> 0.51877074E+05</totfact>
</mgrwt>
</event>
<event>
 5    1  0.1590180E+000  0.1216793E+03  0.7546771E-02  0.1240352E+00
         21   -1    0    0  501  502  0.00000000000E+00  0.00000000000E+00  0.45687572697E+03  0.45687572697E+03  0.00000000000E+00 0.  1.
         21   -1    0    0  502  503 -0.00000000000E+00 -0.00000000000E+00 -0.49413642687E+02  0.49413642687E+02  0.00000000000E+00 0.  1.
         24    1    1    2    0    0 -0.73606423299E+02 -0.56315147863E+02  0.15122788537E+03  0.19474699150E+03  0.80419002446E+02 0.  1.
          1    1    1    2  501    0 -0.85318518962E+01  0.34679526012E+02  0.21348461187E+03  0.21645124515E+03  0.00000000000E+00 0. -1.
         -2    1    1    2    0  503  0.82138275195E+02  0.21635621851E+02  0.42749587044E+02  0.95091133011E+02  0.00000000000E+00 0.  1.
<mgrwt>
<rscale>  2 0.12167929E+03</rscale>
<asrwt>0</asrwt>
<pdfrwt beam="1">  1       21 0.70288570E-01 0.12167929E+03</pdfrwt>
<pdfrwt beam="2">  1       21 0.76020992E-02 0.12167929E+03</pdfrwt>
<totfact> 0.24525365E+05</totfact>
</mgrwt>
</event>
<event>
 5    1  0.1590180E+000  0.9653839E+02  0.7546771E-02  0.1287748E+00
         21   -1    0    0  501  502  0.00000000000E+00  0.00000000000E+00  0.17502920898E+03  0.17502920898E+03  0.00000000000E+00 0. -1.
         21   -1    0    0  502  503 -0.00000000000E+00 -0.00000000000E+00 -0.12667212365E+03  0.12667212365E+03  0.00000000000E+00 0.  1.
         24    1    1    2    0    0 -0.55670091702E+02 -0.54175910752E+02  0.75501206456E+02  0.13491418216E+03  0.80419002446E+02 0. -1.
          1    1    1    2  501    0  0.43979327822E+02  0.26805601266E+02  0.57422131167E+02  0.77136390132E+02  0.00000000000E+00 0. -1.
         -2    1    1    2    0  503  0.11690763880E+02  0.27370309486E+02 -0.84566252296E+02  0.89650760337E+02  0.00000000000E+00 0.  1.
<mgrwt>
<rscale>  2 0.96538390E+02</rscale>
<asrwt>0</asrwt>
<pdfrwt beam="1">  1       21 0.26927571E-01 0.96538390E+02</pdfrwt>
<pdfrwt beam="2">  1       21 0.19488019E-01 0.96538390E+02</pdfrwt>
<totfact> 0.32394128E+05</totfact>
</mgrwt>
</event>
<event>
 5    1  0.1590180E+000  0.8393129E+02  0.7546771E-02  0.1318251E+00
         21   -1    0    0  501  502  0.00000000000E+00  0.00000000000E+00  0.93581115752E+01  0.93581115752E+01  0.00000000000E+00 0.  1.
         21   -1    0    0  502  503 -0.00000000000E+00 -0.00000000000E+00 -0.11356062062E+04  0.11356062062E+04  0.00000000000E+00 0.  1.
         24    1    1    2    0    0  0.60176535258E+02 -0.19485400174E+02 -0.49205000286E+03  0.50257468846E+03  0.80419002446E+02 0.  1.
          1    1    1    2  501    0 -0.22775663833E+02  0.16310065761E+02 -0.52712800680E+02  0.59694124197E+02  0.00000000000E+00 0. -1.
         -2    1    1    2    0  503 -0.37400871426E+02  0.31753344133E+01 -0.58148529112E+03  0.58269550515E+03  0.00000000000E+00 0.  1.
<mgrwt>
<rscale>  2 0.83931294E+02</rscale>
<asrwt>0</asrwt>
<pdfrwt beam="1">  1       21 0.14397107E-02 0.83931294E+02</pdfrwt>
<pdfrwt beam="2">  1       21 0.17470850E+00 0.83931294E+02</pdfrwt>
<totfact> 0.43141857E+05</totfact>
</mgrwt>
</event>
<event>
 5    1  0.1590180E+000  0.9674866E+02  0.7546771E-02  0.1287286E+00
         21   -1    0    0  503  502  0.00000000000E+00  0.00000000000E+00  0.27008693110E+03  0.27008693110E+03  0.00000000000E+00 0.  1.
         21   -1    0    0  501  503 -0.00000000000E+00 -0.00000000000E+00 -0.63612496598E+02  0.63612496598E+02  0.00000000000E+00 0. -1.
         24    1    1    2    0    0 -0.69258953387E+01 -0.13422056403E+02  0.12951279939E+03  0.15319562913E+03  0.80419002446E+02 0.  1.
          1    1    1    2  501    0 -0.42897535478E+02 -0.24188275866E+02 -0.29269614401E+02  0.57288581469E+02  0.00000000000E+00 0. -1.
         -2    1    1    2    0  502  0.49823430817E+02  0.37610332269E+02  0.10623124952E+03  0.12321521710E+03  0.00000000000E+00 0.  1.
<mgrwt>
<rscale>  2 0.96748660E+02</rscale>
<asrwt>0</asrwt>
<pdfrwt beam="1">  1       21 0.41551835E-01 0.96748660E+02</pdfrwt>
<pdfrwt beam="2">  1       21 0.97865381E-02 0.96748660E+02</pdfrwt>
<totfact> 0.47546888E+05</totfact>
</mgrwt>
</event>
<event>
 5    1  0.1590180E+000  0.7762121E+02  0.7546771E-02  0.1335941E+00
         21   -1    0    0  503  502  0.00000000000E+00  0.00000000000E+00  0.85839015554E+03  0.85839015554E+03  0.00000000000E+00 0.  1.
         21   -1    0    0  501  503 -0.00000000000E+00 -0.00000000000E+00 -0.18382177778E+02  0.18382177778E+02  0.00000000000E+00 0.  1.
         24    1    1    2    0    0 -0.14244555205E+02  0.50557299721E+02  0.21127118636E+03  0.23208118849E+03  0.80419002446E+02 0.  1.
          1    1    1    2  501    0  0.18663938842E+02 -0.16698868411E+02  0.13391904390E+02  0.28399611308E+02  0.00000000000E+00 0. -1.
         -2    1    1    2    0  502 -0.44193836364E+01 -0.33858431310E+02  0.61534488701E+03  0.61629153353E+03  0.00000000000E+00 0.  1.
<mgrwt>
<rscale>  2 0.77621207E+02</rscale>
<asrwt>0</asrwt>
<pdfrwt beam="1">  1       21 0.13205999E+00 0.77621207E+02</pdfrwt>
<pdfrwt beam="2">  1       21 0.28280280E-02 0.77621207E+02</pdfrwt>
<totfact> 0.30069191E+05</totfact>
</mgrwt>
</event>
<event>
 5    1  0.1590180E+000  0.8126580E+02  0.7546771E-02  0.1325497E+00
         21   -1    0    0  501  502  0.00000000000E+00  0.00000000000E+00  0.14026955880E+04  0.14026955880E+04  0.00000000000E+00 0.  1.
         21   -1    0    0  502  503 -0.00000000000E+00 -0.00000000000E+00 -0.52689753041E+01  0.52689753041E+01  0.00000000000E+00 0. -1.
         24    1    1    2    0    0 -0.43237888651E+01 -0.33680340227E+02  0.52165364273E+03  0.52890717465E+03  0.80419002446E+02 0.  0.
          1    1    1    2  501    0  0.17613301250E+02  0.50683592598E+02  0.67447485388E+03  0.67660578143E+03  0.00000000000E+00 0. -1.
         -2    1    1    2    0  503 -0.13289512385E+02 -0.17003252371E+02  0.20129811610E+03  0.20245160724E+03  0.00000000000E+00 0.  1.
<mgrwt>
<rscale>  2 0.81265804E+02</rscale>
<asrwt>0</asrwt>
<pdfrwt beam="1">  1       21 0.21579902E+00 0.81265804E+02</pdfrwt>
<pdfrwt beam="2">  1       21 0.81061270E-03 0.81265804E+02</pdfrwt>
<totfact> 0.58817293E+05</totfact>
</mgrwt>
</event>
<event>
 5    1  0.2183281E+000  0.7355992E+02  0.7546771E-02  0.1348389E+00
         21   -1    0    0  501  502  0.00000000000E+00  0.00000000000E+00  0.18128093488E+03  0.18128093488E+03  0.00000000000E+00 0.  1.
         21   -1    0    0  502  503 -0.00000000000E+00 -0.00000000000E+00 -0.21032204230E+03  0.21032204230E+03  0.00000000000E+00 0.  1.
         24    1    1    2    0    0 -0.42139415485E+02  0.18489272831E+02  0.98091310123E+02  0.13493222233E+03  0.80419002446E+02 0.  1.
          1    1    1    2  501    0  0.82787468686E+01 -0.18866388482E+02  0.61584690029E+02  0.64939605096E+02  0.00000000000E+00 0. -1.
         -2    1    1    2    0  503  0.33860668616E+02  0.37711565146E+00 -0.18871710757E+03  0.19173114975E+03  0.00000000000E+00 0.  1.
<mgrwt>
<rscale>  2 0.73559916E+02</rscale>
<asrwt>0</asrwt>
<pdfrwt beam="1">  1       21 0.27889375E-01 0.73559916E+02</pdfrwt>
<pdfrwt beam="2">  1       21 0.32357237E-01 0.73559916E+02</pdfrwt>
<totfact> 0.11832580E+05</totfact>
</mgrwt>
</event>
<event>
 5    1  0.1590180E+000  0.8787463E+02  0.7546771E-02  0.1308082E+00
         21   -1    0    0  501  502  0.00000000000E+00  0.00000000000E+00  0.10853654188E+04  0.10853654188E+04  0.00000000000E+00 0. -1.
         21   -1    0    0  502  503 -0.00000000000E+00 -0.00000000000E+00 -0.18316082730E+02  0.18316082730E+02  0.00000000000E+00 0. -1.
         24    1    1    2    0    0 -0.65065839356E+02  0.22224568001E+02  0.19434484967E+03  0.22127953232E+03  0.80419002446E+02 0. -1.
          1    1    1    2  501    0  0.25288221035E+02 -0.21264615848E+01  0.77032473795E+03  0.77074264048E+03  0.00000000000E+00 0. -1.
         -2    1    1    2    0  503  0.39777618321E+02 -0.20098106417E+02  0.10237974849E+03  0.11165932877E+03  0.00000000000E+00 0.  1.
<mgrwt>
<rscale>  2 0.87874627E+02</rscale>
<asrwt>0</asrwt>
<pdfrwt beam="1">  1       21 0.16697924E+00 0.87874627E+02</pdfrwt>
<pdfrwt beam="2">  1       21 0.28178597E-02 0.87874627E+02</pdfrwt>
<totfact> 0.16592645E+05</totfact>
</mgrwt>
</event>
<event>
 5    1  0.1590180E+000  0.9389352E+02  0.7546771E-02  0.1293688E+00
         21   -1    0    0  503  502  0.00000000000E+00  0.00000000000E+00  0.93352950715E+02  0.93352950715E+02  0.00000000000E+00 0. -1.
         21   -1    0    0  501  503 -0.00000000000E+00 -0.00000000000E+00 -0.13442648221E+03  0.13442648221E+03  0.00000000000E+00 0. -1.
         24    1    1    2    0    0  0.37830984966E+02 -0.52522378145E+02  0.39812661924E+02  0.11064378714E+03  0.80419002446E+02 0. -1.
          1    1    1    2  501    0 -0.43877245862E+02  0.14733627613E+02 -0.47951736269E+02  0.66645791302E+02  0.00000000000E+00 0. -1.
         -2    1    1    2    0  502  0.60462608959E+01  0.37788750532E+02 -0.32934457151E+02  0.50489854481E+02  0.00000000000E+00 0.  1.
<mgrwt>
<rscale>  2 0.93893525E+02</rscale>
<asrwt>0</asrwt>
<pdfrwt beam="1">  1       21 0.14361992E-01 0.93893525E+02</pdfrwt>
<pdfrwt beam="2">  1       21 0.20680997E-01 0.93893525E+02</pdfrwt>
<totfact> 0.91886046E+05</totfact>
</mgrwt>
</event>
<event>
 5    1  0.1590180E+000  0.1004944E+03  0.7546771E-02  0.1279260E+00
         21   -1    0    0  501  502  0.00000000000E+00  0.00000000000E+00  0.20002717671E+03  0.20002717671E+03  0.00000000000E+00 0.  1.
         21   -1    0    0  502  503 -0.00000000000E+00 -0.00000000000E+00 -0.84287531292E+02  0.84287531292E+02  0.00000000000E+00 0.  1.
         24    1    1    2    0    0  0.43460513157E+02 -0.72308403424E+02  0.75190534141E+02  0.13870167190E+03  0.80419002446E+02 0.  1.
          1    1    1    2  501    0 -0.16432267627E+02  0.24124515616E+02  0.75017081842E+02  0.80495802631E+02  0.00000000000E+00 0. -1.
         -2    1    1    2    0  503 -0.27028245530E+02  0.48183887808E+02 -0.34467970561E+02  0.65117233474E+02  0.00000000000E+00 0.  1.
<mgrwt>
<rscale>  2 0.10049440E+03</rscale>
<asrwt>0</asrwt>
<pdfrwt beam="1">  1       21 0.30773412E-01 0.10049440E+03</pdfrwt>
<pdfrwt beam="2">  1       21 0.12967313E-01 0.10049440E+03</pdfrwt>
<totfact> 0.52246424E+05</totfact>
</mgrwt>
</event>
<event>
 5    1  0.1590180E+000  0.2498102E+03  0.7546771E-02  0.1113425E+00
         21   -1    0    0  503  502  0.00000000000E+00  0.00000000000E+00  0.69565889104E+03  0.69565889104E+03  0.00000000000E+00 0.  1.
         21   -1    0    0  501  503 -0.00000000000E+00 -0.00000000000E+00 -0.24759704391E+03  0.24759704391E+03  0.00000000000E+00 0. -1.
         24    1    1    2    0    0 -0.19903485599E+03  0.61704601616E+01  0.19276743442E+03  0.28858178772E+03  0.80419002446E+02 0.  1.
          1    1    1    2  501    0 -0.27240460831E+02  0.45252965920E+02 -0.16572750136E+03  0.17394101971E+03  0.00000000000E+00 0. -1.
         -2    1    1    2    0  502  0.22627531682E+03 -0.51423426081E+02  0.42102191408E+03  0.48073312751E+03  0.00000000000E+00 0.  1.
<mgrwt>
<rscale>  2 0.24981016E+03</rscale>
<asrwt>0</asrwt>
<pdfrwt beam="1">  1       21 0.10702444E+00 0.24981016E+03</pdfrwt>
<pdfrwt beam="2">  1       21 0.38091853E-01 0.24981016E+03</pdfrwt>
<totfact> 0.44481475E+03</totfact>
</mgrwt>
</event>
<event>
 5    1  0.1590180E+000  0.9023215E+02  0.7546771E-02  0.1302290E+00
         21   -1    0    0  503  502  0.00000000000E+00  0.00000000000E+00  0.61649369782E+03  0.61649369782E+03  0.00000000000E+00 0. -1.
         21   -1    0    0  501  503 -0.00000000000E+00 -0.00000000000E+00 -0.89841353001E+02  0.89841353001E+02  0.00000000000E+00 0. -1.
         24    1    1    2    0    0  0.60889838680E+02 -0.37565010692E+02  0.19942337027E+03  0.22661773771E+03  0.80419002446E+02 0. -1.
          1    1    1    2  501    0 -0.45124284511E+02  0.20404195420E+02 -0.67822729543E+02  0.83978895479E+02  0.00000000000E+00 0. -1.
         -2    1    1    2    0  502 -0.15765554169E+02  0.17160815272E+02  0.39505170410E+03  0.39573841763E+03  0.00000000000E+00 0.  1.
<mgrwt>
<rscale>  2 0.90232153E+02</rscale>
<asrwt>0</asrwt>
<pdfrwt beam="1">  1       21 0.94845182E-01 0.90232153E+02</pdfrwt>
<pdfrwt beam="2">  1       21 0.13821747E-01 0.90232153E+02</pdfrwt>
<totfact> 0.45041991E+04</totfact>
</mgrwt>
</event>
<event>
 5    1  0.1590180E+000  0.7016654E+02  0.7546771E-02  0.1359528E+00
         21   -1    0    0  501  502  0.00000000000E+00  0.00000000000E+00  0.40858968952E+02  0.40858968952E+02  0.00000000000E+00 0.  1.
         21   -1    0    0  502  503 -0.00000000000E+00 -0.00000000000E+00 -0.15678093301E+03  0.15678093301E+03  0.00000000000E+00 0.  1.
         24    1    1    2    0    0 -0.42833762898E+02 -0.18681518054E+02 -0.72843369605E+02  0.11814018288E+03  0.80419002446E+02 0.  1.
          1    1    1    2  501    0  0.21695470133E+02  0.53975551105E+01  0.70969403680E+01  0.23456205747E+02  0.00000000000E+00 0. -1.
         -2    1    1    2    0  503  0.21138292764E+02  0.13283962943E+02 -0.50175534825E+02  0.56043513340E+02  0.00000000000E+00 0.  1.
<mgrwt>
<rscale>  2 0.70166537E+02</rscale>
<asrwt>0</asrwt>
<pdfrwt beam="1">  1       21 0.62859953E-02 0.70166537E+02</pdfrwt>
<pdfrwt beam="2">  1       21 0.24120143E-01 0.70166537E+02</pdfrwt>
<totfact> 0.28424447E+06</totfact>
</mgrwt>
</event>
<event>
 5    1  0.1590180E+000  0.6949043E+02  0.7546771E-02  0.1361834E+00
         21   -1    0    0  503  502  0.00000000000E+00  0.00000000000E+00  0.22521316107E+04  0.22521316107E+04  0.00000000000E+00 0.  1.
         21   -1    0    0  501  503 -0.00000000000E+00 -0.00000000000E+00 -0.56141525545E+01  0.56141525545E+01  0.00000000000E+00 0. -1.
         24    1    1    2    0    0  0.11551819809E+02 -0.27031799947E+02  0.72100023503E+03  0.72606660687E+03  0.80419002446E+02 0.  0.
          1    1    1    2  501    0 -0.28772716788E+02  0.16382348959E+02  0.88051047269E+02  0.94070385956E+02  0.00000000000E+00 0. -1.
         -2    1    1    2    0  502  0.17220896979E+02  0.10649450989E+02  0.14374661758E+04  0.14376087704E+04  0.00000000000E+00 0.  1.
<mgrwt>
<rscale>  2 0.69490432E+02</rscale>
<asrwt>0</asrwt>
<pdfrwt beam="1">  1       21 0.34648106E+00 0.69490432E+02</pdfrwt>
<pdfrwt beam="2">  1       21 0.86371758E-03 0.69490432E+02</pdfrwt>
<totfact> 0.10341977E+05</totfact>
</mgrwt>
</event>
<event>
 5    1  0.1590180E+000  0.8859603E+02  0.7546771E-02  0.1306288E+00
         21   -1    0    0  501  502  0.00000000000E+00  0.00000000000E+00  0.35848663795E+03  0.35848663795E+03  0.00000000000E+00 0. -1.
         21   -1    0    0  502  503 -0.00000000000E+00 -0.00000000000E+00 -0.40900073835E+02  0.40900073835E+02  0.00000000000E+00 0.  1.
         24    1    1    2    0    0  0.15552761520E+02  0.15146480752E+02  0.18093781983E+03  0.19919090057E+03  0.80419002446E+02 0.  1.
          1    1    1    2  501    0  0.28560416701E+01  0.37764506738E+02  0.13905709554E+03  0.14412213836E+03  0.00000000000E+00 0. -1.
         -2    1    1    2    0  503 -0.18408803190E+02 -0.52910987489E+02 -0.24083512614E+01  0.56073672858E+02  0.00000000000E+00 0.  1.
<mgrwt>
<rscale>  2 0.88596030E+02</rscale>
<asrwt>0</asrwt>
<pdfrwt beam="1">  1       21 0.55151788E-01 0.88596030E+02</pdfrwt>
<pdfrwt beam="2">  1       21 0.62923193E-02 0.88596030E+02</pdfrwt>
<totfact> 0.56888508E+05</totfact>
</mgrwt>
</event>
<event>
 5    1  0.1590180E+000  0.6961179E+02  0.7546771E-02  0.1361418E+00
         21   -1    0    0  501  502  0.00000000000E+00  0.00000000000E+00  0.12717666001E+02  0.12717666001E+02  0.00000000000E+00 0.  1.
         21   -1    0    0  502  503 -0.00000000000E+00 -0.00000000000E+00 -0.51203427190E+03  0.51203427190E+03  0.00000000000E+00 0. -1.
         24    1    1    2    0    0  0.13751926492E+02  0.11390928662E+02 -0.36037610769E+03  0.36967150781E+03  0.80419002446E+02 0. -1.
          1    1    1    2  501    0 -0.32399241964E+02  0.40290682423E+01 -0.33036594371E+02  0.46447398618E+02  0.00000000000E+00 0. -1.
         -2    1    1    2    0  503  0.18647315472E+02 -0.15419996904E+02 -0.10590390384E+03  0.10863303147E+03  0.00000000000E+00 0.  1.
<mgrwt>
<rscale>  2 0.69611789E+02</rscale>
<asrwt>0</asrwt>
<pdfrwt beam="1">  1       21 0.19565642E-02 0.69611789E+02</pdfrwt>
<pdfrwt beam="2">  1       21 0.78774495E-01 0.69611789E+02</pdfrwt>
<totfact> 0.17858362E+06</totfact>
</mgrwt>
</event>
<event>
 5    1  0.1590180E+000  0.9020613E+02  0.7546771E-02  0.1302353E+00
         21   -1    0    0  503  502  0.00000000000E+00  0.00000000000E+00  0.20205050428E+02  0.20205050428E+02  0.00000000000E+00 0.  1.
         21   -1    0    0  501  503 -0.00000000000E+00 -0.00000000000E+00 -0.88534116332E+03  0.88534116332E+03  0.00000000000E+00 0. -1.
         24    1    1    2    0    0 -0.28094600706E+02 -0.56964137250E+02 -0.22440282581E+03  0.24669427174E+03  0.80419002446E+02 0.  1.
          1    1    1    2  501    0 -0.10676643370E+02  0.26685911176E+02 -0.57992427331E+03  0.58063610924E+03  0.00000000000E+00 0. -1.
         -2    1    1    2    0  502  0.38771244075E+02  0.30278226074E+02 -0.60809013763E+02  0.78215832772E+02  0.00000000000E+00 0.  1.
<mgrwt>
<rscale>  2 0.90206130E+02</rscale>
<asrwt>0</asrwt>
<pdfrwt beam="1">  1       21 0.31084695E-02 0.90206130E+02</pdfrwt>
<pdfrwt beam="2">  1       21 0.13620632E+00 0.90206130E+02</pdfrwt>
<totfact> 0.23788156E+05</totfact>
</mgrwt>
</event>
<event>
 5    1  0.1590180E+000  0.9076857E+02  0.7546771E-02  0.1301001E+00
         21   -1    0    0  503  502  0.00000000000E+00  0.00000000000E+00  0.11923282970E+03  0.11923282970E+03  0.00000000000E+00 0.  1.
         21   -1    0    0  501  503 -0.00000000000E+00 -0.00000000000E+00 -0.81288704013E+02  0.81288704013E+02  0.00000000000E+00 0.  1.
         24    1    1    2    0    0 -0.31859000380E+02  0.16597558123E+02 -0.10756011660E+02  0.88732083161E+02  0.80419002446E+02 0.  1.
          1    1    1    2  501    0 -0.29506414016E+02 -0.12224036353E+02 -0.20973237894E+01  0.32007097649E+02  0.00000000000E+00 0. -1.
         -2    1    1    2    0  502  0.61365414396E+02 -0.43735217697E+01  0.50797461133E+02  0.79782352900E+02  0.00000000000E+00 0.  1.
<mgrwt>
<rscale>  2 0.90768565E+02</rscale>
<asrwt>0</asrwt>
<pdfrwt beam="1">  1       21 0.18343512E-01 0.90768565E+02</pdfrwt>
<pdfrwt beam="2">  1       21 0.12505954E-01 0.90768565E+02</pdfrwt>
<totfact> 0.14606700E+06</totfact>
</mgrwt>
</event>
<event>
 5    1  0.1590180E+000  0.7539385E+02  0.7546771E-02  0.1342656E+00
         21   -1    0    0  501  502  0.00000000000E+00  0.00000000000E+00  0.98888770355E+03  0.98888770355E+03  0.00000000000E+00 0. -1.
         21   -1    0    0  502  503 -0.00000000000E+00 -0.00000000000E+00 -0.18184413139E+02  0.18184413139E+02  0.00000000000E+00 0. -1.
         24    1    1    2    0    0 -0.12588410004E+02  0.17846147317E+02  0.90077680355E+02  0.12271168442E+03  0.80419002446E+02 0. -1.
          1    1    1    2  501    0 -0.10159144048E+02 -0.36594213003E+02  0.72334260706E+03  0.72433892055E+03  0.00000000000E+00 0. -1.
         -2    1    1    2    0  503  0.22747554051E+02  0.18748065685E+02  0.15728300299E+03  0.16002151172E+03  0.00000000000E+00 0.  1.
<mgrwt>
<rscale>  2 0.75393851E+02</rscale>
<asrwt>0</asrwt>
<pdfrwt beam="1">  1       21 0.15213653E+00 0.75393851E+02</pdfrwt>
<pdfrwt beam="2">  1       21 0.27976028E-02 0.75393851E+02</pdfrwt>
<totfact> 0.21525770E+05</totfact>
</mgrwt>
</event>
<event>
 5    1  0.1590180E+000  0.8529189E+02  0.7546771E-02  0.1314671E+00
         21   -1    0    0  503  502  0.00000000000E+00  0.00000000000E+00  0.10997963478E+03  0.10997963478E+03  0.00000000000E+00 0. -1.
         21   -1    0    0  501  503 -0.00000000000E+00 -0.00000000000E+00 -0.79716671899E+02  0.79716671899E+02  0.00000000000E+00 0. -1.
         24    1    1    2    0    0 -0.47827332388E+02 -0.35670812962E+02 -0.14373411000E+02  0.10116161090E+03  0.80419002446E+02 0. -1.
          1    1    1    2  501    0  0.16760956621E+02  0.35637329267E+02  0.74525568606E+01  0.40081036762E+02  0.00000000000E+00 0. -1.
         -2    1    1    2    0  502  0.31066375766E+02  0.33483695833E-01  0.37183817019E+02  0.48453659021E+02  0.00000000000E+00 0.  1.
<mgrwt>
<rscale>  2 0.85291887E+02</rscale>
<asrwt>0</asrwt>
<pdfrwt beam="1">  1       21 0.16919944E-01 0.85291887E+02</pdfrwt>
<pdfrwt beam="2">  1       21 0.12264103E-01 0.85291887E+02</pdfrwt>
<totfact> 0.17454693E+06</totfact>
</mgrwt>
</event>
<event>
 5    1  0.1590180E+000  0.7367939E+02  0.7546771E-02  0.1348010E+00
         21   -1    0    0  503  502  0.00000000000E+00  0.00000000000E+00  0.10079110999E+03  0.10079110999E+03  0.00000000000E+00 0. -1.
         21   -1    0    0  501  503 -0.00000000000E+00 -0.00000000000E+00 -0.78921781805E+02  0.78921781805E+02  0.00000000000E+00 0. -1.
         24    1    1    2    0    0  0.44954573854E+02 -0.18398999077E+02  0.47921134451E+02  0.10546605122E+03  0.80419002446E+02 0. -1.
          1    1    1    2  501    0 -0.33098962306E+02  0.19820037151E+01 -0.38238175586E+02  0.50612525294E+02  0.00000000000E+00 0. -1.
         -2    1    1    2    0  502 -0.11855611548E+02  0.16416995362E+02  0.12186369321E+02  0.23634315288E+02  0.00000000000E+00 0.  1.
<mgrwt>
<rscale>  2 0.73679393E+02</rscale>
<asrwt>0</asrwt>
<pdfrwt beam="1">  1       21 0.15506325E-01 0.73679393E+02</pdfrwt>
<pdfrwt beam="2">  1       21 0.12141813E-01 0.73679393E+02</pdfrwt>
<totfact> 0.20636984E+06</totfact>
</mgrwt>
</event>
<event>
 5    1  0.1590180E+000  0.6953695E+02  0.7546771E-02  0.1361675E+00
         21   -1    0    0  501  502  0.00000000000E+00  0.00000000000E+00  0.19870297776E+03  0.19870297776E+03  0.00000000000E+00 0.  1.
         21   -1    0    0  502  503 -0.00000000000E+00 -0.00000000000E+00 -0.29638647735E+02  0.29638647735E+02  0.00000000000E+00 0. -1.
         24    1    1    2    0    0 -0.22009660321E+02  0.12870379163E+02  0.12684579748E+03  0.15233891197E+03  0.80419002446E+02 0.  0.
          1    1    1    2  501    0  0.78301350552E+01 -0.30840615264E+02  0.42523013016E+02  0.53109897390E+02  0.00000000000E+00 0. -1.
         -2    1    1    2    0  503  0.14179525266E+02  0.17970236101E+02 -0.30448047012E+00  0.22892816136E+02  0.00000000000E+00 0.  1.
<mgrwt>
<rscale>  2 0.69536951E+02</rscale>
<asrwt>0</asrwt>
<pdfrwt beam="1">  1       21 0.30569688E-01 0.69536951E+02</pdfrwt>
<pdfrwt beam="2">  1       21 0.45597921E-02 0.69536951E+02</pdfrwt>
<totfact> 0.31034440E+06</totfact>
</mgrwt>
</event>
<event>
 5    1  0.1590180E+000  0.9501314E+02  0.7546771E-02  0.1291146E+00
         21   -1    0    0  503  502  0.00000000000E+00  0.00000000000E+00  0.22332711381E+04  0.22332711381E+04  0.00000000000E+00 0. -1.
         21   -1    0    0  501  503 -0.00000000000E+00 -0.00000000000E+00 -0.41443035942E+01  0.41443035942E+01  0.00000000000E+00 0. -1.
         24    1    1    2    0    0 -0.41772427010E+02  0.58363386047E+02  0.13357635652E+04  0.13401054953E+04  0.80419002446E+02 0. -1.
          1    1    1    2  501    0 -0.87597794380E+00 -0.32182026318E+02  0.26294099567E+03  0.26490454386E+03  0.00000000000E+00 0. -1.
         -2    1    1    2    0  502  0.42648404954E+02 -0.26181359730E+02  0.63042227366E+03  0.63240540254E+03  0.00000000000E+00 0.  1.
<mgrwt>
<rscale>  2 0.95013139E+02</rscale>
<asrwt>0</asrwt>
<pdfrwt beam="1">  1       21 0.34357921E+00 0.95013139E+02</pdfrwt>
<pdfrwt beam="2">  1       21 0.63758695E-03 0.95013139E+02</pdfrwt>
<totfact> 0.16298090E+05</totfact>
</mgrwt>
</event>
<event>
 5    1  0.1590180E+000  0.9750900E+02  0.7546771E-02  0.1285623E+00
         21   -1    0    0  503  502  0.00000000000E+00  0.00000000000E+00  0.66065917464E+02  0.66065917464E+02  0.00000000000E+00 0.  1.
         21   -1    0    0  501  503 -0.00000000000E+00 -0.00000000000E+00 -0.19353922417E+03  0.19353922417E+03  0.00000000000E+00 0. -1.
         24    1    1    2    0    0 -0.50552314313E+02 -0.26450682880E+02 -0.95085988979E+02  0.13698078829E+03  0.80419002446E+02 0. -1.
          1    1    1    2  501    0  0.27038381804E+02  0.53882136907E+02 -0.53650617607E+02  0.80701595634E+02  0.00000000000E+00 0. -1.
         -2    1    1    2    0  502  0.23513932509E+02 -0.27431454026E+02  0.21263299879E+02  0.41922757708E+02  0.00000000000E+00 0.  1.
<mgrwt>
<rscale>  2 0.97509003E+02</rscale>
<asrwt>0</asrwt>
<pdfrwt beam="1">  1       21 0.10163987E-01 0.97509003E+02</pdfrwt>
<pdfrwt beam="2">  1       21 0.29775265E-01 0.97509003E+02</pdfrwt>
<totfact> 0.85303645E+05</totfact>
</mgrwt>
</event>
<event>
 5    1  0.1590180E+000  0.9024704E+02  0.7546771E-02  0.1302255E+00
         21   -1    0    0  503  502  0.00000000000E+00  0.00000000000E+00  0.10517181440E+03  0.10517181440E+03  0.00000000000E+00 0.  1.
         21   -1    0    0  501  503 -0.00000000000E+00 -0.00000000000E+00 -0.27390699169E+03  0.27390699169E+03  0.00000000000E+00 0. -1.
         24    1    1    2    0    0 -0.10894162074E+02 -0.34101885632E+02 -0.62181095427E+02  0.10777442161E+03  0.80419002446E+02 0.  1.
          1    1    1    2  501    0  0.11079733803E+02 -0.28130551359E+02 -0.17569701404E+03  0.17827935709E+03  0.00000000000E+00 0. -1.
         -2    1    1    2    0  502 -0.18557172826E+00  0.62232436991E+02  0.69142932175E+02  0.93025027387E+02  0.00000000000E+00 0.  1.
<mgrwt>
<rscale>  2 0.90247045E+02</rscale>
<asrwt>0</asrwt>
<pdfrwt beam="1">  1       21 0.16180279E-01 0.90247045E+02</pdfrwt>
<pdfrwt beam="2">  1       21 0.42139536E-01 0.90247045E+02</pdfrwt>
<totfact> 0.19073670E+05</totfact>
</mgrwt>
</event>
<event>
 5    1  0.1590180E+000  0.1020557E+03  0.7546771E-02  0.1276032E+00
         21   -1    0    0  503  502  0.00000000000E+00  0.00000000000E+00  0.13131644780E+03  0.13131644780E+03  0.00000000000E+00 0.  1.
         21   -1    0    0  501  503 -0.00000000000E+00 -0.00000000000E+00 -0.12320268328E+03  0.12320268328E+03  0.00000000000E+00 0. -1.
         24    1    1    2    0    0  0.72049141676E+02 -0.19899310486E+02  0.46086143275E+01  0.10988865571E+03  0.80419002446E+02 0.  1.
          1    1    1    2  501    0  0.40740657076E+00  0.21833236010E+02 -0.49985646792E+02  0.54547420288E+02  0.00000000000E+00 0. -1.
         -2    1    1    2    0  502 -0.72456548247E+02 -0.19339255246E+01  0.53490796981E+02  0.90083055085E+02  0.00000000000E+00 0.  1.
<mgrwt>
<rscale>  2 0.10205568E+03</rscale>
<asrwt>0</asrwt>
<pdfrwt beam="1">  1       21 0.20202530E-01 0.10205568E+03</pdfrwt>
<pdfrwt beam="2">  1       21 0.18954259E-01 0.10205568E+03</pdfrwt>
<totfact> 0.58195383E+05</totfact>
</mgrwt>
</event>
<event>
 5    1  0.1590180E+000  0.6156869E+02  0.7546771E-02  0.1391364E+00
         21   -1    0    0  501  502  0.00000000000E+00  0.00000000000E+00  0.20195067291E+03  0.20195067291E+03  0.00000000000E+00 0.  1.
         21   -1    0    0  502  503 -0.00000000000E+00 -0.00000000000E+00 -0.21046774042E+02  0.21046774042E+02  0.00000000000E+00 0. -1.
         24    1    1    2    0    0  0.34783772886E+01 -0.10929824079E+01  0.12313899257E+03  0.14711805179E+03  0.80419002446E+02 0.  1.
          1    1    1    2  501    0  0.21423243840E+01 -0.20353009321E+02  0.46940243509E+02  0.51207626413E+02  0.00000000000E+00 0. -1.
         -2    1    1    2    0  503 -0.56207016726E+01  0.21445991729E+02  0.10824662796E+02  0.24671768748E+02  0.00000000000E+00 0.  1.
<mgrwt>
<rscale>  2 0.61568687E+02</rscale>
<asrwt>0</asrwt>
<pdfrwt beam="1">  1       21 0.31069333E-01 0.61568687E+02</pdfrwt>
<pdfrwt beam="2">  1       21 0.32379654E-02 0.61568687E+02</pdfrwt>
<totfact> 0.52114617E+06</totfact>
</mgrwt>
</event>
<event>
 5    1  0.1590180E+000  0.7437162E+02  0.7546771E-02  0.1345828E+00
         21   -1    0    0  503  502  0.00000000000E+00  0.00000000000E+00  0.12082394464E+03  0.12082394464E+03  0.00000000000E+00 0.  1.
         21   -1    0    0  501  503 -0.00000000000E+00 -0.00000000000E+00 -0.12651458732E+03  0.12651458732E+03  0.00000000000E+00 0. -1.
         24    1    1    2    0    0 -0.11129629941E+02 -0.41125233759E+02  0.31079570171E+02  0.96168129600E+02  0.80419002446E+02 0. -1.
          1    1    1    2  501    0  0.25719456943E+02  0.23332138394E+02 -0.88220618883E+02  0.94809054122E+02  0.00000000000E+00 0. -1.
         -2    1    1    2    0  502 -0.14589827002E+02  0.17793095366E+02  0.51450406030E+02  0.56361348238E+02  0.00000000000E+00 0.  1.
<mgrwt>
<rscale>  2 0.74371617E+02</rscale>
<asrwt>0</asrwt>
<pdfrwt beam="1">  1       21 0.18588299E-01 0.74371617E+02</pdfrwt>
<pdfrwt beam="2">  1       21 0.19463783E-01 0.74371617E+02</pdfrwt>
<totfact> 0.64412660E+05</totfact>
</mgrwt>
</event>
<event>
 5    1  0.1590180E+000  0.7629607E+02  0.7546771E-02  0.1339904E+00
         21   -1    0    0  503  502  0.00000000000E+00  0.00000000000E+00  0.31648334178E+03  0.31648334178E+03  0.00000000000E+00 0.  1.
         21   -1    0    0  501  503 -0.00000000000E+00 -0.00000000000E+00 -0.12169358207E+03  0.12169358207E+03  0.00000000000E+00 0. -1.
         24    1    1    2    0    0  0.25688506197E+02  0.63460095715E+01  0.24883528747E+02  0.88241583992E+02  0.80419002446E+02 0. -1.
          1    1    1    2  501    0 -0.41918757938E+02  0.11837738704E+02 -0.84127422451E+02  0.94735091349E+02  0.00000000000E+00 0. -1.
         -2    1    1    2    0  502  0.16230251741E+02 -0.18183748275E+02  0.25403365341E+03  0.25520024851E+03  0.00000000000E+00 0.  1.
<mgrwt>
<rscale>  2 0.76296070E+02</rscale>
<asrwt>0</asrwt>
<pdfrwt beam="1">  1       21 0.48689744E-01 0.76296070E+02</pdfrwt>
<pdfrwt beam="2">  1       21 0.18722090E-01 0.76296070E+02</pdfrwt>
<totfact> 0.11034114E+05</totfact>
</mgrwt>
</event>
<event>
 5    1  0.1590180E+000  0.6873886E+02  0.7546771E-02  0.1364435E+00
         21   -1    0    0  501  502  0.00000000000E+00  0.00000000000E+00  0.14937858598E+02  0.14937858598E+02  0.00000000000E+00 0. -1.
         21   -1    0    0  502  503 -0.00000000000E+00 -0.00000000000E+00 -0.73657979139E+03  0.73657979139E+03  0.00000000000E+00 0.  1.
         24    1    1    2    0    0 -0.25099802318E+02  0.63051978467E+01 -0.29070576734E+03  0.30273224921E+03  0.80419002446E+02 0.  0.
          1    1    1    2  501    0  0.83670642132E+01 -0.25907070630E+02 -0.13201791153E+02  0.30256757292E+02  0.00000000000E+00 0. -1.
         -2    1    1    2    0  503  0.16732738105E+02  0.19601872783E+02 -0.41773437430E+03  0.41852864348E+03  0.00000000000E+00 0.  1.
<mgrwt>
<rscale>  2 0.68738860E+02</rscale>
<asrwt>0</asrwt>
<pdfrwt beam="1">  1       21 0.22981325E-02 0.68738860E+02</pdfrwt>
<pdfrwt beam="2">  1       21 0.11331995E+00 0.68738860E+02</pdfrwt>
<totfact> 0.60653118E+05</totfact>
</mgrwt>
</event>
<event>
 5    1  0.1590180E+000  0.1314090E+03  0.7546771E-02  0.1225380E+00
         21   -1    0    0  501  502  0.00000000000E+00  0.00000000000E+00  0.45380298223E+03  0.45380298223E+03  0.00000000000E+00 0. -1.
         21   -1    0    0  502  503 -0.00000000000E+00 -0.00000000000E+00 -0.14736491968E+03  0.14736491968E+03  0.00000000000E+00 0.  1.
         24    1    1    2    0    0  0.70768809092E+02 -0.34436106141E+01 -0.38890575044E+02  0.11401655834E+03  0.80419002446E+02 0.  1.
          1    1    1    2  501    0  0.23808574678E+02 -0.43849697043E+02  0.37422071685E+03  0.37753250070E+03  0.00000000000E+00 0. -1.
         -2    1    1    2    0  503 -0.94577383769E+02  0.47293307657E+02 -0.28892079256E+02  0.10961884288E+03  0.00000000000E+00 0.  1.
<mgrwt>
<rscale>  2 0.13140897E+03</rscale>
<asrwt>0</asrwt>
<pdfrwt beam="1">  1       21 0.69815843E-01 0.13140897E+03</pdfrwt>
<pdfrwt beam="2">  1       21 0.22671526E-01 0.13140897E+03</pdfrwt>
<totfact> 0.35181274E+04</totfact>
</mgrwt>
</event>
<event>
 5    1  0.1590180E+000  0.8405447E+02  0.7546771E-02  0.1317924E+00
         21   -1    0    0  503  502  0.00000000000E+00  0.00000000000E+00  0.34448061084E+03  0.34448061084E+03  0.00000000000E+00 0. -1.
         21   -1    0    0  501  503 -0.00000000000E+00 -0.00000000000E+00 -0.23365883380E+02  0.23365883380E+02  0.00000000000E+00 0.  1.
         24    1    1    2    0    0 -0.38071092049E+02  0.46025014964E+02  0.21704331278E+03  0.23904544679E+03  0.80419002446E+02 0. -1.
          1    1    1    2  501    0  0.22426911308E+02 -0.35962166434E+01  0.10810555994E+02  0.25154865252E+02  0.00000000000E+00 0. -1.
         -2    1    1    2    0  502  0.15644180742E+02 -0.42428798321E+02  0.93260858686E+02  0.10364618218E+03  0.00000000000E+00 0.  1.
<mgrwt>
<rscale>  2 0.84054470E+02</rscale>
<asrwt>0</asrwt>
<pdfrwt beam="1">  1       21 0.52997013E-01 0.84054470E+02</pdfrwt>
<pdfrwt beam="2">  1       21 0.35947515E-02 0.84054470E+02</pdfrwt>
<totfact> 0.15617295E+06</totfact>
</mgrwt>
</event>
<event>
 5    1  0.1590180E+000  0.2857628E+03  0.7546771E-02  0.1092582E+00
         21   -1    0    0  501  502  0.00000000000E+00  0.00000000000E+00  0.47709897001E+03  0.47709897001E+03  0.00000000000E+00 0.  1.
         21   -1    0    0  502  503 -0.00000000000E+00 -0.00000000000E+00 -0.65888901897E+03  0.65888901897E+03  0.00000000000E+00 0.  1.
         24    1    1    2    0    0 -0.17207876002E+03 -0.19751748247E+03  0.29948985982E+03  0.40593798495E+03  0.80419002446E+02 0.  1.
          1    1    1    2  501    0  0.11830035386E+02 -0.22433259680E+02  0.92013759279E+02  0.95444920104E+02  0.00000000000E+00 0. -1.
         -2    1    1    2    0  503  0.16024872464E+03  0.21995074215E+03 -0.57329366806E+03  0.63460508394E+03  0.00000000000E+00 0.  1.
<mgrwt>
<rscale>  2 0.28576280E+03</rscale>
<asrwt>0</asrwt>
<pdfrwt beam="1">  1       21 0.73399842E-01 0.28576280E+03</pdfrwt>
<pdfrwt beam="2">  1       21 0.10136754E+00 0.28576280E+03</pdfrwt>
<totfact> 0.12296438E+03</totfact>
</mgrwt>
</event>
<event>
 5    1  0.1590180E+000  0.1105833E+03  0.7546771E-02  0.1259493E+00
         21   -1    0    0  503  502  0.00000000000E+00  0.00000000000E+00  0.53533908275E+03  0.53533908275E+03  0.00000000000E+00 0. -1.
         21   -1    0    0  501  503 -0.00000000000E+00 -0.00000000000E+00 -0.53809778657E+02  0.53809778657E+02  0.00000000000E+00 0.  1.
         24    1    1    2    0    0 -0.60076006175E+02 -0.47365596199E+02  0.32957514244E+03  0.34776373688E+03  0.80419002446E+02 0. -1.
          1    1    1    2  501    0  0.23424508547E+02  0.65295248111E+02 -0.13760309480E+02  0.70721447550E+02  0.00000000000E+00 0. -1.
         -2    1    1    2    0  502  0.36651497628E+02 -0.17929651912E+02  0.16571447113E+03  0.17066367697E+03  0.00000000000E+00 0.  1.
<mgrwt>
<rscale>  2 0.11058333E+03</rscale>
<asrwt>0</asrwt>
<pdfrwt beam="1">  1       21 0.82359855E-01 0.11058333E+03</pdfrwt>
<pdfrwt beam="2">  1       21 0.82784279E-02 0.11058333E+03</pdfrwt>
<totfact> 0.14985661E+05</totfact>
</mgrwt>
</event>
<event>
 5    1  0.1590180E+000  0.7459575E+02  0.7546771E-02  0.1345127E+00
         21   -1    0    0  501  502  0.00000000000E+00  0.00000000000E+00  0.25896145670E+04  0.25896145670E+04  0.00000000000E+00 0. -1.
         21   -1    0    0  502  503 -0.00000000000E+00 -0.00000000000E+00 -0.15632545517E+02  0.15632545517E+02  0.00000000000E+00 0.  1.
         24    1    1    2    0    0 -0.87802837757E+01  0.40013407258E+02  0.23920576027E+04  0.23937595863E+04  0.80419002446E+02 0. -1.
          1    1    1    2  501    0 -0.15829211392E+02 -0.26490555924E+02  0.18076843972E+03  0.18338359328E+03  0.00000000000E+00 0. -1.
         -2    1    1    2    0  503  0.24609495168E+02 -0.13522851334E+02  0.11559790382E+01  0.28103932966E+02  0.00000000000E+00 0.  1.
<mgrwt>
<rscale>  2 0.74595748E+02</rscale>
<asrwt>0</asrwt>
<pdfrwt beam="1">  1       21 0.39840190E+00 0.74595748E+02</pdfrwt>
<pdfrwt beam="2">  1       21 0.24050091E-02 0.74595748E+02</pdfrwt>
<totfact> 0.10275963E+04</totfact>
</mgrwt>
</event>
<event>
 5    1  0.1590180E+000  0.8340154E+02  0.7546771E-02  0.1319666E+00
         21   -1    0    0  503  502  0.00000000000E+00  0.00000000000E+00  0.39830711546E+02  0.39830711546E+02  0.00000000000E+00 0.  1.
         21   -1    0    0  501  503 -0.00000000000E+00 -0.00000000000E+00 -0.41359243182E+03  0.41359243182E+03  0.00000000000E+00 0.  1.
         24    1    1    2    0    0  0.50754664093E+02 -0.20307732799E+02 -0.34573173057E+03  0.35914632869E+03  0.80419002446E+02 0.  1.
          1    1    1    2  501    0 -0.38212037251E+02 -0.76051291610E+01 -0.44807718463E+02  0.59377852894E+02  0.00000000000E+00 0. -1.
         -2    1    1    2    0  502 -0.12542626842E+02  0.27912861960E+02  0.16777728757E+02  0.34898961778E+02  0.00000000000E+00 0.  1.
<mgrwt>
<rscale>  2 0.83401541E+02</rscale>
<asrwt>0</asrwt>
<pdfrwt beam="1">  1       21 0.61278021E-02 0.83401541E+02</pdfrwt>
<pdfrwt beam="2">  1       21 0.63629602E-01 0.83401541E+02</pdfrwt>
<totfact> 0.44092850E+05</totfact>
</mgrwt>
</event>
<event>
 5    1  0.1787960E+000  0.1323162E+03  0.7546771E-02  0.1224059E+00
         21   -1    0    0  503  502  0.00000000000E+00  0.00000000000E+00  0.70577676503E+02  0.70577676503E+02  0.00000000000E+00 0.  1.
         21   -1    0    0  501  503 -0.00000000000E+00 -0.00000000000E+00 -0.76506719679E+03  0.76506719679E+03  0.00000000000E+00 0. -1.
         24    1    1    2    0    0 -0.54633182778E+02 -0.74265433920E+02 -0.37636008802E+01  0.12239901953E+03  0.80419002446E+02 0.  0.
          1    1    1    2  501    0  0.60693673701E+02  0.99384308088E+02 -0.67021093058E+03  0.68025263998E+03  0.00000000000E+00 0. -1.
         -2    1    1    2    0  502 -0.60604909230E+01 -0.25118874168E+02 -0.20514988828E+02  0.32993213792E+02  0.00000000000E+00 0.  1.
<mgrwt>
<rscale>  2 0.13231617E+03</rscale>
<asrwt>0</asrwt>
<pdfrwt beam="1">  1       21 0.10858104E-01 0.13231617E+03</pdfrwt>
<pdfrwt beam="2">  1       21 0.11770265E+00 0.13231617E+03</pdfrwt>
<totfact> 0.40236548E+04</totfact>
</mgrwt>
</event>
<event>
 5    1  0.1590180E+000  0.7173259E+02  0.7546771E-02  0.1354298E+00
         21   -1    0    0  503  502  0.00000000000E+00  0.00000000000E+00  0.26888178683E+03  0.26888178683E+03  0.00000000000E+00 0. -1.
         21   -1    0    0  501  503 -0.00000000000E+00 -0.00000000000E+00 -0.60935224612E+02  0.60935224612E+02  0.00000000000E+00 0. -1.
         24    1    1    2    0    0 -0.13261030116E+02 -0.79026964845E-01  0.18551729297E+03  0.20263203870E+03  0.80419002446E+02 0. -1.
          1    1    1    2  501    0 -0.15363514804E+02  0.21345960821E+02 -0.44303568714E+02  0.51521780164E+02  0.00000000000E+00 0. -1.
         -2    1    1    2    0  502  0.28624544920E+02 -0.21266933856E+02  0.66732837971E+02  0.75663192579E+02  0.00000000000E+00 0.  1.
<mgrwt>
<rscale>  2 0.71732595E+02</rscale>
<asrwt>0</asrwt>
<pdfrwt beam="1">  1       21 0.41366428E-01 0.71732595E+02</pdfrwt>
<pdfrwt beam="2">  1       21 0.93746501E-02 0.71732595E+02</pdfrwt>
<totfact> 0.51652882E+05</totfact>
</mgrwt>
</event>
<event>
 5    1  0.1590180E+000  0.2411698E+03  0.7546771E-02  0.1119016E+00
         21   -1    0    0  501  502  0.00000000000E+00  0.00000000000E+00  0.68984258604E+03  0.68984258604E+03  0.00000000000E+00 0. -1.
         21   -1    0    0  502  503 -0.00000000000E+00 -0.00000000000E+00 -0.25375698116E+03  0.25375698116E+03  0.00000000000E+00 0. -1.
         24    1    1    2    0    0 -0.14089254405E+03 -0.17809808657E+03 -0.15661890043E+03  0.28734358064E+03  0.80419002446E+02 0. -1.
          1    1    1    2  501    0  0.94931753881E+02  0.17007465651E+03  0.57372757356E+03  0.60588840172E+03  0.00000000000E+00 0. -1.
         -2    1    1    2    0  503  0.45960790165E+02  0.80234300584E+01  0.18976931754E+02  0.50367584827E+02  0.00000000000E+00 0.  1.
<mgrwt>
<rscale>  2 0.24116979E+03</rscale>
<asrwt>0</asrwt>
<pdfrwt beam="1">  1       21 0.10612963E+00 0.24116979E+03</pdfrwt>
<pdfrwt beam="2">  1       21 0.39039536E-01 0.24116979E+03</pdfrwt>
<totfact> 0.43440663E+03</totfact>
</mgrwt>
</event>
<event>
 5    1  0.1590180E+000  0.8779925E+02  0.7546771E-02  0.1308270E+00
         21   -1    0    0  501  502  0.00000000000E+00  0.00000000000E+00  0.12891018997E+02  0.12891018997E+02  0.00000000000E+00 0. -1.
         21   -1    0    0  502  503 -0.00000000000E+00 -0.00000000000E+00 -0.99130329188E+03  0.99130329188E+03  0.00000000000E+00 0. -1.
         24    1    1    2    0    0  0.24347397149E+01  0.67025610256E+02 -0.79492887381E+03  0.80179641478E+03  0.80419002446E+02 0. -1.
          1    1    1    2  501    0 -0.12409692273E+02 -0.45419244429E+02 -0.58134437369E+02  0.74809899311E+02  0.00000000000E+00 0. -1.
         -2    1    1    2    0  503  0.99749525582E+01 -0.21606365827E+02 -0.12534896171E+03  0.12758799679E+03  0.00000000000E+00 0.  1.
<mgrwt>
<rscale>  2 0.87799245E+02</rscale>
<asrwt>0</asrwt>
<pdfrwt beam="1">  1       21 0.19832338E-02 0.87799245E+02</pdfrwt>
<pdfrwt beam="2">  1       21 0.15250819E+00 0.87799245E+02</pdfrwt>
<totfact> 0.36957217E+05</totfact>
</mgrwt>
</event>
<event>
 5    1  0.1590180E+000  0.7060992E+02  0.7546771E-02  0.1358031E+00
         21   -1    0    0  501  502  0.00000000000E+00  0.00000000000E+00  0.18139334122E+03  0.18139334122E+03  0.00000000000E+00 0. -1.
         21   -1    0    0  502  503 -0.00000000000E+00 -0.00000000000E+00 -0.14744921907E+03  0.14744921907E+03  0.00000000000E+00 0.  1.
         24    1    1    2    0    0  0.18676305213E+02 -0.31548421703E+02  0.78482507939E+02  0.11819825420E+03  0.80419002446E+02 0.  1.
          1    1    1    2  501    0 -0.20420829501E+02 -0.80599701342E+00  0.79685426184E+02  0.82264372938E+02  0.00000000000E+00 0. -1.
         -2    1    1    2    0  503  0.17445242881E+01  0.32354418716E+02 -0.12422381198E+03  0.12837993316E+03  0.00000000000E+00 0.  1.
<mgrwt>
<rscale>  2 0.70609918E+02</rscale>
<asrwt>0</asrwt>
<pdfrwt beam="1">  1       21 0.27906668E-01 0.70609918E+02</pdfrwt>
<pdfrwt beam="2">  1       21 0.22684495E-01 0.70609918E+02</pdfrwt>
<totfact> 0.23031879E+05</totfact>
</mgrwt>
</event>
<event>
 5    1  0.1590180E+000  0.7102328E+02  0.7546771E-02  0.1356648E+00
         21   -1    0    0  501  502  0.00000000000E+00  0.00000000000E+00  0.22800920692E+02  0.22800920692E+02  0.00000000000E+00 0.  1.
         21   -1    0    0  502  503 -0.00000000000E+00 -0.00000000000E+00 -0.36127354911E+03  0.36127354911E+03  0.00000000000E+00 0. -1.
         24    1    1    2    0    0 -0.29391592767E+02 -0.31696209616E+01 -0.22307081909E+03  0.23895965874E+03  0.80419002446E+02 0. -1.
          1    1    1    2  501    0  0.12753050397E+02  0.25504345168E+02 -0.22701335411E+01  0.28605339068E+02  0.00000000000E+00 0. -1.
         -2    1    1    2    0  503  0.16638542370E+02 -0.22334724206E+02 -0.11313167579E+03  0.11650947199E+03  0.00000000000E+00 0.  1.
<mgrwt>
<rscale>  2 0.71023276E+02</rscale>
<asrwt>0</asrwt>
<pdfrwt beam="1">  1       21 0.35078343E-02 0.71023276E+02</pdfrwt>
<pdfrwt beam="2">  1       21 0.55580541E-01 0.71023276E+02</pdfrwt>
<totfact> 0.14656828E+06</totfact>
</mgrwt>
</event>
<event>
 5    1  0.1590180E+000  0.1026641E+03  0.7546771E-02  0.1274791E+00
         21   -1    0    0  503  502  0.00000000000E+00  0.00000000000E+00  0.17850588299E+03  0.17850588299E+03  0.00000000000E+00 0.  1.
         21   -1    0    0  501  503 -0.00000000000E+00 -0.00000000000E+00 -0.29021313650E+03  0.29021313650E+03  0.00000000000E+00 0.  1.
         24    1    1    2    0    0  0.44125703373E+02 -0.35471751058E+02 -0.60962466892E+02  0.11571067861E+03  0.80419002446E+02 0.  0.
          1    1    1    2  501    0  0.28249226391E+02  0.62800635961E+01 -0.19063679817E+03  0.19282076342E+03  0.00000000000E+00 0. -1.
         -2    1    1    2    0  502 -0.72374929765E+02  0.29191687462E+02  0.13989201155E+03  0.16018757746E+03  0.00000000000E+00 0.  1.
<mgrwt>
<rscale>  2 0.10266411E+03</rscale>
<asrwt>0</asrwt>
<pdfrwt beam="1">  1       21 0.27462444E-01 0.10266411E+03</pdfrwt>
<pdfrwt beam="2">  1       21 0.44648174E-01 0.10266411E+03</pdfrwt>
<totfact> 0.63649778E+04</totfact>
</mgrwt>
</event>
<event>
 5    1  0.1590180E+000  0.9641857E+02  0.7546771E-02  0.1288013E+00
         21   -1    0    0  501  502  0.00000000000E+00  0.00000000000E+00  0.12832601313E+02  0.12832601313E+02  0.00000000000E+00 0.  1.
         21   -1    0    0  502  503 -0.00000000000E+00 -0.00000000000E+00 -0.11383257014E+04  0.11383257014E+04  0.00000000000E+00 0.  1.
         24    1    1    2    0    0  0.75800048082E+02  0.13762507228E+02 -0.40546514783E+03  0.42048098168E+03  0.80419002446E+02 0.  1.
          1    1    1    2  501    0 -0.39315282611E+02  0.63277527416E+01 -0.80660649119E+02  0.89954834321E+02  0.00000000000E+00 0. -1.
         -2    1    1    2    0  503 -0.36484765471E+02 -0.20090259970E+02 -0.63936730311E+03  0.64072248668E+03  0.00000000000E+00 0.  1.
<mgrwt>
<rscale>  2 0.96418569E+02</rscale>
<asrwt>0</asrwt>
<pdfrwt beam="1">  1       21 0.19742452E-02 0.96418569E+02</pdfrwt>
<pdfrwt beam="2">  1       21 0.17512714E+00 0.96418569E+02</pdfrwt>
<totfact> 0.25789874E+05</totfact>
</mgrwt>
</event>
<event>
 5    1  0.1590180E+000  0.1013944E+03  0.7546771E-02  0.1277391E+00
         21   -1    0    0  503  502  0.00000000000E+00  0.00000000000E+00  0.92954887054E+03  0.92954887054E+03  0.00000000000E+00 0. -1.
         21   -1    0    0  501  503 -0.00000000000E+00 -0.00000000000E+00 -0.34580982221E+02  0.34580982221E+02  0.00000000000E+00 0. -1.
         24    1    1    2    0    0  0.58078249881E+01 -0.73018949155E+02  0.55553658215E+03  0.56608621942E+03  0.80419002446E+02 0. -1.
          1    1    1    2  501    0 -0.32462357712E+02  0.42752120483E+02 -0.25036882025E+01  0.53738412040E+02  0.00000000000E+00 0. -1.
         -2    1    1    2    0  502  0.26654532724E+02  0.30266828672E+02  0.34193499438E+03  0.34430522130E+03  0.00000000000E+00 0.  1.
<mgrwt>
<rscale>  2 0.10139439E+03</rscale>
<asrwt>0</asrwt>
<pdfrwt beam="1">  1       21 0.14300750E+00 0.10139439E+03</pdfrwt>
<pdfrwt beam="2">  1       21 0.53201518E-02 0.10139439E+03</pdfrwt>
<totfact> 0.86163361E+04</totfact>
</mgrwt>
</event>
<event>
 5    1  0.1590180E+000  0.1108380E+03  0.7546771E-02  0.1259026E+00
         21   -1    0    0  501  502  0.00000000000E+00  0.00000000000E+00  0.91090108448E+02  0.91090108448E+02  0.00000000000E+00 0. -1.
         21   -1    0    0  502  503 -0.00000000000E+00 -0.00000000000E+00 -0.18291825330E+03  0.18291825330E+03  0.00000000000E+00 0. -1.
         24    1    1    2    0    0  0.52224055989E+02  0.44964472361E+02  0.88171882483E+01  0.10627377175E+03  0.80419002446E+02 0. -1.
          1    1    1    2  501    0 -0.47324403906E+02 -0.73170215769E+02 -0.31094243575E+02  0.92522060419E+02  0.00000000000E+00 0. -1.
         -2    1    1    2    0  503 -0.48996520831E+01  0.28205743408E+02 -0.69551089529E+02  0.75212529584E+02  0.00000000000E+00 0.  1.
<mgrwt>
<rscale>  2 0.11083805E+03</rscale>
<asrwt>0</asrwt>
<pdfrwt beam="1">  1       21 0.14013863E-01 0.11083805E+03</pdfrwt>
<pdfrwt beam="2">  1       21 0.28141270E-01 0.11083805E+03</pdfrwt>
<totfact> 0.53993910E+05</totfact>
</mgrwt>
</event>
<event>
 5    1  0.1590180E+000  0.7673492E+02  0.7546771E-02  0.1338581E+00
         21   -1    0    0  503  502  0.00000000000E+00  0.00000000000E+00  0.39284461887E+03  0.39284461887E+03  0.00000000000E+00 0.  1.
         21   -1    0    0  501  503 -0.00000000000E+00 -0.00000000000E+00 -0.49858608997E+02  0.49858608997E+02  0.00000000000E+00 0. -1.
         24    1    1    2    0    0 -0.40495466298E+02  0.33234659263E+02  0.13308039058E+03  0.16407934568E+03  0.80419002446E+02 0.  0.
          1    1    1    2  501    0  0.12413278631E+02 -0.25505946637E+02 -0.27458602322E+02  0.39479331830E+02  0.00000000000E+00 0. -1.
         -2    1    1    2    0  502  0.28082187667E+02 -0.77287126261E+01  0.23736422161E+03  0.23914455036E+03  0.00000000000E+00 0.  1.
<mgrwt>
<rscale>  2 0.76734919E+02</rscale>
<asrwt>0</asrwt>
<pdfrwt beam="1">  1       21 0.60437632E-01 0.76734919E+02</pdfrwt>
<pdfrwt beam="2">  1       21 0.76705555E-02 0.76734919E+02</pdfrwt>
<totfact> 0.33665378E+05</totfact>
</mgrwt>
</event>
<event>
 5    1  0.1590180E+000  0.7974773E+02  0.7546771E-02  0.1329769E+00
         21   -1    0    0  503  502  0.00000000000E+00  0.00000000000E+00  0.20273108881E+03  0.20273108881E+03  0.00000000000E+00 0.  1.
         21   -1    0    0  501  503 -0.00000000000E+00 -0.00000000000E+00 -0.38098743687E+02  0.38098743687E+02  0.00000000000E+00 0.  1.
         24    1    1    2    0    0 -0.48939226782E+02 -0.16102224504E+02  0.10373255114E+03  0.14100350234E+03  0.80419002446E+02 0.  1.
          1    1    1    2  501    0  0.26702158384E+02  0.28064843865E+02  0.57391234112E+01  0.39160927735E+02  0.00000000000E+00 0. -1.
         -2    1    1    2    0  502  0.22237068398E+02 -0.11962619361E+02  0.55160670571E+02  0.60665402419E+02  0.00000000000E+00 0.  1.
<mgrwt>
<rscale>  2 0.79747730E+02</rscale>
<asrwt>0</asrwt>
<pdfrwt beam="1">  1       21 0.31189398E-01 0.79747730E+02</pdfrwt>
<pdfrwt beam="2">  1       21 0.58613453E-02 0.79747730E+02</pdfrwt>
<totfact> 0.19836733E+06</totfact>
</mgrwt>
</event>
<event>
 5    1  0.1590180E+000  0.6767995E+02  0.7546771E-02  0.1368165E+00
         21   -1    0    0  503  502  0.00000000000E+00  0.00000000000E+00  0.39106585402E+01  0.39106585402E+01  0.00000000000E+00 0. -1.
         21   -1    0    0  501  503 -0.00000000000E+00 -0.00000000000E+00 -0.23896123169E+04  0.23896123169E+04  0.00000000000E+00 0.  1.
         24    1    1    2    0    0  0.29723558655E+02  0.39316401705E+01 -0.19035926300E+04  0.19055264534E+04  0.80419002446E+02 0.  0.
          1    1    1    2  501    0 -0.19879412301E+02  0.17157685200E+02 -0.43143486206E+03  0.43223329048E+03  0.00000000000E+00 0. -1.
         -2    1    1    2    0  502 -0.98441463538E+01 -0.21089325371E+02 -0.50674166278E+02  0.55763231524E+02  0.00000000000E+00 0.  1.
<mgrwt>
<rscale>  2 0.67679949E+02</rscale>
<asrwt>0</asrwt>
<pdfrwt beam="1">  1       21 0.60164041E-03 0.67679949E+02</pdfrwt>
<pdfrwt beam="2">  1       21 0.36763228E+00 0.67679949E+02</pdfrwt>
<totfact> 0.13805810E+05</totfact>
</mgrwt>
</event>
<event>
 5    1  0.1590180E+000  0.8213754E+02  0.7546771E-02  0.1323093E+00
         21   -1    0    0  501  502  0.00000000000E+00  0.00000000000E+00  0.70467524823E+02  0.70467524823E+02  0.00000000000E+00 0. -1.
         21   -1    0    0  502  503 -0.00000000000E+00 -0.00000000000E+00 -0.11232757912E+03  0.11232757912E+03  0.00000000000E+00 0. -1.
         24    1    1    2    0    0  0.31186825267E+02  0.17504478532E+02  0.82496582678E+01  0.88398516135E+02  0.80419002446E+02 0.  0.
          1    1    1    2  501    0 -0.35344054261E+02  0.18586180792E+02 -0.11890113802E+02  0.41665610451E+02  0.00000000000E+00 0. -1.
         -2    1    1    2    0  503  0.41572289944E+01 -0.36090659324E+02 -0.38219598763E+02  0.52730977356E+02  0.00000000000E+00 0.  1.
<mgrwt>
<rscale>  2 0.82137541E+02</rscale>
<asrwt>0</asrwt>
<pdfrwt beam="1">  1       21 0.10841158E-01 0.82137541E+02</pdfrwt>
<pdfrwt beam="2">  1       21 0.17281166E-01 0.82137541E+02</pdfrwt>
<totfact> 0.20808078E+06</totfact>
</mgrwt>
</event>
<event>
 5    1  0.1590180E+000  0.1895501E+03  0.7546771E-02  0.1158868E+00
         21   -1    0    0  503  502  0.00000000000E+00  0.00000000000E+00  0.90211430306E+02  0.90211430306E+02  0.00000000000E+00 0. -1.
         21   -1    0    0  501  503 -0.00000000000E+00 -0.00000000000E+00 -0.63707552227E+03  0.63707552227E+03  0.00000000000E+00 0.  1.
         24    1    1    2    0    0  0.88762616736E+02  0.87835110326E+02 -0.42796394103E+03  0.45300569479E+03  0.80419002446E+02 0.  1.
          1    1    1    2  501    0 -0.15097179008E+03 -0.62850848704E+02 -0.12658900780E+03  0.20680301613E+03  0.00000000000E+00 0. -1.
         -2    1    1    2    0  502  0.62209173343E+02 -0.24984261623E+02  0.76888568732E+01  0.67478241655E+02  0.00000000000E+00 0.  1.
<mgrwt>
<rscale>  2 0.18955014E+03</rscale>
<asrwt>0</asrwt>
<pdfrwt beam="1">  1       21 0.13878682E-01 0.18955014E+03</pdfrwt>
<pdfrwt beam="2">  1       21 0.98011619E-01 0.18955014E+03</pdfrwt>
<totfact> 0.38949625E+04</totfact>
</mgrwt>
</event>
<event>
 5    1  0.1590180E+000  0.9111393E+02  0.7546771E-02  0.1300176E+00
         21   -1    0    0  503  502  0.00000000000E+00  0.00000000000E+00  0.36832956042E+02  0.36832956042E+02  0.00000000000E+00 0.  1.
         21   -1    0    0  501  503 -0.00000000000E+00 -0.00000000000E+00 -0.51395983767E+03  0.51395983767E+03  0.00000000000E+00 0.  1.
         24    1    1    2    0    0  0.36242386983E+01 -0.21536557502E+02 -0.43224251531E+03  0.44020196093E+03  0.80419002446E+02 0.  1.
          1    1    1    2  501    0  0.79198651332E+01 -0.37711376247E+02 -0.28844515188E+02  0.48133961177E+02  0.00000000000E+00 0. -1.
         -2    1    1    2    0  502 -0.11544103831E+02  0.59247933748E+02 -0.16039851139E+02  0.62456871610E+02  0.00000000000E+00 0.  1.
<mgrwt>
<rscale>  2 0.91113930E+02</rscale>
<asrwt>0</asrwt>
<pdfrwt beam="1">  1       21 0.56666090E-02 0.91113930E+02</pdfrwt>
<pdfrwt beam="2">  1       21 0.79070739E-01 0.91113930E+02</pdfrwt>
<totfact> 0.31411965E+05</totfact>
</mgrwt>
</event>
<event>
 5    1  0.1590180E+000  0.9804348E+02  0.7546771E-02  0.1284465E+00
         21   -1    0    0  503  502  0.00000000000E+00  0.00000000000E+00  0.31203180696E+03  0.31203180696E+03  0.00000000000E+00 0. -1.
         21   -1    0    0  501  503 -0.00000000000E+00 -0.00000000000E+00 -0.67274462076E+02  0.67274462076E+02  0.00000000000E+00 0. -1.
         24    1    1    2    0    0  0.11105458447E+02  0.73466246911E+02  0.11475996687E+03  0.15861174797E+03  0.80419002446E+02 0.  0.
          1    1    1    2  501    0 -0.27033971040E+02 -0.30406185316E+02 -0.32350219015E+02  0.51979884243E+02  0.00000000000E+00 0. -1.
         -2    1    1    2    0  502  0.15928512593E+02 -0.43060061595E+02  0.16234759703E+03  0.16871463683E+03  0.00000000000E+00 0.  1.
<mgrwt>
<rscale>  2 0.98043481E+02</rscale>
<asrwt>0</asrwt>
<pdfrwt beam="1">  1       21 0.48004892E-01 0.98043481E+02</pdfrwt>
<pdfrwt beam="2">  1       21 0.10349917E-01 0.98043481E+02</pdfrwt>
<totfact> 0.32253281E+05</totfact>
</mgrwt>
</event>
<event>
 5    1  0.1590180E+000  0.7682845E+02  0.7546771E-02  0.1338301E+00
         21   -1    0    0  501  502  0.00000000000E+00  0.00000000000E+00  0.69105871456E+02  0.69105871456E+02  0.00000000000E+00 0.  1.
         21   -1    0    0  502  503 -0.00000000000E+00 -0.00000000000E+00 -0.12653412300E+03  0.12653412300E+03  0.00000000000E+00 0. -1.
         24    1    1    2    0    0  0.33520956953E+02  0.83185115657E+01 -0.45621970411E+01  0.87640640036E+02  0.80419002446E+02 0.  1.
          1    1    1    2  501    0 -0.44698939079E+02  0.89290890318E+01  0.56948553928E+01  0.45936425239E+02  0.00000000000E+00 0. -1.
         -2    1    1    2    0  503  0.11177982126E+02 -0.17247600598E+02 -0.58560909900E+02  0.62062929185E+02  0.00000000000E+00 0.  1.
<mgrwt>
<rscale>  2 0.76828450E+02</rscale>
<asrwt>0</asrwt>
<pdfrwt beam="1">  1       21 0.10631672E-01 0.76828450E+02</pdfrwt>
<pdfrwt beam="2">  1       21 0.19466788E-01 0.76828450E+02</pdfrwt>
<totfact> 0.17304897E+06</totfact>
</mgrwt>
</event>
<event>
 5    1  0.1590180E+000  0.6748662E+02  0.7546771E-02  0.1368855E+00
         21   -1    0    0  503  502  0.00000000000E+00  0.00000000000E+00  0.20355195324E+03  0.20355195324E+03  0.00000000000E+00 0. -1.
         21   -1    0    0  501  503 -0.00000000000E+00 -0.00000000000E+00 -0.28950718055E+02  0.28950718055E+02  0.00000000000E+00 0. -1.
         24    1    1    2    0    0 -0.13617727981E+02 -0.15764621827E+02  0.10092124087E+03  0.13071449281E+03  0.80419002446E+02 0. -1.
          1    1    1    2  501    0 -0.16623910795E+02  0.13780938692E+02 -0.55995271398E+00  0.21600514540E+02  0.00000000000E+00 0. -1.
         -2    1    1    2    0  502  0.30241638776E+02  0.19836831358E+01  0.74239947026E+02  0.80187663946E+02  0.00000000000E+00 0.  1.
<mgrwt>
<rscale>  2 0.67486618E+02</rscale>
<asrwt>0</asrwt>
<pdfrwt beam="1">  1       21 0.31315684E-01 0.67486618E+02</pdfrwt>
<pdfrwt beam="2">  1       21 0.44539568E-02 0.67486618E+02</pdfrwt>
<totfact> 0.30754417E+06</totfact>
</mgrwt>
</event>
<event>
 5    1  0.1590180E+000  0.8051551E+02  0.7546771E-02  0.1327595E+00
         21   -1    0    0  503  502  0.00000000000E+00  0.00000000000E+00  0.14945578502E+04  0.14945578502E+04  0.00000000000E+00 0.  1.
         21   -1    0    0  501  503 -0.00000000000E+00 -0.00000000000E+00 -0.24423254563E+02  0.24423254563E+02  0.00000000000E+00 0. -1.
         24    1    1    2    0    0 -0.33799962678E+02  0.25883739122E+01  0.10750539481E+04  0.10785904433E+04  0.80419002446E+02 0.  0.
          1    1    1    2  501    0  0.30460863878E+01  0.29299628393E+02 -0.11338301639E+02  0.31564282825E+02  0.00000000000E+00 0. -1.
         -2    1    1    2    0  502  0.30753876290E+02 -0.31888002305E+02  0.40641894926E+03  0.40882637869E+03  0.00000000000E+00 0.  1.
<mgrwt>
<rscale>  2 0.80515510E+02</rscale>
<asrwt>0</asrwt>
<pdfrwt beam="1">  1       21 0.22993191E+00 0.80515510E+02</pdfrwt>
<pdfrwt beam="2">  1       21 0.37574250E-02 0.80515510E+02</pdfrwt>
<totfact> 0.42598291E+04</totfact>
</mgrwt>
</event>
<event>
 5    1  0.1590180E+000  0.1135844E+03  0.7546771E-02  0.1254073E+00
         21   -1    0    0  503  502  0.00000000000E+00  0.00000000000E+00  0.43937874170E+03  0.43937874170E+03  0.00000000000E+00 0.  1.
         21   -1    0    0  501  503 -0.00000000000E+00 -0.00000000000E+00 -0.39542018261E+02  0.39542018261E+02  0.00000000000E+00 0.  1.
         24    1    1    2    0    0  0.64764966116E+01 -0.77634771493E+02  0.26484639208E+03  0.28754117984E+03  0.80419002446E+02 0.  1.
          1    1    1    2  501    0 -0.15115415832E+02 -0.15510724569E+02 -0.57304954460E+01  0.22403056722E+02  0.00000000000E+00 0. -1.
         -2    1    1    2    0  502  0.86389192207E+01  0.93145496062E+02  0.14072082680E+03  0.16897652339E+03  0.00000000000E+00 0.  1.
<mgrwt>
<rscale>  2 0.11358436E+03</rscale>
<asrwt>0</asrwt>
<pdfrwt beam="1">  1       21 0.67596726E-01 0.11358436E+03</pdfrwt>
<pdfrwt beam="2">  1       21 0.60833877E-02 0.11358436E+03</pdfrwt>
<totfact> 0.39087321E+05</totfact>
</mgrwt>
</event>
<event>
 5    1  0.1590180E+000  0.7370061E+02  0.7546771E-02  0.1347943E+00
         21   -1    0    0  501  502  0.00000000000E+00  0.00000000000E+00  0.39703977400E+03  0.39703977400E+03  0.00000000000E+00 0. -1.
         21   -1    0    0  502  503 -0.00000000000E+00 -0.00000000000E+00 -0.17550238330E+02  0.17550238330E+02  0.00000000000E+00 0. -1.
         24    1    1    2    0    0 -0.26511403822E+01 -0.33351153268E+02  0.13579444001E+03  0.16132784589E+03  0.80419002446E+02 0.  0.
          1    1    1    2  501    0  0.26426281326E+02  0.16408189927E+02  0.18619168653E+03  0.18877214089E+03  0.00000000000E+00 0. -1.
         -2    1    1    2    0  503 -0.23775140944E+02  0.16942963341E+02  0.57503409131E+02  0.64490025549E+02  0.00000000000E+00 0.  1.
<mgrwt>
<rscale>  2 0.73700606E+02</rscale>
<asrwt>0</asrwt>
<pdfrwt beam="1">  1       21 0.61083035E-01 0.73700606E+02</pdfrwt>
<pdfrwt beam="2">  1       21 0.27000370E-02 0.73700606E+02</pdfrwt>
<totfact> 0.18424716E+06</totfact>
</mgrwt>
</event>
<event>
 5    1  0.1590180E+000  0.7159040E+02  0.7546771E-02  0.1354767E+00
         21   -1    0    0  501  502  0.00000000000E+00  0.00000000000E+00  0.23544323751E+03  0.23544323751E+03  0.00000000000E+00 0.  1.
         21   -1    0    0  502  503 -0.00000000000E+00 -0.00000000000E+00 -0.26315388893E+02  0.26315388893E+02  0.00000000000E+00 0. -1.
         24    1    1    2    0    0 -0.69943837460E+01 -0.38796435769E+02  0.11427985701E+03  0.14519361730E+03  0.80419002446E+02 0. -1.
          1    1    1    2  501    0 -0.14777694595E+02  0.19923035028E+02  0.80775505693E+02  0.84498460945E+02  0.00000000000E+00 0. -1.
         -2    1    1    2    0  503  0.21772078341E+02  0.18873400741E+02  0.14072485912E+02  0.32066548155E+02  0.00000000000E+00 0.  1.
<mgrwt>
<rscale>  2 0.71590399E+02</rscale>
<asrwt>0</asrwt>
<pdfrwt beam="1">  1       21 0.36222035E-01 0.71590399E+02</pdfrwt>
<pdfrwt beam="2">  1       21 0.40485215E-02 0.71590399E+02</pdfrwt>
<totfact> 0.27288097E+06</totfact>
</mgrwt>
</event>
<event>
 5    1  0.1590180E+000  0.8303133E+02  0.7546771E-02  0.1320663E+00
         21   -1    0    0  503  502  0.00000000000E+00  0.00000000000E+00  0.14904333148E+03  0.14904333148E+03  0.00000000000E+00 0.  1.
         21   -1    0    0  501  503 -0.00000000000E+00 -0.00000000000E+00 -0.71055507727E+02  0.71055507727E+02  0.00000000000E+00 0.  1.
         24    1    1    2    0    0 -0.43553801546E+02  0.75364868734E+01  0.31415105989E+02  0.96994108595E+02  0.80419002446E+02 0.  1.
          1    1    1    2  501    0  0.90879224530E+01  0.25183627476E+02 -0.25368959804E+02  0.36883459015E+02  0.00000000000E+00 0. -1.
         -2    1    1    2    0  502  0.34465879093E+02 -0.32720114350E+02  0.71941677571E+02  0.86221271601E+02  0.00000000000E+00 0.  1.
<mgrwt>
<rscale>  2 0.83031327E+02</rscale>
<asrwt>0</asrwt>
<pdfrwt beam="1">  1       21 0.22929743E-01 0.83031327E+02</pdfrwt>
<pdfrwt beam="2">  1       21 0.10931617E-01 0.83031327E+02</pdfrwt>
<totfact> 0.12244185E+06</totfact>
</mgrwt>
</event>
<event>
 5    1  0.1590180E+000  0.9768938E+02  0.7546771E-02  0.1285231E+00
         21   -1    0    0  503  502  0.00000000000E+00  0.00000000000E+00  0.27848875911E+02  0.27848875911E+02  0.00000000000E+00 0.  1.
         21   -1    0    0  501  503 -0.00000000000E+00 -0.00000000000E+00 -0.11186980545E+04  0.11186980545E+04  0.00000000000E+00 0.  1.
         24    1    1    2    0    0  0.51452904446E+02 -0.56712142914E+02 -0.84736106598E+03  0.85460614357E+03  0.80419002446E+02 0.  1.
          1    1    1    2  501    0 -0.22297284542E+02  0.20609654892E+01 -0.22664669848E+03  0.22775017543E+03  0.00000000000E+00 0. -1.
         -2    1    1    2    0  502 -0.29155619904E+02  0.54651177425E+02 -0.16841414153E+02  0.64190611437E+02  0.00000000000E+00 0.  1.
<mgrwt>
<rscale>  2 0.97689383E+02</rscale>
<asrwt>0</asrwt>
<pdfrwt beam="1">  1       21 0.42844428E-02 0.97689383E+02</pdfrwt>
<pdfrwt beam="2">  1       21 0.17210738E+00 0.97689383E+02</pdfrwt>
<totfact> 0.76539460E+04</totfact>
</mgrwt>
</event>
<event>
 5    1  0.1590180E+000  0.6918529E+02  0.7546771E-02  0.1362886E+00
         21   -1    0    0  503  502  0.00000000000E+00  0.00000000000E+00  0.87355225537E+02  0.87355225537E+02  0.00000000000E+00 0. -1.
         21   -1    0    0  501  503 -0.00000000000E+00 -0.00000000000E+00 -0.50570733024E+03  0.50570733024E+03  0.00000000000E+00 0. -1.
         24    1    1    2    0    0 -0.20413084557E+02  0.19589482804E+01  0.15679635112E+02  0.84460632315E+02  0.80419002446E+02 0. -1.
          1    1    1    2  501    0 -0.37998750169E+01  0.21399727443E+02 -0.46342047152E+03  0.46392986626E+03  0.00000000000E+00 0. -1.
         -2    1    1    2    0  502  0.24212959574E+02 -0.23358675723E+02  0.29388731709E+02  0.44672057198E+02  0.00000000000E+00 0.  1.
<mgrwt>
<rscale>  2 0.69185289E+02</rscale>
<asrwt>0</asrwt>
<pdfrwt beam="1">  1       21 0.13439265E-01 0.69185289E+02</pdfrwt>
<pdfrwt beam="2">  1       21 0.77801130E-01 0.69185289E+02</pdfrwt>
<totfact> 0.74883882E+04</totfact>
</mgrwt>
</event>
<event>
 5    1  0.1590180E+000  0.8679968E+02  0.7546771E-02  0.1310792E+00
         21   -1    0    0  501  502  0.00000000000E+00  0.00000000000E+00  0.61963168662E+03  0.61963168662E+03  0.00000000000E+00 0. -1.
         21   -1    0    0  502  503 -0.00000000000E+00 -0.00000000000E+00 -0.14133785344E+03  0.14133785344E+03  0.00000000000E+00 0.  1.
         24    1    1    2    0    0 -0.12010815763E+02 -0.18448217263E+02 -0.70025298281E+02  0.10888229778E+03  0.80419002446E+02 0.  0.
          1    1    1    2  501    0  0.10615004755E+02  0.53802678474E+02  0.59275452074E+03  0.59528592155E+03  0.00000000000E+00 0. -1.
         -2    1    1    2    0  503  0.13958110081E+01 -0.35354461211E+02 -0.44435389279E+02  0.56801320726E+02  0.00000000000E+00 0.  1.
<mgrwt>
<rscale>  2 0.86799680E+02</rscale>
<asrwt>0</asrwt>
<pdfrwt beam="1">  1       21 0.95327950E-01 0.86799680E+02</pdfrwt>
<pdfrwt beam="2">  1       21 0.21744285E-01 0.86799680E+02</pdfrwt>
<totfact> 0.19700720E+04</totfact>
</mgrwt>
</event>
<event>
 5    1  0.1590180E+000  0.1125848E+03  0.7546771E-02  0.1255857E+00
         21   -1    0    0  501  502  0.00000000000E+00  0.00000000000E+00  0.89199601705E+02  0.89199601705E+02  0.00000000000E+00 0. -1.
         21   -1    0    0  502  503 -0.00000000000E+00 -0.00000000000E+00 -0.23990803767E+03  0.23990803767E+03  0.00000000000E+00 0. -1.
         24    1    1    2    0    0 -0.62445843031E+02  0.37521508097E+02 -0.24223273948E+02  0.11118151751E+03  0.80419002446E+02 0. -1.
          1    1    1    2  501    0  0.76601439389E+02 -0.48592555993E-01  0.85478117245E+01  0.77076896428E+02  0.00000000000E+00 0. -1.
         -2    1    1    2    0  503 -0.14155596358E+02 -0.37472915541E+02 -0.13503297374E+03  0.14084922543E+03  0.00000000000E+00 0.  1.
<mgrwt>
<rscale>  2 0.11258479E+03</rscale>
<asrwt>0</asrwt>
<pdfrwt beam="1">  1       21 0.13723016E-01 0.11258479E+03</pdfrwt>
<pdfrwt beam="2">  1       21 0.36908929E-01 0.11258479E+03</pdfrwt>
<totfact> 0.33133790E+05</totfact>
</mgrwt>
</event>
<event>
 5    1  0.1590180E+000  0.1282772E+03  0.7546771E-02  0.1230035E+00
         21   -1    0    0  503  502  0.00000000000E+00  0.00000000000E+00  0.41112288740E+03  0.41112288740E+03  0.00000000000E+00 0.  1.
         21   -1    0    0  501  503 -0.00000000000E+00 -0.00000000000E+00 -0.47908038501E+02  0.47908038501E+02  0.00000000000E+00 0. -1.
         24    1    1    2    0    0 -0.14162433575E+02 -0.88057777792E+02  0.89810831421E+02  0.14995982178E+03  0.80419002446E+02 0.  0.
          1    1    1    2  501    0 -0.38778302092E+02  0.66340462228E+01  0.39243019626E+02  0.55567813272E+02  0.00000000000E+00 0. -1.
         -2    1    1    2    0  502  0.52940735667E+02  0.81423731569E+02  0.23416099786E+03  0.25350329085E+03  0.00000000000E+00 0.  1.
<mgrwt>
<rscale>  2 0.12827722E+03</rscale>
<asrwt>0</asrwt>
<pdfrwt beam="1">  1       21 0.63249673E-01 0.12827722E+03</pdfrwt>
<pdfrwt beam="2">  1       21 0.73704677E-02 0.12827722E+03</pdfrwt>
<totfact> 0.32437313E+05</totfact>
</mgrwt>
</event>
<event>
 5    1  0.1590180E+000  0.1120639E+03  0.7546771E-02  0.1256795E+00
         21   -1    0    0  501  502  0.00000000000E+00  0.00000000000E+00  0.18659503355E+03  0.18659503355E+03  0.00000000000E+00 0. -1.
         21   -1    0    0  502  503 -0.00000000000E+00 -0.00000000000E+00 -0.18420240926E+03  0.18420240926E+03  0.00000000000E+00 0.  1.
         24    1    1    2    0    0 -0.65680164005E+02 -0.57812227259E+02 -0.23339073573E+01  0.11886463159E+03  0.80419002446E+02 0. -1.
          1    1    1    2  501    0  0.42662442053E+02  0.67871557082E+02  0.11424771264E+03  0.13956780455E+03  0.00000000000E+00 0. -1.
         -2    1    1    2    0  503  0.23017721953E+02 -0.10059329822E+02 -0.10952118099E+03  0.11236500668E+03  0.00000000000E+00 0.  1.
<mgrwt>
<rscale>  2 0.11206391E+03</rscale>
<asrwt>0</asrwt>
<pdfrwt beam="1">  1       21 0.28706928E-01 0.11206391E+03</pdfrwt>
<pdfrwt beam="2">  1       21 0.28338832E-01 0.11206391E+03</pdfrwt>
<totfact> 0.14195053E+05</totfact>
</mgrwt>
</event>
<event>
 5    1  0.1590180E+000  0.9404627E+02  0.7546771E-02  0.1293339E+00
         21   -1    0    0  503  502  0.00000000000E+00  0.00000000000E+00  0.62511299044E+02  0.62511299044E+02  0.00000000000E+00 0. -1.
         21   -1    0    0  501  503 -0.00000000000E+00 -0.00000000000E+00 -0.21851132009E+03  0.21851132009E+03  0.00000000000E+00 0.  1.
         24    1    1    2    0    0 -0.33025309249E+02  0.49332614590E+02  0.17883962900E+01  0.99973957754E+02  0.80419002446E+02 0. -1.
          1    1    1    2  501    0  0.83061130603E+01 -0.60458892215E+02 -0.11886804693E+03  0.13361841842E+03  0.00000000000E+00 0. -1.
         -2    1    1    2    0  502  0.24719196189E+02  0.11126277625E+02 -0.38920370409E+02  0.47430242955E+02  0.00000000000E+00 0.  1.
<mgrwt>
<rscale>  2 0.94046275E+02</rscale>
<asrwt>0</asrwt>
<pdfrwt beam="1">  1       21 0.96171229E-02 0.94046275E+02</pdfrwt>
<pdfrwt beam="2">  1       21 0.33617126E-01 0.94046275E+02</pdfrwt>
<totfact> 0.74308297E+05</totfact>
</mgrwt>
</event>
<event>
 5    1  0.1590180E+000  0.7095506E+02  0.7546771E-02  0.1356875E+00
         21   -1    0    0  503  502  0.00000000000E+00  0.00000000000E+00  0.37994063206E+02  0.37994063206E+02  0.00000000000E+00 0.  1.
         21   -1    0    0  501  503 -0.00000000000E+00 -0.00000000000E+00 -0.20620149567E+03  0.20620149567E+03  0.00000000000E+00 0.  1.
         24    1    1    2    0    0  0.24808621797E+02  0.11322312599E+02 -0.13660923540E+03  0.16085074333E+03  0.80419002446E+02 0.  1.
          1    1    1    2  501    0 -0.13669809267E+02  0.19730393535E+02 -0.42322530302E+02  0.48655407569E+02  0.00000000000E+00 0. -1.
         -2    1    1    2    0  502 -0.11138812529E+02 -0.31052706135E+02  0.10724333236E+02  0.34689407983E+02  0.00000000000E+00 0.  1.
<mgrwt>
<rscale>  2 0.70955057E+02</rscale>
<asrwt>0</asrwt>
<pdfrwt beam="1">  1       21 0.58452404E-02 0.70955057E+02</pdfrwt>
<pdfrwt beam="2">  1       21 0.31723308E-01 0.70955057E+02</pdfrwt>
<totfact> 0.19192985E+06</totfact>
</mgrwt>
</event>
<event>
 5    1  0.1590180E+000  0.1806018E+03  0.7546771E-02  0.1167222E+00
         21   -1    0    0  503  502  0.00000000000E+00  0.00000000000E+00  0.15940343626E+03  0.15940343626E+03  0.00000000000E+00 0.  1.
         21   -1    0    0  501  503 -0.00000000000E+00 -0.00000000000E+00 -0.26408897366E+03  0.26408897366E+03  0.00000000000E+00 0.  1.
         24    1    1    2    0    0 -0.95825636550E+02  0.98425893368E+02 -0.65102178940E+02  0.17197592495E+03  0.80419002446E+02 0.  1.
          1    1    1    2  501    0 -0.35530020424E+02  0.35867755990E+01 -0.73556219787E+02  0.81766526036E+02  0.00000000000E+00 0. -1.
         -2    1    1    2    0  502  0.13135565697E+03 -0.10201266897E+03  0.33972861327E+02  0.16974995893E+03  0.00000000000E+00 0.  1.
<mgrwt>
<rscale>  2 0.18060179E+03</rscale>
<asrwt>0</asrwt>
<pdfrwt beam="1">  1       21 0.24523606E-01 0.18060179E+03</pdfrwt>
<pdfrwt beam="2">  1       21 0.40629073E-01 0.18060179E+03</pdfrwt>
<totfact> 0.92134617E+04</totfact>
</mgrwt>
</event>
<event>
 5    1  0.1590180E+000  0.6812912E+02  0.7546771E-02  0.1366573E+00
         21   -1    0    0  501  502  0.00000000000E+00  0.00000000000E+00  0.26968846932E+02  0.26968846932E+02  0.00000000000E+00 0. -1.
         21   -1    0    0  502  503 -0.00000000000E+00 -0.00000000000E+00 -0.40229608214E+03  0.40229608214E+03  0.00000000000E+00 0. -1.
         24    1    1    2    0    0  0.12514986722E+02 -0.32616186939E+02 -0.35519003876E+03  0.36585191011E+03  0.80419002446E+02 0. -1.
          1    1    1    2  501    0  0.81730862673E+01  0.25377318083E+02  0.79173103856E+01  0.27811713647E+02  0.00000000000E+00 0. -1.
         -2    1    1    2    0  503 -0.20688072990E+02  0.72388688558E+01 -0.28054506825E+02  0.35601305307E+02  0.00000000000E+00 0.  1.
<mgrwt>
<rscale>  2 0.68129116E+02</rscale>
<asrwt>0</asrwt>
<pdfrwt beam="1">  1       21 0.41490534E-02 0.68129116E+02</pdfrwt>
<pdfrwt beam="2">  1       21 0.61891705E-01 0.68129116E+02</pdfrwt>
<totfact> 0.89044155E+05</totfact>
</mgrwt>
</event>
<event>
 5    1  0.1590180E+000  0.7724749E+02  0.7546771E-02  0.1337049E+00
         21   -1    0    0  503  502  0.00000000000E+00  0.00000000000E+00  0.10697309863E+02  0.10697309863E+02  0.00000000000E+00 0. -1.
         21   -1    0    0  501  503 -0.00000000000E+00 -0.00000000000E+00 -0.89588489365E+03  0.89588489365E+03  0.00000000000E+00 0. -1.
         24    1    1    2    0    0 -0.55535745823E+01  0.37745663132E+02 -0.27299959585E+03  0.28714381861E+03  0.80419002446E+02 0. -1.
          1    1    1    2  501    0  0.24664318810E+02 -0.17446533308E+01 -0.49016160603E+03  0.49078485354E+03  0.00000000000E+00 0. -1.
         -2    1    1    2    0  502 -0.19110744228E+02 -0.36001009801E+02 -0.12202638190E+03  0.12865353136E+03  0.00000000000E+00 0.  1.
<mgrwt>
<rscale>  2 0.77247493E+02</rscale>
<asrwt>0</asrwt>
<pdfrwt beam="1">  1       21 0.16457399E-02 0.77247493E+02</pdfrwt>
<pdfrwt beam="2">  1       21 0.13782846E+00 0.77247493E+02</pdfrwt>
<totfact> 0.64313342E+05</totfact>
</mgrwt>
</event>
<event>
 5    1  0.1590180E+000  0.7940460E+02  0.7546771E-02  0.1330750E+00
         21   -1    0    0  503  502  0.00000000000E+00  0.00000000000E+00  0.11814365754E+04  0.11814365754E+04  0.00000000000E+00 0.  1.
         21   -1    0    0  501  503 -0.00000000000E+00 -0.00000000000E+00 -0.21119477477E+02  0.21119477477E+02  0.00000000000E+00 0. -1.
         24    1    1    2    0    0 -0.47344521241E+02  0.12174027189E+01  0.24658709495E+03  0.26365772720E+03  0.80419002446E+02 0.  0.
          1    1    1    2  501    0  0.36532957173E+02 -0.21576642491E+02  0.23757700819E+02  0.48627531391E+02  0.00000000000E+00 0. -1.
         -2    1    1    2    0  502  0.10811564068E+02  0.20359239773E+02  0.88997230216E+03  0.89027079430E+03  0.00000000000E+00 0.  1.
<mgrwt>
<rscale>  2 0.79404596E+02</rscale>
<asrwt>0</asrwt>
<pdfrwt beam="1">  1       21 0.18175942E+00 0.79404596E+02</pdfrwt>
<pdfrwt beam="2">  1       21 0.32491513E-02 0.79404596E+02</pdfrwt>
<totfact> 0.10569233E+05</totfact>
</mgrwt>
</event>
<event>
 5    1  0.1590180E+000  0.1080202E+03  0.7546771E-02  0.1264281E+00
         21   -1    0    0  501  502  0.00000000000E+00  0.00000000000E+00  0.39417955229E+02  0.39417955229E+02  0.00000000000E+00 0.  1.
         21   -1    0    0  502  503 -0.00000000000E+00 -0.00000000000E+00 -0.31340986381E+03  0.31340986381E+03  0.00000000000E+00 0. -1.
         24    1    1    2    0    0 -0.44805915336E+02  0.19597358286E+02 -0.13997530680E+03  0.16867699597E+03  0.80419002446E+02 0.  0.
          1    1    1    2  501    0  0.48296339776E+02  0.39699962641E+02 -0.44578710459E+02  0.76784665758E+02  0.00000000000E+00 0. -1.
         -2    1    1    2    0  503 -0.34904244406E+01 -0.59297320927E+02 -0.89437891321E+02  0.10736615731E+03  0.00000000000E+00 0.  1.
<mgrwt>
<rscale>  2 0.10802018E+03</rscale>
<asrwt>0</asrwt>
<pdfrwt beam="1">  1       21 0.60643005E-02 0.10802018E+03</pdfrwt>
<pdfrwt beam="2">  1       21 0.48216905E-01 0.10802018E+03</pdfrwt>
<totfact> 0.79860594E+05</totfact>
</mgrwt>
</event>
<event>
 5    1  0.1590180E+000  0.8410227E+02  0.7546771E-02  0.1317797E+00
         21   -1    0    0  501  502  0.00000000000E+00  0.00000000000E+00  0.18189781014E+02  0.18189781014E+02  0.00000000000E+00 0. -1.
         21   -1    0    0  502  503 -0.00000000000E+00 -0.00000000000E+00 -0.55964147504E+03  0.55964147504E+03  0.00000000000E+00 0. -1.
         24    1    1    2    0    0 -0.46138703700E+02 -0.43232032524E+02 -0.15461226326E+03  0.18539136042E+03  0.80419002446E+02 0. -1.
          1    1    1    2  501    0  0.26889533734E+02  0.36867680291E+02 -0.25499765389E+03  0.25904840545E+03  0.00000000000E+00 0. -1.
         -2    1    1    2    0  503  0.19249169966E+02  0.63643522330E+01 -0.13184177688E+03  0.13339149018E+03  0.00000000000E+00 0.  1.
<mgrwt>
<rscale>  2 0.84102272E+02</rscale>
<asrwt>0</asrwt>
<pdfrwt beam="1">  1       21 0.27984278E-02 0.84102272E+02</pdfrwt>
<pdfrwt beam="2">  1       21 0.86098689E-01 0.84102272E+02</pdfrwt>
<totfact> 0.83042533E+05</totfact>
</mgrwt>
</event>
<event>
 5    1  0.1590180E+000  0.7845280E+02  0.7546771E-02  0.1333500E+00
         21   -1    0    0  503  502  0.00000000000E+00  0.00000000000E+00  0.18179842791E+02  0.18179842791E+02  0.00000000000E+00 0. -1.
         21   -1    0    0  501  503 -0.00000000000E+00 -0.00000000000E+00 -0.34304808606E+03  0.34304808606E+03  0.00000000000E+00 0.  1.
         24    1    1    2    0    0 -0.47957705006E+02  0.32212799513E+02 -0.20754164923E+03  0.22995294745E+03  0.80419002446E+02 0. -1.
          1    1    1    2  501    0  0.29501886511E+02 -0.21924420816E+02 -0.85579398421E+02  0.93139008851E+02  0.00000000000E+00 0. -1.
         -2    1    1    2    0  502  0.18455818495E+02 -0.10288378697E+02 -0.31747195616E+02  0.38135972546E+02  0.00000000000E+00 0.  1.
<mgrwt>
<rscale>  2 0.78452803E+02</rscale>
<asrwt>0</asrwt>
<pdfrwt beam="1">  1       21 0.27968990E-02 0.78452803E+02</pdfrwt>
<pdfrwt beam="2">  1       21 0.52776626E-01 0.78452803E+02</pdfrwt>
<totfact> 0.23622949E+06</totfact>
</mgrwt>
</event>
<event>
 5    1  0.1590180E+000  0.1214983E+03  0.7546771E-02  0.1240646E+00
         21   -1    0    0  501  502  0.00000000000E+00  0.00000000000E+00  0.42533694949E+03  0.42533694949E+03  0.00000000000E+00 0. -1.
         21   -1    0    0  502  503 -0.00000000000E+00 -0.00000000000E+00 -0.92468914636E+02  0.92468914636E+02  0.00000000000E+00 0. -1.
         24    1    1    2    0    0  0.71774972331E+02  0.50095074813E+02 -0.20201863382E+02  0.12056738536E+03  0.80419002446E+02 0. -1.
          1    1    1    2  501    0 -0.86405687581E+02 -0.17157148656E+02  0.35017006186E+03  0.36108085358E+03  0.00000000000E+00 0. -1.
         -2    1    1    2    0  503  0.14630715250E+02 -0.32937926158E+02  0.28998363731E+01  0.36157625188E+02  0.00000000000E+00 0.  1.
<mgrwt>
<rscale>  2 0.12149832E+03</rscale>
<asrwt>0</asrwt>
<pdfrwt beam="1">  1       21 0.65436452E-01 0.12149832E+03</pdfrwt>
<pdfrwt beam="2">  1       21 0.14225987E-01 0.12149832E+03</pdfrwt>
<totfact> 0.95505889E+04</totfact>
</mgrwt>
</event>
<event>
 5    1  0.1590180E+000  0.1308944E+03  0.7546771E-02  0.1226135E+00
         21   -1    0    0  503  502  0.00000000000E+00  0.00000000000E+00  0.16392095769E+03  0.16392095769E+03  0.00000000000E+00 0.  1.
         21   -1    0    0  501  503 -0.00000000000E+00 -0.00000000000E+00 -0.15134065455E+03  0.15134065455E+03  0.00000000000E+00 0. -1.
         24    1    1    2    0    0  0.14769243165E+02  0.77151604673E+01  0.37771571942E+02  0.90396691566E+02  0.80419002446E+02 0.  1.
          1    1    1    2  501    0 -0.90434523235E+02  0.29785367908E+02 -0.79855875891E+02  0.12426798481E+03  0.00000000000E+00 0. -1.
         -2    1    1    2    0  502  0.75665280070E+02 -0.37500528375E+02  0.54664607092E+02  0.10059693586E+03  0.00000000000E+00 0.  1.
<mgrwt>
<rscale>  2 0.13089440E+03</rscale>
<asrwt>0</asrwt>
<pdfrwt beam="1">  1       21 0.25218609E-01 0.13089440E+03</pdfrwt>
<pdfrwt beam="2">  1       21 0.23283177E-01 0.13089440E+03</pdfrwt>
<totfact> 0.26203268E+05</totfact>
</mgrwt>
</event>
<event>
 5    1  0.1590180E+000  0.9300902E+02  0.7546771E-02  0.1295724E+00
         21   -1    0    0  503  502  0.00000000000E+00  0.00000000000E+00  0.15670838219E+03  0.15670838219E+03  0.00000000000E+00 0.  1.
         21   -1    0    0  501  503 -0.00000000000E+00 -0.00000000000E+00 -0.56596378717E+02  0.56596378717E+02  0.00000000000E+00 0. -1.
         24    1    1    2    0    0  0.22099105872E+02 -0.57018625376E+02  0.37588297554E+02  0.10779420294E+03  0.80419002446E+02 0. -1.
          1    1    1    2  501    0 -0.38252820383E+02  0.17050622276E+02  0.30791117636E+02  0.51981678624E+02  0.00000000000E+00 0. -1.
         -2    1    1    2    0  502  0.16153714512E+02  0.39968003101E+02  0.31732588280E+02  0.53528879340E+02  0.00000000000E+00 0.  1.
<mgrwt>
<rscale>  2 0.93009023E+02</rscale>
<asrwt>0</asrwt>
<pdfrwt beam="1">  1       21 0.24108982E-01 0.93009023E+02</pdfrwt>
<pdfrwt beam="2">  1       21 0.87071353E-02 0.93009023E+02</pdfrwt>
<totfact> 0.16588267E+06</totfact>
</mgrwt>
</event>
<event>
 5    1  0.1590180E+000  0.8191117E+02  0.7546771E-02  0.1323714E+00
         21   -1    0    0  503  502  0.00000000000E+00  0.00000000000E+00  0.19728074017E+03  0.19728074017E+03  0.00000000000E+00 0. -1.
         21   -1    0    0  501  503 -0.00000000000E+00 -0.00000000000E+00 -0.54190092406E+02  0.54190092406E+02  0.00000000000E+00 0. -1.
         24    1    1    2    0    0 -0.11463388942E+02  0.29748211039E+02  0.13788505828E+03  0.16277552211E+03  0.80419002446E+02 0. -1.
          1    1    1    2  501    0 -0.21581875258E+02  0.11505902169E+02 -0.18598094160E+02  0.30725432963E+02  0.00000000000E+00 0. -1.
         -2    1    1    2    0  502  0.33045264200E+02 -0.41254113208E+02  0.23803683637E+02  0.57969877500E+02  0.00000000000E+00 0.  1.
<mgrwt>
<rscale>  2 0.81911171E+02</rscale>
<asrwt>0</asrwt>
<pdfrwt beam="1">  1       21 0.30350883E-01 0.81911171E+02</pdfrwt>
<pdfrwt beam="2">  1       21 0.83369374E-02 0.81911171E+02</pdfrwt>
<totfact> 0.11532472E+06</totfact>
</mgrwt>
</event>
<event>
 5    1  0.1590180E+000  0.7967153E+02  0.7546771E-02  0.1329986E+00
         21   -1    0    0  503  502  0.00000000000E+00  0.00000000000E+00  0.44828242223E+02  0.44828242223E+02  0.00000000000E+00 0. -1.
         21   -1    0    0  501  503 -0.00000000000E+00 -0.00000000000E+00 -0.37729031291E+03  0.37729031291E+03  0.00000000000E+00 0.  1.
         24    1    1    2    0    0  0.24811770311E+02 -0.30049254837E+02 -0.14847814554E+03  0.17329615495E+03  0.80419002446E+02 0.  0.
          1    1    1    2  501    0  0.18523586501E+02  0.15844781570E+02 -0.19924663685E+03  0.20073216647E+03  0.00000000000E+00 0. -1.
         -2    1    1    2    0  502 -0.43335356812E+02  0.14204473267E+02  0.15262711699E+02  0.48090233720E+02  0.00000000000E+00 0.  1.
<mgrwt>
<rscale>  2 0.79671527E+02</rscale>
<asrwt>0</asrwt>
<pdfrwt beam="1">  1       21 0.68966527E-02 0.79671527E+02</pdfrwt>
<pdfrwt beam="2">  1       21 0.58044663E-01 0.79671527E+02</pdfrwt>
<totfact> 0.43835351E+05</totfact>
</mgrwt>
</event>
<event>
 5    1  0.1590180E+000  0.1483215E+03  0.7546771E-02  0.1202551E+00
         21   -1    0    0  501  502  0.00000000000E+00  0.00000000000E+00  0.77863625262E+03  0.77863625262E+03  0.00000000000E+00 0. -1.
         21   -1    0    0  502  503 -0.00000000000E+00 -0.00000000000E+00 -0.46277502287E+02  0.46277502287E+02  0.00000000000E+00 0.  1.
         24    1    1    2    0    0  0.87616882448E+02  0.44124016272E+02  0.21309168440E+03  0.24798977563E+03  0.80419002446E+02 0.  1.
          1    1    1    2  501    0 -0.25515703231E+02 -0.89380430645E+02  0.48316314634E+03  0.49202290442E+03  0.00000000000E+00 0. -1.
         -2    1    1    2    0  503 -0.62101179216E+02  0.45256414373E+02  0.36103919594E+02  0.84901074858E+02  0.00000000000E+00 0.  1.
<mgrwt>
<rscale>  2 0.14832147E+03</rscale>
<asrwt>0</asrwt>
<pdfrwt beam="1">  1       21 0.11979018E+00 0.14832147E+03</pdfrwt>
<pdfrwt beam="2">  1       21 0.71196163E-02 0.14832147E+03</pdfrwt>
<totfact> 0.79578720E+04</totfact>
</mgrwt>
</event>
<event>
 5    1  0.1590180E+000  0.8545408E+02  0.7546771E-02  0.1314249E+00
         21   -1    0    0  503  502  0.00000000000E+00  0.00000000000E+00  0.62658899629E+02  0.62658899629E+02  0.00000000000E+00 0.  1.
         21   -1    0    0  501  503 -0.00000000000E+00 -0.00000000000E+00 -0.44392327484E+03  0.44392327484E+03  0.00000000000E+00 0. -1.
         24    1    1    2    0    0 -0.39710806685E+02  0.13294947620E+02 -0.11415671049E+03  0.14578296987E+03  0.80419002446E+02 0.  1.
          1    1    1    2  501    0  0.13630083748E+01  0.25589694481E+02 -0.29729576440E+03  0.29839815982E+03  0.00000000000E+00 0. -1.
         -2    1    1    2    0  502  0.38347798310E+02 -0.38884642101E+02  0.30188099682E+02  0.62401044774E+02  0.00000000000E+00 0.  1.
<mgrwt>
<rscale>  2 0.85454079E+02</rscale>
<asrwt>0</asrwt>
<pdfrwt beam="1">  1       21 0.96398310E-02 0.85454079E+02</pdfrwt>
<pdfrwt beam="2">  1       21 0.68295886E-01 0.85454079E+02</pdfrwt>
<totfact> 0.17536469E+05</totfact>
</mgrwt>
</event>
<event>
 5    1  0.1590180E+000  0.1121611E+03  0.7546771E-02  0.1256619E+00
         21   -1    0    0  501  502  0.00000000000E+00  0.00000000000E+00  0.27978935937E+03  0.27978935937E+03  0.00000000000E+00 0. -1.
         21   -1    0    0  502  503 -0.00000000000E+00 -0.00000000000E+00 -0.75432540891E+02  0.75432540891E+02  0.00000000000E+00 0.  1.
         24    1    1    2    0    0  0.14004995012E+02 -0.32211074616E+02  0.48751353378E+02  0.10038726824E+03  0.80419002446E+02 0.  1.
          1    1    1    2  501    0  0.55057235846E+02  0.38554981300E+02  0.17105049606E+03  0.18378263793E+03  0.00000000000E+00 0. -1.
         -2    1    1    2    0  503 -0.69062230858E+02 -0.63439066836E+01 -0.15445030962E+02  0.71051994093E+02  0.00000000000E+00 0.  1.
<mgrwt>
<rscale>  2 0.11216114E+03</rscale>
<asrwt>0</asrwt>
<pdfrwt beam="1">  1       21 0.43044516E-01 0.11216114E+03</pdfrwt>
<pdfrwt beam="2">  1       21 0.11605006E-01 0.11216114E+03</pdfrwt>
<totfact> 0.32837608E+05</totfact>
</mgrwt>
</event>
<event>
 5    1  0.1590180E+000  0.9041616E+02  0.7546771E-02  0.1301847E+00
         21   -1    0    0  501  502  0.00000000000E+00  0.00000000000E+00  0.50700495911E+02  0.50700495911E+02  0.00000000000E+00 0. -1.
         21   -1    0    0  502  503 -0.00000000000E+00 -0.00000000000E+00 -0.34320226138E+03  0.34320226138E+03  0.00000000000E+00 0.  1.
         24    1    1    2    0    0  0.15116841072E+02 -0.69531473240E+02 -0.11831801428E+03  0.15977957665E+03  0.80419002446E+02 0.  1.
          1    1    1    2  501    0  0.39510548554E+01  0.19816788171E+02  0.22568851793E+02  0.30293051994E+02  0.00000000000E+00 0. -1.
         -2    1    1    2    0  503 -0.19067895928E+02  0.49714685069E+02 -0.19675260298E+03  0.20383012865E+03  0.00000000000E+00 0.  1.
<mgrwt>
<rscale>  2 0.90416164E+02</rscale>
<asrwt>0</asrwt>
<pdfrwt beam="1">  1       21 0.78000766E-02 0.90416164E+02</pdfrwt>
<pdfrwt beam="2">  1       21 0.52800346E-01 0.90416164E+02</pdfrwt>
<totfact> 0.43251896E+05</totfact>
</mgrwt>
</event>
<event>
 5    1  0.1590180E+000  0.1344569E+03  0.7546771E-02  0.1220988E+00
         21   -1    0    0  503  502  0.00000000000E+00  0.00000000000E+00  0.48713022728E+03  0.48713022728E+03  0.00000000000E+00 0.  1.
         21   -1    0    0  501  503 -0.00000000000E+00 -0.00000000000E+00 -0.34687377368E+03  0.34687377368E+03  0.00000000000E+00 0. -1.
         24    1    1    2    0    0 -0.26360712524E+02 -0.94023790349E+02  0.14966935294E+03  0.19596808792E+03  0.80419002446E+02 0.  1.
          1    1    1    2  501    0  0.53782400077E+02  0.10891111944E+02 -0.31521265566E+03  0.31995340468E+03  0.00000000000E+00 0. -1.
         -2    1    1    2    0  502 -0.27421687553E+02  0.83132678406E+02  0.30579975632E+03  0.31808250837E+03  0.00000000000E+00 0.  1.
<mgrwt>
<rscale>  2 0.13445693E+03</rscale>
<asrwt>0</asrwt>
<pdfrwt beam="1">  1       21 0.74943112E-01 0.13445693E+03</pdfrwt>
<pdfrwt beam="2">  1       21 0.53365196E-01 0.13445693E+03</pdfrwt>
<totfact> 0.55651437E+03</totfact>
</mgrwt>
</event>
<event>
 5    1  0.1590180E+000  0.9118546E+02  0.7546771E-02  0.1300006E+00
         21   -1    0    0  503  502  0.00000000000E+00  0.00000000000E+00  0.17419226673E+03  0.17419226673E+03  0.00000000000E+00 0. -1.
         21   -1    0    0  501  503 -0.00000000000E+00 -0.00000000000E+00 -0.10104887947E+03  0.10104887947E+03  0.00000000000E+00 0.  1.
         24    1    1    2    0    0  0.74609966656E+01  0.12476664761E+02  0.55770660577E+02  0.98938951735E+02  0.80419002446E+02 0. -1.
          1    1    1    2  501    0  0.11276736719E+02  0.41765517678E+02 -0.63683294279E+02  0.76987565412E+02  0.00000000000E+00 0. -1.
         -2    1    1    2    0  502 -0.18737733384E+02 -0.54242182439E+02  0.81056020971E+02  0.99314629052E+02  0.00000000000E+00 0.  1.
<mgrwt>
<rscale>  2 0.91185464E+02</rscale>
<asrwt>0</asrwt>
<pdfrwt beam="1">  1       21 0.26798810E-01 0.91185464E+02</pdfrwt>
<pdfrwt beam="2">  1       21 0.15545981E-01 0.91185464E+02</pdfrwt>
<totfact> 0.49232857E+05</totfact>
</mgrwt>
</event>
<event>
 5    1  0.1590180E+000  0.8105648E+02  0.7546771E-02  0.1326080E+00
         21   -1    0    0  503  502  0.00000000000E+00  0.00000000000E+00  0.21848646049E+03  0.21848646049E+03  0.00000000000E+00 0.  1.
         21   -1    0    0  501  503 -0.00000000000E+00 -0.00000000000E+00 -0.52195692764E+02  0.52195692764E+02  0.00000000000E+00 0.  1.
         24    1    1    2    0    0  0.10904214410E+02 -0.53825850522E+02  0.17866124257E+03  0.20347771285E+03  0.80419002446E+02 0.  1.
          1    1    1    2  501    0  0.12411808555E+02  0.22270195231E+02 -0.11475924300E+02  0.27959102736E+02  0.00000000000E+00 0. -1.
         -2    1    1    2    0  502 -0.23316022965E+02  0.31555655291E+02 -0.89455054369E+00  0.39245337665E+02  0.00000000000E+00 0.  1.
<mgrwt>
<rscale>  2 0.81056483E+02</rscale>
<asrwt>0</asrwt>
<pdfrwt beam="1">  1       21 0.33613301E-01 0.81056483E+02</pdfrwt>
<pdfrwt beam="2">  1       21 0.80301067E-02 0.81056483E+02</pdfrwt>
<totfact> 0.10105478E+06</totfact>
</mgrwt>
</event>
<event>
 5    1  0.1590180E+000  0.9874007E+02  0.7546771E-02  0.1282968E+00
         21   -1    0    0  503  502  0.00000000000E+00  0.00000000000E+00  0.40197917435E+02  0.40197917435E+02  0.00000000000E+00 0.  1.
         21   -1    0    0  501  503 -0.00000000000E+00 -0.00000000000E+00 -0.83102341403E+03  0.83102341403E+03  0.00000000000E+00 0. -1.
         24    1    1    2    0    0  0.51099034194E+02  0.54961274521E+02 -0.39568190256E+03  0.41068629994E+03  0.80419002446E+02 0.  1.
          1    1    1    2  501    0 -0.16061972029E+01 -0.33500484418E+02 -0.40441102099E+03  0.40579937928E+03  0.00000000000E+00 0. -1.
         -2    1    1    2    0  502 -0.49492836991E+02 -0.21460790103E+02  0.92674269460E+01  0.54735652252E+02  0.00000000000E+00 0.  1.
<mgrwt>
<rscale>  2 0.98740069E+02</rscale>
<asrwt>0</asrwt>
<pdfrwt beam="1">  1       21 0.61842954E-02 0.98740069E+02</pdfrwt>
<pdfrwt beam="2">  1       21 0.12784975E+00 0.98740069E+02</pdfrwt>
<totfact> 0.88583105E+04</totfact>
</mgrwt>
</event>
<event>
 5    1  0.1590180E+000  0.7377301E+02  0.7546771E-02  0.1347713E+00
         21   -1    0    0  501  502  0.00000000000E+00  0.00000000000E+00  0.30867144135E+03  0.30867144135E+03  0.00000000000E+00 0.  1.
         21   -1    0    0  502  503 -0.00000000000E+00 -0.00000000000E+00 -0.11498362919E+03  0.11498362919E+03  0.00000000000E+00 0.  1.
         24    1    1    2    0    0 -0.43516297797E+01 -0.20337481362E+02  0.16170290570E+03  0.18178997633E+03  0.80419002446E+02 0.  1.
          1    1    1    2  501    0  0.10329052386E+02  0.41357480639E+02  0.13240333377E+03  0.13909627357E+03  0.00000000000E+00 0. -1.
         -2    1    1    2    0  503 -0.59774226066E+01 -0.21019999276E+02 -0.10041842731E+03  0.10276882064E+03  0.00000000000E+00 0.  1.
<mgrwt>
<rscale>  2 0.73773008E+02</rscale>
<asrwt>0</asrwt>
<pdfrwt beam="1">  1       21 0.47487914E-01 0.73773008E+02</pdfrwt>
<pdfrwt beam="2">  1       21 0.17689789E-01 0.73773008E+02</pdfrwt>
<totfact> 0.12872401E+05</totfact>
</mgrwt>
</event>
<event>
 5    1  0.1590180E+000  0.7170343E+02  0.7546771E-02  0.1354394E+00
         21   -1    0    0  501  502  0.00000000000E+00  0.00000000000E+00  0.20988029129E+03  0.20988029129E+03  0.00000000000E+00 0.  1.
         21   -1    0    0  502  503 -0.00000000000E+00 -0.00000000000E+00 -0.27317110272E+02  0.27317110272E+02  0.00000000000E+00 0. -1.
         24    1    1    2    0    0 -0.87266943110E+00  0.52532526847E+01  0.65230387717E+02  0.10368499241E+03  0.80419002446E+02 0. -1.
          1    1    1    2  501    0 -0.24636081271E+02  0.16196475280E+02  0.66306872307E+02  0.72566270588E+02  0.00000000000E+00 0. -1.
         -2    1    1    2    0  503  0.25508750702E+02 -0.21449727965E+02  0.51025920992E+02  0.60946138559E+02  0.00000000000E+00 0.  1.
<mgrwt>
<rscale>  2 0.71703427E+02</rscale>
<asrwt>0</asrwt>
<pdfrwt beam="1">  1       21 0.32289275E-01 0.71703427E+02</pdfrwt>
<pdfrwt beam="2">  1       21 0.42026325E-02 0.71703427E+02</pdfrwt>
<totfact> 0.32030066E+06</totfact>
</mgrwt>
</event>
<event>
 5    1  0.1590180E+000  0.7981115E+02  0.7546771E-02  0.1329588E+00
         21   -1    0    0  501  502  0.00000000000E+00  0.00000000000E+00  0.53144542262E+03  0.53144542262E+03  0.00000000000E+00 0. -1.
         21   -1    0    0  502  503 -0.00000000000E+00 -0.00000000000E+00 -0.25596047114E+02  0.25596047114E+02  0.00000000000E+00 0.  1.
         24    1    1    2    0    0 -0.18426172398E+02  0.49818881799E+02  0.40179391434E+03  0.41319125156E+03  0.80419002446E+02 0. -1.
          1    1    1    2  501    0  0.24186171627E+02 -0.16140629892E+02  0.10571663529E+03  0.10964259122E+03  0.00000000000E+00 0. -1.
         -2    1    1    2    0  503 -0.57599992294E+01 -0.33678251907E+02 -0.16611741229E+01  0.34207626958E+02  0.00000000000E+00 0.  1.
<mgrwt>
<rscale>  2 0.79811146E+02</rscale>
<asrwt>0</asrwt>
<pdfrwt beam="1">  1       21 0.81760826E-01 0.79811146E+02</pdfrwt>
<pdfrwt beam="2">  1       21 0.39378538E-02 0.79811146E+02</pdfrwt>
<totfact> 0.53398480E+05</totfact>
</mgrwt>
</event>
<event>
 5    1  0.1590180E+000  0.7940145E+02  0.7546771E-02  0.1330759E+00
         21   -1    0    0  501  502  0.00000000000E+00  0.00000000000E+00  0.40548553700E+02  0.40548553700E+02  0.00000000000E+00 0. -1.
         21   -1    0    0  502  503 -0.00000000000E+00 -0.00000000000E+00 -0.33739942879E+03  0.33739942879E+03  0.00000000000E+00 0.  1.
         24    1    1    2    0    0  0.32092011118E+02  0.49242967751E+02 -0.91130843864E+02  0.13500671727E+03  0.80419002446E+02 0. -1.
          1    1    1    2  501    0 -0.16801590802E+02 -0.19419229662E+02  0.77762402393E+01  0.26830390351E+02  0.00000000000E+00 0. -1.
         -2    1    1    2    0  503 -0.15290420317E+02 -0.29823738089E+02 -0.21349627146E+03  0.21611087486E+03  0.00000000000E+00 0.  1.
<mgrwt>
<rscale>  2 0.79401446E+02</rscale>
<asrwt>0</asrwt>
<pdfrwt beam="1">  1       21 0.62382387E-02 0.79401446E+02</pdfrwt>
<pdfrwt beam="2">  1       21 0.51907607E-01 0.79401446E+02</pdfrwt>
<totfact> 0.65354079E+05</totfact>
</mgrwt>
</event>
<event>
 5    1  0.1590180E+000  0.8820818E+02  0.7546771E-02  0.1307250E+00
         21   -1    0    0  503  502  0.00000000000E+00  0.00000000000E+00  0.38203880362E+03  0.38203880362E+03  0.00000000000E+00 0.  1.
         21   -1    0    0  501  503 -0.00000000000E+00 -0.00000000000E+00 -0.47665947225E+02  0.47665947225E+02  0.00000000000E+00 0. -1.
         24    1    1    2    0    0  0.24915771956E+02  0.45351416963E+02  0.15137099392E+02  0.96818874426E+02  0.80419002446E+02 0. -1.
          1    1    1    2  501    0 -0.43280034558E+02 -0.15955574137E+02  0.90896341471E+02  0.10193079334E+03  0.00000000000E+00 0. -1.
         -2    1    1    2    0  502  0.18364262602E+02 -0.29395842826E+02  0.22833941554E+03  0.23095508309E+03  0.00000000000E+00 0.  1.
<mgrwt>
<rscale>  2 0.88208184E+02</rscale>
<asrwt>0</asrwt>
<pdfrwt beam="1">  1       21 0.58775199E-01 0.88208184E+02</pdfrwt>
<pdfrwt beam="2">  1       21 0.73332229E-02 0.88208184E+02</pdfrwt>
<totfact> 0.38465466E+05</totfact>
</mgrwt>
</event>
<event>
 5    1  0.1590180E+000  0.6486732E+02  0.7546771E-02  0.1378471E+00
         21   -1    0    0  501  502  0.00000000000E+00  0.00000000000E+00  0.44025352210E+03  0.44025352210E+03  0.00000000000E+00 0.  1.
         21   -1    0    0  502  503 -0.00000000000E+00 -0.00000000000E+00 -0.38655631092E+02  0.38655631092E+02  0.00000000000E+00 0.  1.
         24    1    1    2    0    0 -0.21780989959E+02  0.13427131052E+01  0.13380876778E+03  0.15763317129E+03  0.80419002446E+02 0.  1.
          1    1    1    2  501    0  0.13248181299E+02  0.19677282565E+02  0.28914686405E+03  0.29011828406E+03  0.00000000000E+00 0. -1.
         -2    1    1    2    0  503  0.85328086598E+01 -0.21019995670E+02 -0.21357740823E+02  0.31157697840E+02  0.00000000000E+00 0.  1.
<mgrwt>
<rscale>  2 0.64867315E+02</rscale>
<asrwt>0</asrwt>
<pdfrwt beam="1">  1       21 0.67731308E-01 0.64867315E+02</pdfrwt>
<pdfrwt beam="2">  1       21 0.59470205E-02 0.64867315E+02</pdfrwt>
<totfact> 0.40636535E+05</totfact>
</mgrwt>
</event>
<event>
 5    1  0.1590180E+000  0.7366342E+02  0.7546771E-02  0.1348061E+00
         21   -1    0    0  501  502  0.00000000000E+00  0.00000000000E+00  0.35793639746E+02  0.35793639746E+02  0.00000000000E+00 0. -1.
         21   -1    0    0  502  503 -0.00000000000E+00 -0.00000000000E+00 -0.22939307280E+03  0.22939307280E+03  0.00000000000E+00 0. -1.
         24    1    1    2    0    0 -0.25735615085E+02  0.24499845362E+02 -0.16346314755E+03  0.18560706039E+03  0.80419002446E+02 0. -1.
          1    1    1    2  501    0  0.37170913404E+02 -0.59901348710E+01  0.52752314808E+01  0.38018240178E+02  0.00000000000E+00 0. -1.
         -2    1    1    2    0  503 -0.11435298319E+02 -0.18509710491E+02 -0.35411516988E+02  0.41561411977E+02  0.00000000000E+00 0.  1.
<mgrwt>
<rscale>  2 0.73663420E+02</rscale>
<asrwt>0</asrwt>
<pdfrwt beam="1">  1       21 0.55067137E-02 0.73663420E+02</pdfrwt>
<pdfrwt beam="2">  1       21 0.35291242E-01 0.73663420E+02</pdfrwt>
<totfact> 0.17301491E+06</totfact>
</mgrwt>
</event>
<event>
 5    1  0.1590180E+000  0.7808505E+02  0.7546771E-02  0.1334575E+00
         21   -1    0    0  501  502  0.00000000000E+00  0.00000000000E+00  0.12755862697E+03  0.12755862697E+03  0.00000000000E+00 0.  1.
         21   -1    0    0  502  503 -0.00000000000E+00 -0.00000000000E+00 -0.67390241370E+02  0.67390241370E+02  0.00000000000E+00 0.  1.
         24    1    1    2    0    0  0.27243481422E+02  0.29191942043E+02  0.72727460905E+02  0.11554599207E+03  0.80419002446E+02 0.  1.
          1    1    1    2  501    0  0.12934067022E+02 -0.22068665874E+02  0.15475096232E+02  0.29896399558E+02  0.00000000000E+00 0. -1.
         -2    1    1    2    0  503 -0.40177548445E+02 -0.71232761691E+01 -0.28034171536E+02  0.49506476708E+02  0.00000000000E+00 0.  1.
<mgrwt>
<rscale>  2 0.78085050E+02</rscale>
<asrwt>0</asrwt>
<pdfrwt beam="1">  1       21 0.19624404E-01 0.78085050E+02</pdfrwt>
<pdfrwt beam="2">  1       21 0.10367729E-01 0.78085050E+02</pdfrwt>
<totfact> 0.17822560E+06</totfact>
</mgrwt>
</event>
<event>
 5    1  0.1590180E+000  0.6913157E+02  0.7546771E-02  0.1363071E+00
         21   -1    0    0  503  502  0.00000000000E+00  0.00000000000E+00  0.44626984747E+02  0.44626984747E+02  0.00000000000E+00 0. -1.
         21   -1    0    0  501  503 -0.00000000000E+00 -0.00000000000E+00 -0.12999389810E+03  0.12999389810E+03  0.00000000000E+00 0.  1.
         24    1    1    2    0    0  0.32809394686E+02  0.79321388275E+01 -0.86011892259E+02  0.12249341521E+03  0.80419002446E+02 0.  1.
          1    1    1    2  501    0 -0.83945574968E+01 -0.21524770038E+02 -0.49528792335E+01  0.23628697244E+02  0.00000000000E+00 0. -1.
         -2    1    1    2    0  502 -0.24414837189E+02  0.13592631211E+02  0.55978581360E+01  0.28498770393E+02  0.00000000000E+00 0.  1.
<mgrwt>
<rscale>  2 0.69131565E+02</rscale>
<asrwt>0</asrwt>
<pdfrwt beam="1">  1       21 0.68656901E-02 0.69131565E+02</pdfrwt>
<pdfrwt beam="2">  1       21 0.19999061E-01 0.69131565E+02</pdfrwt>
<totfact> 0.34530490E+06</totfact>
</mgrwt>
</event>
<event>
 5    1  0.1590180E+000  0.1197953E+03  0.7546771E-02  0.1243435E+00
         21   -1    0    0  501  502  0.00000000000E+00  0.00000000000E+00  0.16761706735E+03  0.16761706735E+03  0.00000000000E+00 0.  1.
         21   -1    0    0  502  503 -0.00000000000E+00 -0.00000000000E+00 -0.93510632095E+02  0.93510632095E+02  0.00000000000E+00 0. -1.
         24    1    1    2    0    0  0.77737455342E+02 -0.28599650824E+02  0.25946951011E+01  0.11547727217E+03  0.80419002446E+02 0.  0.
          1    1    1    2  501    0 -0.93422956042E+02  0.22170814941E+01  0.66149151593E+02  0.11449224612E+03  0.00000000000E+00 0. -1.
         -2    1    1    2    0  503  0.15685500700E+02  0.26382569330E+02  0.53625885585E+01  0.31158181152E+02  0.00000000000E+00 0.  1.
<mgrwt>
<rscale>  2 0.11979531E+03</rscale>
<asrwt>0</asrwt>
<pdfrwt beam="1">  1       21 0.25787241E-01 0.11979531E+03</pdfrwt>
<pdfrwt beam="2">  1       21 0.14386251E-01 0.11979531E+03</pdfrwt>
<totfact> 0.60795079E+05</totfact>
</mgrwt>
</event>
<event>
 5    1  0.1590180E+000  0.7757017E+02  0.7546771E-02  0.1336092E+00
         21   -1    0    0  501  502  0.00000000000E+00  0.00000000000E+00  0.59556247603E+03  0.59556247603E+03  0.00000000000E+00 0. -1.
         21   -1    0    0  502  503 -0.00000000000E+00 -0.00000000000E+00 -0.20631787471E+02  0.20631787471E+02  0.00000000000E+00 0.  1.
         24    1    1    2    0    0  0.33747898709E+02 -0.40289476833E+00  0.51834335550E+03  0.52562927348E+03  0.80419002446E+02 0. -1.
          1    1    1    2  501    0 -0.22049758311E+02 -0.28913631777E+02  0.42689302498E+02  0.56076434372E+02  0.00000000000E+00 0. -1.
         -2    1    1    2    0  503 -0.11698140398E+02  0.29316526545E+02  0.13898030561E+02  0.34488555651E+02  0.00000000000E+00 0.  1.
<mgrwt>
<rscale>  2 0.77570166E+02</rscale>
<asrwt>0</asrwt>
<pdfrwt beam="1">  1       21 0.91624983E-01 0.77570166E+02</pdfrwt>
<pdfrwt beam="2">  1       21 0.31741216E-02 0.77570166E+02</pdfrwt>
<totfact> 0.58862957E+05</totfact>
</mgrwt>
</event>
<event>
 5    1  0.1590180E+000  0.9051081E+02  0.7546771E-02  0.1301619E+00
         21   -1    0    0  503  502  0.00000000000E+00  0.00000000000E+00  0.10468338029E+04  0.10468338029E+04  0.00000000000E+00 0.  1.
         21   -1    0    0  501  503 -0.00000000000E+00 -0.00000000000E+00 -0.15086199760E+03  0.15086199760E+03  0.00000000000E+00 0. -1.
         24    1    1    2    0    0 -0.46490391222E+02  0.49476384841E+02  0.39830479083E+02  0.11252978340E+03  0.80419002446E+02 0.  1.
          1    1    1    2  501    0  0.26792795184E+02 -0.51671631535E+01 -0.11227158247E+03  0.11553987052E+03  0.00000000000E+00 0. -1.
         -2    1    1    2    0  502  0.19697596039E+02 -0.44309221687E+02  0.96841290869E+03  0.96962614658E+03  0.00000000000E+00 0.  1.
<mgrwt>
<rscale>  2 0.90510809E+02</rscale>
<asrwt>0</asrwt>
<pdfrwt beam="1">  1       21 0.16105135E+00 0.90510809E+02</pdfrwt>
<pdfrwt beam="2">  1       21 0.23209539E-01 0.90510809E+02</pdfrwt>
<totfact> 0.48537914E+03</totfact>
</mgrwt>
</event>
<event>
 5    1  0.1590180E+000  0.8684216E+02  0.7546771E-02  0.1310684E+00
         21   -1    0    0  501  502  0.00000000000E+00  0.00000000000E+00  0.36525525443E+02  0.36525525443E+02  0.00000000000E+00 0.  1.
         21   -1    0    0  502  503 -0.00000000000E+00 -0.00000000000E+00 -0.75590555046E+03  0.75590555046E+03  0.00000000000E+00 0.  1.
         24    1    1    2    0    0  0.47160914660E+02  0.20361380979E+02 -0.11408590535E+03  0.14873314177E+03  0.80419002446E+02 0.  1.
          1    1    1    2  501    0 -0.77822675944E+01  0.20248230131E+02  0.11338028125E+02  0.24476629550E+02  0.00000000000E+00 0. -1.
         -2    1    1    2    0  503 -0.39378647066E+02 -0.40609611111E+02 -0.61663214780E+03  0.61922130459E+03  0.00000000000E+00 0.  1.
<mgrwt>
<rscale>  2 0.86842163E+02</rscale>
<asrwt>0</asrwt>
<pdfrwt beam="1">  1       21 0.56193121E-02 0.86842163E+02</pdfrwt>
<pdfrwt beam="2">  1       21 0.11629315E+00 0.86842163E+02</pdfrwt>
<totfact> 0.13180612E+05</totfact>
</mgrwt>
</event>
<event>
 5    1  0.1590180E+000  0.7458444E+02  0.7546771E-02  0.1345163E+00
         21   -1    0    0  501  502  0.00000000000E+00  0.00000000000E+00  0.13425807868E+03  0.13425807868E+03  0.00000000000E+00 0. -1.
         21   -1    0    0  502  503 -0.00000000000E+00 -0.00000000000E+00 -0.97879947878E+02  0.97879947878E+02  0.00000000000E+00 0. -1.
         24    1    1    2    0    0  0.33384532942E+02 -0.36597862777E+02 -0.50164302851E+02  0.10694673363E+03  0.80419002446E+02 0. -1.
          1    1    1    2  501    0 -0.28282096366E+02  0.14013559235E+02  0.95335220813E+02  0.10042440513E+03  0.00000000000E+00 0. -1.
         -2    1    1    2    0  503 -0.51024365759E+01  0.22584303543E+02 -0.87927871572E+01  0.24766887804E+02  0.00000000000E+00 0.  1.
<mgrwt>
<rscale>  2 0.74584440E+02</rscale>
<asrwt>0</asrwt>
<pdfrwt beam="1">  1       21 0.20655089E-01 0.74584440E+02</pdfrwt>
<pdfrwt beam="2">  1       21 0.15058454E-01 0.74584440E+02</pdfrwt>
<totfact> 0.84304754E+05</totfact>
</mgrwt>
</event>
<event>
 5    1  0.1590180E+000  0.9685876E+02  0.7546771E-02  0.1287044E+00
         21   -1    0    0  501  502  0.00000000000E+00  0.00000000000E+00  0.43903316814E+03  0.43903316814E+03  0.00000000000E+00 0. -1.
         21   -1    0    0  502  503 -0.00000000000E+00 -0.00000000000E+00 -0.26474333994E+02  0.26474333994E+02  0.00000000000E+00 0.  1.
         24    1    1    2    0    0  0.63184368437E+02 -0.11541140050E+02  0.13653660513E+03  0.17098222956E+03  0.80419002446E+02 0. -1.
          1    1    1    2  501    0 -0.19871305272E+02  0.35952214594E+02  0.19643914957E+03  0.20068824079E+03  0.00000000000E+00 0. -1.
         -2    1    1    2    0  503 -0.43313063165E+02 -0.24411074544E+02  0.79583079438E+02  0.93837031784E+02  0.00000000000E+00 0.  1.
<mgrwt>
<rscale>  2 0.96858756E+02</rscale>
<asrwt>0</asrwt>
<pdfrwt beam="1">  1       21 0.67543559E-01 0.96858756E+02</pdfrwt>
<pdfrwt beam="2">  1       21 0.40729748E-02 0.96858756E+02</pdfrwt>
<totfact> 0.76609678E+05</totfact>
</mgrwt>
</event>
<event>
 5    1  0.1590180E+000  0.6500721E+02  0.7546771E-02  0.1377944E+00
         21   -1    0    0  501  502  0.00000000000E+00  0.00000000000E+00  0.37279925023E+03  0.37279925023E+03  0.00000000000E+00 0. -1.
         21   -1    0    0  502  503 -0.00000000000E+00 -0.00000000000E+00 -0.55011062270E+02  0.55011062270E+02  0.00000000000E+00 0. -1.
         24    1    1    2    0    0  0.14512869408E+02  0.15743155229E+02  0.10018865675E+02  0.83821619758E+02  0.80419002446E+02 0. -1.
          1    1    1    2  501    0  0.10792552731E+02 -0.18418151228E+02  0.31639935425E+03  0.31711868260E+03  0.00000000000E+00 0. -1.
         -2    1    1    2    0  503 -0.25305422139E+02  0.26749959986E+01 -0.86300319597E+01  0.26870010139E+02  0.00000000000E+00 0.  1.
<mgrwt>
<rscale>  2 0.65007214E+02</rscale>
<asrwt>0</asrwt>
<pdfrwt beam="1">  1       21 0.57353729E-01 0.65007214E+02</pdfrwt>
<pdfrwt beam="2">  1       21 0.84632406E-02 0.65007214E+02</pdfrwt>
<totfact> 0.31811008E+05</totfact>
</mgrwt>
</event>
<event>
 5    1  0.1590180E+000  0.7785079E+02  0.7546771E-02  0.1335264E+00
         21   -1    0    0  503  502  0.00000000000E+00  0.00000000000E+00  0.73587606227E+02  0.73587606227E+02  0.00000000000E+00 0.  1.
         21   -1    0    0  501  503 -0.00000000000E+00 -0.00000000000E+00 -0.10021946878E+03  0.10021946878E+03  0.00000000000E+00 0.  1.
         24    1    1    2    0    0 -0.41298224136E+02  0.37254508261E+02 -0.34898969033E+02  0.10382001588E+03  0.80419002446E+02 0.  1.
          1    1    1    2  501    0  0.88897677610E+01 -0.18384871729E+02 -0.15456835394E+02  0.25611427913E+02  0.00000000000E+00 0. -1.
         -2    1    1    2    0  502  0.32408456375E+02 -0.18869636531E+02  0.23723941878E+02  0.44375631214E+02  0.00000000000E+00 0.  1.
<mgrwt>
<rscale>  2 0.77850790E+02</rscale>
<asrwt>0</asrwt>
<pdfrwt beam="1">  1       21 0.11321170E-01 0.77850790E+02</pdfrwt>
<pdfrwt beam="2">  1       21 0.15418380E-01 0.77850790E+02</pdfrwt>
<totfact> 0.23614886E+06</totfact>
</mgrwt>
</event>
<event>
 5    1  0.1590180E+000  0.1118665E+03  0.7546771E-02  0.1257152E+00
         21   -1    0    0  503  502  0.00000000000E+00  0.00000000000E+00  0.11537447039E+03  0.11537447039E+03  0.00000000000E+00 0.  1.
         21   -1    0    0  501  503 -0.00000000000E+00 -0.00000000000E+00 -0.18265683191E+03  0.18265683191E+03  0.00000000000E+00 0.  1.
         24    1    1    2    0    0  0.35987403840E+02 -0.35809255922E+02 -0.57478732046E+02  0.11112342974E+03  0.80419002446E+02 0.  1.
          1    1    1    2  501    0  0.38528900829E+02 -0.11688526086E+02 -0.69462276911E+02  0.80287643849E+02  0.00000000000E+00 0. -1.
         -2    1    1    2    0  502 -0.74516304669E+02  0.47497782008E+02  0.59658647436E+02  0.10662022871E+03  0.00000000000E+00 0.  1.
<mgrwt>
<rscale>  2 0.11186649E+03</rscale>
<asrwt>0</asrwt>
<pdfrwt beam="1">  1       21 0.17749918E-01 0.11186649E+03</pdfrwt>
<pdfrwt beam="2">  1       21 0.28101051E-01 0.11186649E+03</pdfrwt>
<totfact> 0.35351236E+05</totfact>
</mgrwt>
</event>
<event>
 5    1  0.1590180E+000  0.1767236E+03  0.7546771E-02  0.1171012E+00
         21   -1    0    0  503  502  0.00000000000E+00  0.00000000000E+00  0.51613326426E+02  0.51613326426E+02  0.00000000000E+00 0.  1.
         21   -1    0    0  501  503 -0.00000000000E+00 -0.00000000000E+00 -0.92428755889E+03  0.92428755889E+03  0.00000000000E+00 0. -1.
         24    1    1    2    0    0  0.18001226105E+02 -0.65199330285E+02 -0.50968215342E+03  0.52040187383E+03  0.80419002446E+02 0. -1.
          1    1    1    2  501    0  0.14186554709E+02 -0.89365515884E+02 -0.23642581772E+03  0.25314940460E+03  0.00000000000E+00 0. -1.
         -2    1    1    2    0  502 -0.32187780814E+02  0.15456484617E+03 -0.12656626133E+03  0.20234960690E+03  0.00000000000E+00 0.  1.
<mgrwt>
<rscale>  2 0.17672364E+03</rscale>
<asrwt>0</asrwt>
<pdfrwt beam="1">  1       21 0.79405120E-02 0.17672364E+03</pdfrwt>
<pdfrwt beam="2">  1       21 0.14219808E+00 0.17672364E+03</pdfrwt>
<totfact> 0.42166001E+04</totfact>
</mgrwt>
</event>
<event>
 5    1  0.1590180E+000  0.7988534E+02  0.7546771E-02  0.1329377E+00
         21   -1    0    0  503  502  0.00000000000E+00  0.00000000000E+00  0.61385904342E+03  0.61385904342E+03  0.00000000000E+00 0. -1.
         21   -1    0    0  501  503 -0.00000000000E+00 -0.00000000000E+00 -0.27330551705E+02  0.27330551705E+02  0.00000000000E+00 0.  1.
         24    1    1    2    0    0  0.16490316487E+01  0.30251164932E+02  0.26109632277E+03  0.27487516804E+03  0.80419002446E+02 0. -1.
          1    1    1    2  501    0  0.15935354921E+02  0.17069677057E+02 -0.11213523451E+02  0.25904681420E+02  0.00000000000E+00 0. -1.
         -2    1    1    2    0  502 -0.17584386570E+02 -0.47320841988E+02  0.33664569239E+03  0.34040974566E+03  0.00000000000E+00 0.  1.
<mgrwt>
<rscale>  2 0.79885341E+02</rscale>
<asrwt>0</asrwt>
<pdfrwt beam="1">  1       21 0.94439842E-01 0.79885341E+02</pdfrwt>
<pdfrwt beam="2">  1       21 0.42047007E-02 0.79885341E+02</pdfrwt>
<totfact> 0.34713226E+05</totfact>
</mgrwt>
</event>
<event>
 5    1  0.1590180E+000  0.6775590E+02  0.7546771E-02  0.1367895E+00
         21   -1    0    0  501  502  0.00000000000E+00  0.00000000000E+00  0.91154803003E+01  0.91154803003E+01  0.00000000000E+00 0.  1.
         21   -1    0    0  502  503 -0.00000000000E+00 -0.00000000000E+00 -0.69643767021E+03  0.69643767021E+03  0.00000000000E+00 0. -1.
         24    1    1    2    0    0  0.16914691121E+02 -0.40423818938E+02 -0.51733335937E+03  0.52537720981E+03  0.80419002446E+02 0. -1.
          1    1    1    2  501    0 -0.64141193113E+01  0.19324451352E+02 -0.20690300381E+02  0.29028673350E+02  0.00000000000E+00 0. -1.
         -2    1    1    2    0  503 -0.10500571810E+02  0.21099367586E+02 -0.14929853016E+03  0.15114726735E+03  0.00000000000E+00 0.  1.
<mgrwt>
<rscale>  2 0.67755902E+02</rscale>
<asrwt>0</asrwt>
<pdfrwt beam="1">  1       21 0.14023820E-02 0.67755902E+02</pdfrwt>
<pdfrwt beam="2">  1       21 0.10714423E+00 0.67755902E+02</pdfrwt>
<totfact> 0.15099839E+06</totfact>
</mgrwt>
</event>
<event>
 5    1  0.1590180E+000  0.1425837E+03  0.7546771E-02  0.1209894E+00
         21   -1    0    0  501  502  0.00000000000E+00  0.00000000000E+00  0.23501877869E+03  0.23501877869E+03  0.00000000000E+00 0. -1.
         21   -1    0    0  502  503 -0.00000000000E+00 -0.00000000000E+00 -0.87290428240E+02  0.87290428240E+02  0.00000000000E+00 0. -1.
         24    1    1    2    0    0 -0.69162695536E+02 -0.74540931264E+02  0.73909338067E+02  0.14923014138E+03  0.80419002446E+02 0. -1.
          1    1    1    2  501    0 -0.32341708034E+02  0.31904290625E+02  0.30753967431E+02  0.54860517237E+02  0.00000000000E+00 0. -1.
         -2    1    1    2    0  503  0.10150440357E+03  0.42636640639E+02  0.43065044952E+02  0.11821854832E+03  0.00000000000E+00 0.  1.
<mgrwt>
<rscale>  2 0.14258368E+03</rscale>
<asrwt>0</asrwt>
<pdfrwt beam="1">  1       21 0.36156735E-01 0.14258368E+03</pdfrwt>
<pdfrwt beam="2">  1       21 0.13429297E-01 0.14258368E+03</pdfrwt>
<totfact> 0.35702067E+05</totfact>
</mgrwt>
</event>
<event>
 5    1  0.1590180E+000  0.7772641E+02  0.7546771E-02  0.1335630E+00
         21   -1    0    0  501  502  0.00000000000E+00  0.00000000000E+00  0.34530424907E+02  0.34530424907E+02  0.00000000000E+00 0. -1.
         21   -1    0    0  502  503 -0.00000000000E+00 -0.00000000000E+00 -0.27335581986E+03  0.27335581986E+03  0.00000000000E+00 0.  1.
         24    1    1    2    0    0  0.42325253401E+00  0.49059750366E+01 -0.71286177712E+02  0.10757872848E+03  0.80419002446E+02 0.  0.
          1    1    1    2  501    0  0.36511879576E+02 -0.93271983971E+01 -0.10781183321E+02  0.39196273980E+02  0.00000000000E+00 0. -1.
         -2    1    1    2    0  503 -0.36935132110E+02  0.44212233605E+01 -0.15675803392E+03  0.16111124231E+03  0.00000000000E+00 0.  1.
<mgrwt>
<rscale>  2 0.77726413E+02</rscale>
<asrwt>0</asrwt>
<pdfrwt beam="1">  1       21 0.53123733E-02 0.77726413E+02</pdfrwt>
<pdfrwt beam="2">  1       21 0.42054739E-01 0.77726413E+02</pdfrwt>
<totfact> 0.13053158E+06</totfact>
</mgrwt>
</event>
<event>
 5    1  0.1590180E+000  0.1001137E+03  0.7546771E-02  0.1280057E+00
         21   -1    0    0  501  502  0.00000000000E+00  0.00000000000E+00  0.61807017398E+02  0.61807017398E+02  0.00000000000E+00 0.  1.
         21   -1    0    0  502  503 -0.00000000000E+00 -0.00000000000E+00 -0.21515463698E+03  0.21515463698E+03  0.00000000000E+00 0.  1.
         24    1    1    2    0    0 -0.77423687506E+02 -0.32021797880E+02 -0.86846160428E+02  0.14501480773E+03  0.80419002446E+02 0.  1.
          1    1    1    2  501    0  0.24205784649E+02  0.64475957808E+01  0.16566856446E+02  0.30032519613E+02  0.00000000000E+00 0. -1.
         -2    1    1    2    0  503  0.53217902858E+02  0.25574202099E+02 -0.83068315597E+02  0.10191432703E+03  0.00000000000E+00 0.  1.
<mgrwt>
<rscale>  2 0.10011371E+03</rscale>
<asrwt>0</asrwt>
<pdfrwt beam="1">  1       21 0.95087720E-02 0.10011371E+03</pdfrwt>
<pdfrwt beam="2">  1       21 0.33100713E-01 0.10011371E+03</pdfrwt>
<totfact> 0.78125289E+05</totfact>
</mgrwt>
</event>
<event>
 5    1  0.1590180E+000  0.8854335E+02  0.7546771E-02  0.1306418E+00
         21   -1    0    0  503  502  0.00000000000E+00  0.00000000000E+00  0.33211865655E+02  0.33211865655E+02  0.00000000000E+00 0.  1.
         21   -1    0    0  501  503 -0.00000000000E+00 -0.00000000000E+00 -0.62642076216E+03  0.62642076216E+03  0.00000000000E+00 0. -1.
         24    1    1    2    0    0 -0.95086822171E+00 -0.28166077747E+01 -0.98959859910E+02  0.12755041065E+03  0.80419002446E+02 0.  0.
          1    1    1    2  501    0  0.11501991006E+02  0.48439160628E+02 -0.48078837695E+03  0.48335919510E+03  0.00000000000E+00 0. -1.
         -2    1    1    2    0  502 -0.10551122784E+02 -0.45622552854E+02 -0.13460659649E+02  0.48723022064E+02  0.00000000000E+00 0.  1.
<mgrwt>
<rscale>  2 0.88543346E+02</rscale>
<asrwt>0</asrwt>
<pdfrwt beam="1">  1       21 0.51095176E-02 0.88543346E+02</pdfrwt>
<pdfrwt beam="2">  1       21 0.96372428E-01 0.88543346E+02</pdfrwt>
<totfact> 0.23952978E+05</totfact>
</mgrwt>
</event>
<event>
 5    1  0.1590180E+000  0.1442885E+03  0.7546771E-02  0.1207672E+00
         21   -1    0    0  503  502  0.00000000000E+00  0.00000000000E+00  0.69967374751E+02  0.69967374751E+02  0.00000000000E+00 0.  1.
         21   -1    0    0  501  503 -0.00000000000E+00 -0.00000000000E+00 -0.67792593017E+03  0.67792593017E+03  0.00000000000E+00 0. -1.
         24    1    1    2    0    0 -0.90146017517E+02  0.51929471230E+02 -0.53164519431E+02  0.14183319970E+03  0.80419002446E+02 0.  1.
          1    1    1    2  501    0  0.63528766678E+02  0.30495294514E+02 -0.49691245483E+03  0.50188430435E+03  0.00000000000E+00 0. -1.
         -2    1    1    2    0  502  0.26617250839E+02 -0.82424765744E+02 -0.57881581151E+02  0.10417580087E+03  0.00000000000E+00 0.  1.
<mgrwt>
<rscale>  2 0.14428851E+03</rscale>
<asrwt>0</asrwt>
<pdfrwt beam="1">  1       21 0.10764211E-01 0.14428851E+03</pdfrwt>
<pdfrwt beam="2">  1       21 0.10429630E+00 0.14428851E+03</pdfrwt>
<totfact> 0.54213553E+04</totfact>
</mgrwt>
</event>
<event>
 5    1  0.1590180E+000  0.8062493E+02  0.7546771E-02  0.1327287E+00
         21   -1    0    0  501  502  0.00000000000E+00  0.00000000000E+00  0.16410393529E+02  0.16410393529E+02  0.00000000000E+00 0. -1.
         21   -1    0    0  502  503 -0.00000000000E+00 -0.00000000000E+00 -0.49581567650E+03  0.49581567650E+03  0.00000000000E+00 0.  1.
         24    1    1    2    0    0 -0.21561653589E+02  0.10445619526E+02 -0.29268872074E+03  0.30447975150E+03  0.80419002446E+02 0.  0.
          1    1    1    2  501    0  0.46891809121E+02  0.57947504603E+01 -0.54410672787E+02  0.72062071915E+02  0.00000000000E+00 0. -1.
         -2    1    1    2    0  503 -0.25330155532E+02 -0.16240369986E+02 -0.13230588945E+03  0.13568424661E+03  0.00000000000E+00 0.  1.
<mgrwt>
<rscale>  2 0.80624928E+02</rscale>
<asrwt>0</asrwt>
<pdfrwt beam="1">  1       21 0.25246766E-02 0.80624928E+02</pdfrwt>
<pdfrwt beam="2">  1       21 0.76279315E-01 0.80624928E+02</pdfrwt>
<totfact> 0.12802423E+06</totfact>
</mgrwt>
</event>
<event>
 5    1  0.1590180E+000  0.6625846E+02  0.7546771E-02  0.1373299E+00
         21   -1    0    0  503  502  0.00000000000E+00  0.00000000000E+00  0.25344287740E+02  0.25344287740E+02  0.00000000000E+00 0.  1.
         21   -1    0    0  501  503 -0.00000000000E+00 -0.00000000000E+00 -0.45540077454E+03  0.45540077454E+03  0.00000000000E+00 0.  1.
         24    1    1    2    0    0  0.37886406172E+02  0.15165368230E+02 -0.20628507218E+03  0.22513577042E+03  0.80419002446E+02 0.  1.
          1    1    1    2  501    0 -0.21872312611E+02 -0.26919080240E+01 -0.23247941276E+03  0.23352156599E+03  0.00000000000E+00 0. -1.
         -2    1    1    2    0  502 -0.16014093561E+02 -0.12473460206E+02  0.87079981392E+01  0.22087725860E+02  0.00000000000E+00 0.  1.
<mgrwt>
<rscale>  2 0.66258456E+02</rscale>
<asrwt>0</asrwt>
<pdfrwt beam="1">  1       21 0.38991212E-02 0.66258456E+02</pdfrwt>
<pdfrwt beam="2">  1       21 0.70061658E-01 0.66258456E+02</pdfrwt>
<totfact> 0.75787203E+05</totfact>
</mgrwt>
</event>
<event>
 5    1  0.1590180E+000  0.7044248E+02  0.7546771E-02  0.1358595E+00
         21   -1    0    0  503  502  0.00000000000E+00  0.00000000000E+00  0.15165121423E+03  0.15165121423E+03  0.00000000000E+00 0.  1.
         21   -1    0    0  501  503 -0.00000000000E+00 -0.00000000000E+00 -0.24021428807E+03  0.24021428807E+03  0.00000000000E+00 0.  1.
         24    1    1    2    0    0  0.19980192779E+02 -0.16107648358E+02 -0.20745232977E+03  0.22396952811E+03  0.80419002446E+02 0.  1.
          1    1    1    2  501    0 -0.24193175698E+02 -0.12721980062E+02 -0.14789626140E+02  0.31078796122E+02  0.00000000000E+00 0. -1.
         -2    1    1    2    0  502  0.42129829190E+01  0.28829628420E+02  0.13367888208E+03  0.13681717807E+03  0.00000000000E+00 0.  1.
<mgrwt>
<rscale>  2 0.70442481E+02</rscale>
<asrwt>0</asrwt>
<pdfrwt beam="1">  1       21 0.23330956E-01 0.70442481E+02</pdfrwt>
<pdfrwt beam="2">  1       21 0.36956044E-01 0.70442481E+02</pdfrwt>
<totfact> 0.12787994E+05</totfact>
</mgrwt>
</event>
<event>
 5    1  0.1590180E+000  0.1030624E+03  0.7546771E-02  0.1273985E+00
         21   -1    0    0  501  502  0.00000000000E+00  0.00000000000E+00  0.15923699643E+04  0.15923699643E+04  0.00000000000E+00 0. -1.
         21   -1    0    0  502  503 -0.00000000000E+00 -0.00000000000E+00 -0.18730472037E+02  0.18730472037E+02  0.00000000000E+00 0.  1.
         24    1    1    2    0    0  0.36970923742E+02 -0.29472333005E+02  0.52314453699E+03  0.53139711154E+03  0.80419002446E+02 0.  1.
          1    1    1    2  501    0 -0.19871791797E+00 -0.36930987763E+02  0.96366816235E+03  0.96437558268E+03  0.00000000000E+00 0. -1.
         -2    1    1    2    0  503 -0.36772205824E+02  0.66403320768E+02  0.86826792884E+02  0.11532774208E+03  0.00000000000E+00 0.  1.
<mgrwt>
<rscale>  2 0.10306244E+03</rscale>
<asrwt>0</asrwt>
<pdfrwt beam="1">  1       21 0.24497989E+00 0.10306244E+03</pdfrwt>
<pdfrwt beam="2">  1       21 0.28816123E-02 0.10306244E+03</pdfrwt>
<totfact> 0.52291708E+04</totfact>
</mgrwt>
</event>
<event>
 5    1  0.1590180E+000  0.8299156E+02  0.7546771E-02  0.1320770E+00
         21   -1    0    0  503  502  0.00000000000E+00  0.00000000000E+00  0.19129687245E+02  0.19129687245E+02  0.00000000000E+00 0.  1.
         21   -1    0    0  501  503 -0.00000000000E+00 -0.00000000000E+00 -0.10225931061E+04  0.10225931061E+04  0.00000000000E+00 0.  1.
         24    1    1    2    0    0  0.43886947689E+02 -0.44556238188E+02 -0.92728426999E+03  0.93286368557E+03  0.80419002446E+02 0.  1.
          1    1    1    2  501    0 -0.17211632071E+02  0.27512333481E+02 -0.69216964452E+02  0.76447085884E+02  0.00000000000E+00 0. -1.
         -2    1    1    2    0  502 -0.26675315619E+02  0.17043904707E+02 -0.69621844138E+01  0.32412021888E+02  0.00000000000E+00 0.  1.
<mgrwt>
<rscale>  2 0.82991559E+02</rscale>
<asrwt>0</asrwt>
<pdfrwt beam="1">  1       21 0.29430284E-02 0.82991559E+02</pdfrwt>
<pdfrwt beam="2">  1       21 0.15732204E+00 0.82991559E+02</pdfrwt>
<totfact> 0.18122100E+05</totfact>
</mgrwt>
</event>
<event>
 5    1  0.1590180E+000  0.7667026E+02  0.7546771E-02  0.1338775E+00
         21   -1    0    0  503  502  0.00000000000E+00  0.00000000000E+00  0.27256181475E+03  0.27256181475E+03  0.00000000000E+00 0. -1.
         21   -1    0    0  501  503 -0.00000000000E+00 -0.00000000000E+00 -0.27491580934E+02  0.27491580934E+02  0.00000000000E+00 0. -1.
         24    1    1    2    0    0  0.17360511805E+02  0.45170584618E+02  0.76782236666E+02  0.12126210004E+03  0.80419002446E+02 0. -1.
          1    1    1    2  501    0  0.38383086657E+01 -0.36303328004E+02  0.87783980269E+02  0.95072032846E+02  0.00000000000E+00 0. -1.
         -2    1    1    2    0  502 -0.21198820470E+02 -0.88672566131E+01  0.80504016886E+02  0.83719262801E+02  0.00000000000E+00 0.  1.
<mgrwt>
<rscale>  2 0.76670257E+02</rscale>
<asrwt>0</asrwt>
<pdfrwt beam="1">  1       21 0.41932585E-01 0.76670257E+02</pdfrwt>
<pdfrwt beam="2">  1       21 0.42294742E-02 0.76670257E+02</pdfrwt>
<totfact> 0.19128031E+06</totfact>
</mgrwt>
</event>
<event>
 5    1  0.1590180E+000  0.8742986E+02  0.7546771E-02  0.1309198E+00
         21   -1    0    0  503  502  0.00000000000E+00  0.00000000000E+00  0.40417331819E+03  0.40417331819E+03  0.00000000000E+00 0.  1.
         21   -1    0    0  501  503 -0.00000000000E+00 -0.00000000000E+00 -0.34688163077E+02  0.34688163077E+02  0.00000000000E+00 0.  1.
         24    1    1    2    0    0  0.44197879686E+02  0.51995369979E+02  0.14429209347E+03  0.17872995065E+03  0.80419002446E+02 0.  1.
          1    1    1    2  501    0 -0.35346096989E+02 -0.32668051926E+02  0.17286028936E+02  0.51140541505E+02  0.00000000000E+00 0. -1.
         -2    1    1    2    0  502 -0.88517826966E+01 -0.19327318053E+02  0.20790703271E+03  0.20899098911E+03  0.00000000000E+00 0.  1.
<mgrwt>
<rscale>  2 0.87429859E+02</rscale>
<asrwt>0</asrwt>
<pdfrwt beam="1">  1       21 0.62180507E-01 0.87429859E+02</pdfrwt>
<pdfrwt beam="2">  1       21 0.53366408E-02 0.87429859E+02</pdfrwt>
<totfact> 0.58337067E+05</totfact>
</mgrwt>
</event>
<event>
 5    1  0.1590180E+000  0.1038566E+03  0.7546771E-02  0.1272389E+00
         21   -1    0    0  501  502  0.00000000000E+00  0.00000000000E+00  0.48064077873E+03  0.48064077873E+03  0.00000000000E+00 0. -1.
         21   -1    0    0  502  503 -0.00000000000E+00 -0.00000000000E+00 -0.74695832122E+02  0.74695832122E+02  0.00000000000E+00 0. -1.
         24    1    1    2    0    0 -0.15227487748E+02  0.64039397835E+02  0.89502971160E+01  0.10430841112E+03  0.80419002446E+02 0. -1.
          1    1    1    2  501    0 -0.21347712819E+02 -0.63732814860E+02  0.40747392853E+03  0.41298014355E+03  0.00000000000E+00 0. -1.
         -2    1    1    2    0  503  0.36575200568E+02 -0.30658297505E+00 -0.10479279041E+02  0.38048056178E+02  0.00000000000E+00 0.  1.
<mgrwt>
<rscale>  2 0.10385663E+03</rscale>
<asrwt>0</asrwt>
<pdfrwt beam="1">  1       21 0.73944733E-01 0.10385663E+03</pdfrwt>
<pdfrwt beam="2">  1       21 0.11491667E-01 0.10385663E+03</pdfrwt>
<totfact> 0.10786251E+05</totfact>
</mgrwt>
</event>
<event>
 5    1  0.1590180E+000  0.1344440E+03  0.7546771E-02  0.1221007E+00
         21   -1    0    0  501  502  0.00000000000E+00  0.00000000000E+00  0.13658762172E+04  0.13658762172E+04  0.00000000000E+00 0. -1.
         21   -1    0    0  502  503 -0.00000000000E+00 -0.00000000000E+00 -0.10545069039E+03  0.10545069039E+03  0.00000000000E+00 0.  1.
         24    1    1    2    0    0  0.22848353289E+02 -0.90702399277E+02  0.34216583626E+03  0.36372193766E+03  0.80419002446E+02 0.  1.
          1    1    1    2  501    0  0.15483315776E+02 -0.21766915342E+02  0.97539448428E+03  0.97576018142E+03  0.00000000000E+00 0. -1.
         -2    1    1    2    0  503 -0.38331669065E+02  0.11246931462E+03 -0.57134793779E+02  0.13184478846E+03  0.00000000000E+00 0.  1.
<mgrwt>
<rscale>  2 0.13444396E+03</rscale>
<asrwt>0</asrwt>
<pdfrwt beam="1">  1       21 0.21013479E+00 0.13444396E+03</pdfrwt>
<pdfrwt beam="2">  1       21 0.16223184E-01 0.13444396E+03</pdfrwt>
<totfact> 0.41985478E+03</totfact>
</mgrwt>
</event>
<event>
 5    1  0.1590180E+000  0.6881973E+02  0.7546771E-02  0.1364153E+00
         21   -1    0    0  501  502  0.00000000000E+00  0.00000000000E+00  0.65484042942E+03  0.65484042942E+03  0.00000000000E+00 0. -1.
         21   -1    0    0  502  503 -0.00000000000E+00 -0.00000000000E+00 -0.58752536881E+02  0.58752536881E+02  0.00000000000E+00 0.  1.
         24    1    1    2    0    0  0.45310144175E+02  0.88875035328E+00  0.14664618324E+03  0.17328046068E+03  0.80419002446E+02 0.  1.
          1    1    1    2  501    0 -0.22158848763E+02  0.70311927355E-01  0.49165703603E+03  0.49215613437E+03  0.00000000000E+00 0. -1.
         -2    1    1    2    0  503 -0.23151295411E+02 -0.95906228064E+00 -0.42215326734E+02  0.48156371239E+02  0.00000000000E+00 0.  1.
<mgrwt>
<rscale>  2 0.68819728E+02</rscale>
<asrwt>0</asrwt>
<pdfrwt beam="1">  1       21 0.10074468E+00 0.68819728E+02</pdfrwt>
<pdfrwt beam="2">  1       21 0.90388523E-02 0.68819728E+02</pdfrwt>
<totfact> 0.83572837E+04</totfact>
</mgrwt>
</event>
<event>
 5    1  0.1590180E+000  0.1035030E+03  0.7546771E-02  0.1273097E+00
         21   -1    0    0  501  502  0.00000000000E+00  0.00000000000E+00  0.49659482581E+02  0.49659482581E+02  0.00000000000E+00 0.  1.
         21   -1    0    0  502  503 -0.00000000000E+00 -0.00000000000E+00 -0.23175842757E+03  0.23175842757E+03  0.00000000000E+00 0. -1.
         24    1    1    2    0    0 -0.64460024113E+01 -0.77100978761E+02 -0.65146749832E+02  0.12921852360E+03  0.80419002446E+02 0.  1.
          1    1    1    2  501    0  0.30997477113E+02  0.50130238974E+02 -0.56802178242E+02  0.81855799428E+02  0.00000000000E+00 0. -1.
         -2    1    1    2    0  503 -0.24551474702E+02  0.26970739787E+02 -0.60150016918E+02  0.70343587127E+02  0.00000000000E+00 0.  1.
<mgrwt>
<rscale>  2 0.10350300E+03</rscale>
<asrwt>0</asrwt>
<pdfrwt beam="1">  1       21 0.76399203E-02 0.10350300E+03</pdfrwt>
<pdfrwt beam="2">  1       21 0.35655143E-01 0.10350300E+03</pdfrwt>
<totfact> 0.98536553E+05</totfact>
</mgrwt>
</event>
<event>
 5    1  0.1590180E+000  0.1532685E+03  0.7546771E-02  0.1196513E+00
         21   -1    0    0  501  502  0.00000000000E+00  0.00000000000E+00  0.27666682946E+03  0.27666682946E+03  0.00000000000E+00 0.  1.
         21   -1    0    0  502  503 -0.00000000000E+00 -0.00000000000E+00 -0.13845952006E+03  0.13845952006E+03  0.00000000000E+00 0.  1.
         24    1    1    2    0    0 -0.10918197043E+03 -0.30701584387E+02  0.54856699730E+01  0.13914236766E+03  0.80419002446E+02 0.  1.
          1    1    1    2  501    0  0.11669515578E+03  0.64188172628E+02  0.17602376651E+03  0.22073116514E+03  0.00000000000E+00 0. -1.
         -2    1    1    2    0  503 -0.75131853560E+01 -0.33486588241E+02 -0.43302127075E+02  0.55252816719E+02  0.00000000000E+00 0.  1.
<mgrwt>
<rscale>  2 0.15326845E+03</rscale>
<asrwt>0</asrwt>
<pdfrwt beam="1">  1       21 0.42564128E-01 0.15326845E+03</pdfrwt>
<pdfrwt beam="2">  1       21 0.21301465E-01 0.15326845E+03</pdfrwt>
<totfact> 0.11052971E+05</totfact>
</mgrwt>
</event>
<event>
 5    1  0.1590180E+000  0.7727997E+02  0.7546771E-02  0.1336953E+00
         21   -1    0    0  503  502  0.00000000000E+00  0.00000000000E+00  0.16669397119E+04  0.16669397119E+04  0.00000000000E+00 0. -1.
         21   -1    0    0  501  503 -0.00000000000E+00 -0.00000000000E+00 -0.39842184764E+01  0.39842184764E+01  0.00000000000E+00 0.  1.
         24    1    1    2    0    0  0.96733730783E+00 -0.23926792386E+02  0.82353328709E+03  0.82779690628E+03  0.80419002446E+02 0.  0.
          1    1    1    2  501    0  0.31422369138E+02  0.18963400597E+01  0.19584716423E+03  0.19836096674E+03  0.00000000000E+00 0. -1.
         -2    1    1    2    0  502 -0.32389706446E+02  0.22030452326E+02  0.64357504209E+03  0.64476605736E+03  0.00000000000E+00 0.  1.
<mgrwt>
<rscale>  2 0.77279965E+02</rscale>
<asrwt>0</asrwt>
<pdfrwt beam="1">  1       21 0.25645171E+00 0.77279965E+02</pdfrwt>
<pdfrwt beam="2">  1       21 0.61295802E-03 0.77279965E+02</pdfrwt>
<totfact> 0.53404086E+05</totfact>
</mgrwt>
</event>
<event>
 5    1  0.1590180E+000  0.7662343E+02  0.7546771E-02  0.1338916E+00
         21   -1    0    0  503  502  0.00000000000E+00  0.00000000000E+00  0.13546739489E+02  0.13546739489E+02  0.00000000000E+00 0.  1.
         21   -1    0    0  501  503 -0.00000000000E+00 -0.00000000000E+00 -0.88698107314E+03  0.88698107314E+03  0.00000000000E+00 0.  1.
         24    1    1    2    0    0 -0.38712849664E+02 -0.57391532166E+01 -0.15262055748E+03  0.17689509075E+03  0.80419002446E+02 0.  1.
          1    1    1    2  501    0  0.87120768086E+01  0.26124785330E+02 -0.31029613777E+03  0.31151580668E+03  0.00000000000E+00 0. -1.
         -2    1    1    2    0  502  0.30000772855E+02 -0.20385632114E+02 -0.41051763839E+03  0.41211691521E+03  0.00000000000E+00 0.  1.
<mgrwt>
<rscale>  2 0.76623428E+02</rscale>
<asrwt>0</asrwt>
<pdfrwt beam="1">  1       21 0.20841138E-02 0.76623428E+02</pdfrwt>
<pdfrwt beam="2">  1       21 0.13645862E+00 0.76623428E+02</pdfrwt>
<totfact> 0.45304292E+05</totfact>
</mgrwt>
</event>
<event>
 5    1  0.1590180E+000  0.1299628E+03  0.7546771E-02  0.1227511E+00
         21   -1    0    0  501  502  0.00000000000E+00  0.00000000000E+00  0.16530313010E+03  0.16530313010E+03  0.00000000000E+00 0. -1.
         21   -1    0    0  502  503 -0.00000000000E+00 -0.00000000000E+00 -0.16136920322E+03  0.16136920322E+03  0.00000000000E+00 0.  1.
         24    1    1    2    0    0  0.29493682903E+02  0.53277618588E+02 -0.89637381391E+02  0.13494613025E+03  0.80419002446E+02 0.  1.
          1    1    1    2  501    0  0.10370309190E+02  0.48578060372E+02  0.58758230249E+02  0.76940892146E+02  0.00000000000E+00 0. -1.
         -2    1    1    2    0  503 -0.39863992093E+02 -0.10185567896E+03  0.34813078017E+02  0.11478531092E+03  0.00000000000E+00 0.  1.
<mgrwt>
<rscale>  2 0.12996279E+03</rscale>
<asrwt>0</asrwt>
<pdfrwt beam="1">  1       21 0.25431251E-01 0.12996279E+03</pdfrwt>
<pdfrwt beam="2">  1       21 0.24826031E-01 0.12996279E+03</pdfrwt>
<totfact> 0.22859883E+05</totfact>
</mgrwt>
</event>
<event>
 5    1  0.1590180E+000  0.1280194E+03  0.7546771E-02  0.1230425E+00
         21   -1    0    0  501  502  0.00000000000E+00  0.00000000000E+00  0.16111041409E+04  0.16111041409E+04  0.00000000000E+00 0. -1.
         21   -1    0    0  502  503 -0.00000000000E+00 -0.00000000000E+00 -0.32247903254E+02  0.32247903254E+02  0.00000000000E+00 0.  1.
         24    1    1    2    0    0 -0.65876405447E+02 -0.55862934464E+02  0.45543724794E+03  0.47047919296E+03  0.80419002446E+02 0. -1.
          1    1    1    2  501    0 -0.73681175500E+01  0.63914590661E+02  0.10901122783E+04  0.10920092231E+04  0.00000000000E+00 0. -1.
         -2    1    1    2    0  503  0.73244522997E+02 -0.80516561979E+01  0.33306711342E+02  0.80863628023E+02  0.00000000000E+00 0.  1.
<mgrwt>
<rscale>  2 0.12801941E+03</rscale>
<asrwt>0</asrwt>
<pdfrwt beam="1">  1       21 0.24786211E+00 0.12801941E+03</pdfrwt>
<pdfrwt beam="2">  1       21 0.49612172E-02 0.12801941E+03</pdfrwt>
<totfact> 0.19899823E+04</totfact>
</mgrwt>
</event>
<event>
 5    1  0.1590180E+000  0.1345956E+03  0.7546771E-02  0.1220792E+00
         21   -1    0    0  503  502  0.00000000000E+00  0.00000000000E+00  0.23549826814E+03  0.23549826814E+03  0.00000000000E+00 0. -1.
         21   -1    0    0  501  503 -0.00000000000E+00 -0.00000000000E+00 -0.86081537192E+02  0.86081537192E+02  0.00000000000E+00 0.  1.
         24    1    1    2    0    0 -0.67642160820E+02 -0.70125902489E+02  0.30852961443E+02  0.13004701190E+03  0.80419002446E+02 0. -1.
          1    1    1    2  501    0  0.19505321673E+02 -0.27671335328E+02  0.51751839186E+01  0.34248253984E+02  0.00000000000E+00 0. -1.
         -2    1    1    2    0  502  0.48136839147E+02  0.97797237817E+02  0.11338858558E+03  0.15728453945E+03  0.00000000000E+00 0.  1.
<mgrwt>
<rscale>  2 0.13459562E+03</rscale>
<asrwt>0</asrwt>
<pdfrwt beam="1">  1       21 0.36230503E-01 0.13459562E+03</pdfrwt>
<pdfrwt beam="2">  1       21 0.13243313E-01 0.13459562E+03</pdfrwt>
<totfact> 0.36501479E+05</totfact>
</mgrwt>
</event>
<event>
 5    1  0.1590180E+000  0.1289585E+03  0.7546771E-02  0.1229009E+00
         21   -1    0    0  503  502  0.00000000000E+00  0.00000000000E+00  0.82293346753E+02  0.82293346753E+02  0.00000000000E+00 0.  1.
         21   -1    0    0  501  503 -0.00000000000E+00 -0.00000000000E+00 -0.28537389925E+03  0.28537389925E+03  0.00000000000E+00 0. -1.
         24    1    1    2    0    0  0.70331048519E+02 -0.73165574183E+02 -0.82068740626E+02  0.15330411532E+03  0.80419002446E+02 0. -1.
          1    1    1    2  501    0 -0.72101212883E+02  0.19440792289E+02 -0.13890793557E+03  0.15770841407E+03  0.00000000000E+00 0. -1.
         -2    1    1    2    0  502  0.17701643639E+01  0.53724781894E+02  0.17896123698E+02  0.56654716616E+02  0.00000000000E+00 0.  1.
<mgrwt>
<rscale>  2 0.12895853E+03</rscale>
<asrwt>0</asrwt>
<pdfrwt beam="1">  1       21 0.12660515E-01 0.12895853E+03</pdfrwt>
<pdfrwt beam="2">  1       21 0.43903677E-01 0.12895853E+03</pdfrwt>
<totfact> 0.26962593E+05</totfact>
</mgrwt>
</event>
<event>
 5    1  0.1590180E+000  0.1552715E+03  0.7546771E-02  0.1194141E+00
         21   -1    0    0  503  502  0.00000000000E+00  0.00000000000E+00  0.56616988618E+02  0.56616988618E+02  0.00000000000E+00 0. -1.
         21   -1    0    0  501  503 -0.00000000000E+00 -0.00000000000E+00 -0.67253982092E+03  0.67253982092E+03  0.00000000000E+00 0.  1.
         24    1    1    2    0    0 -0.11706390918E+03  0.65575663024E+02 -0.92596991424E+02  0.18178433703E+03  0.80419002446E+02 0. -1.
          1    1    1    2  501    0 -0.74149279302E+01 -0.20368474368E+02 -0.14334245782E+03  0.14497212186E+03  0.00000000000E+00 0. -1.
         -2    1    1    2    0  502  0.12447883712E+03 -0.45207188656E+02 -0.37998338306E+03  0.40240035064E+03  0.00000000000E+00 0.  1.
<mgrwt>
<rscale>  2 0.15527150E+03</rscale>
<asrwt>0</asrwt>
<pdfrwt beam="1">  1       21 0.87103059E-02 0.15527150E+03</pdfrwt>
<pdfrwt beam="2">  1       21 0.10346766E+00 0.15527150E+03</pdfrwt>
<totfact> 0.79647667E+04</totfact>
</mgrwt>
</event>
<event>
 5    1  0.1590180E+000  0.7260789E+02  0.7546771E-02  0.1351443E+00
         21   -1    0    0  501  502  0.00000000000E+00  0.00000000000E+00  0.10497523539E+03  0.10497523539E+03  0.00000000000E+00 0. -1.
         21   -1    0    0  502  503 -0.00000000000E+00 -0.00000000000E+00 -0.64923727348E+02  0.64923727348E+02  0.00000000000E+00 0.  1.
         24    1    1    2    0    0 -0.46733213246E+02  0.93806847214E+01  0.57569648538E+02  0.10978830017E+03  0.80419002446E+02 0.  0.
          1    1    1    2  501    0  0.21630305044E+02  0.58019128615E+01  0.52178320983E+01  0.22994739854E+02  0.00000000000E+00 0. -1.
         -2    1    1    2    0  503  0.25102908201E+02 -0.15182597583E+02 -0.22735972593E+02  0.37115922719E+02  0.00000000000E+00 0.  1.
<mgrwt>
<rscale>  2 0.72607885E+02</rscale>
<asrwt>0</asrwt>
<pdfrwt beam="1">  1       21 0.16150036E-01 0.72607885E+02</pdfrwt>
<pdfrwt beam="2">  1       21 0.99882658E-02 0.72607885E+02</pdfrwt>
<totfact> 0.26904034E+06</totfact>
</mgrwt>
</event>
<event>
 5    1  0.1590180E+000  0.8944052E+02  0.7546771E-02  0.1304212E+00
         21   -1    0    0  503  502  0.00000000000E+00  0.00000000000E+00  0.59645588545E+01  0.59645588545E+01  0.00000000000E+00 0.  1.
         21   -1    0    0  501  503 -0.00000000000E+00 -0.00000000000E+00 -0.19415167895E+04  0.19415167895E+04  0.00000000000E+00 0. -1.
         24    1    1    2    0    0 -0.64455620448E+02  0.30462065947E+02 -0.12712651394E+04  0.12757996453E+04  0.80419002446E+02 0.  1.
          1    1    1    2  501    0  0.18873669764E+02 -0.68611246599E+01 -0.47887032985E+03  0.47929123010E+03  0.00000000000E+00 0. -1.
         -2    1    1    2    0  502  0.45581950685E+02 -0.23600941287E+02 -0.18541676146E+03  0.19239047297E+03  0.00000000000E+00 0.  1.
<mgrwt>
<rscale>  2 0.89440521E+02</rscale>
<asrwt>0</asrwt>
<pdfrwt beam="1">  1       21 0.91762350E-03 0.89440521E+02</pdfrwt>
<pdfrwt beam="2">  1       21 0.29869520E+00 0.89440521E+02</pdfrwt>
<totfact> 0.16556527E+05</totfact>
</mgrwt>
</event>
<event>
 5    1  0.1590180E+000  0.6671932E+02  0.7546771E-02  0.1371618E+00
         21   -1    0    0  503  502  0.00000000000E+00  0.00000000000E+00  0.20592712972E+01  0.20592712972E+01  0.00000000000E+00 0.  1.
         21   -1    0    0  501  503 -0.00000000000E+00 -0.00000000000E+00 -0.21913959975E+04  0.21913959975E+04  0.00000000000E+00 0. -1.
         24    1    1    2    0    0  0.31056720950E+02  0.16560307075E+02 -0.14343222441E+04  0.14370060124E+04  0.80419002446E+02 0.  1.
          1    1    1    2  501    0 -0.25116402141E+02  0.29232385923E+01 -0.49071129136E+03  0.49136234130E+03  0.00000000000E+00 0. -1.
         -2    1    1    2    0  502 -0.59403188088E+01 -0.19483545667E+02 -0.26430319072E+03  0.26508691512E+03  0.00000000000E+00 0.  1.
<mgrwt>
<rscale>  2 0.66719324E+02</rscale>
<asrwt>0</asrwt>
<pdfrwt beam="1">  1       21 0.31681061E-03 0.66719324E+02</pdfrwt>
<pdfrwt beam="2">  1       21 0.33713823E+00 0.66719324E+02</pdfrwt>
<totfact> 0.53995191E+05</totfact>
</mgrwt>
</event>
<event>
 5    1  0.1590180E+000  0.8960574E+02  0.7546771E-02  0.1303809E+00
         21   -1    0    0  501  502  0.00000000000E+00  0.00000000000E+00  0.23482719734E+03  0.23482719734E+03  0.00000000000E+00 0.  1.
         21   -1    0    0  502  503 -0.00000000000E+00 -0.00000000000E+00 -0.54490028226E+02  0.54490028226E+02  0.00000000000E+00 0.  1.
         24    1    1    2    0    0  0.25982408962E+02  0.34668903801E+02  0.64471964817E+02  0.11180728361E+03  0.80419002446E+02 0.  1.
          1    1    1    2  501    0  0.10244549283E+02  0.19890275042E+02  0.10944085198E+03  0.11170440418E+03  0.00000000000E+00 0. -1.
         -2    1    1    2    0  503 -0.36226958244E+02 -0.54559178843E+02  0.64243523199E+01  0.65805537779E+02  0.00000000000E+00 0.  1.
<mgrwt>
<rscale>  2 0.89605741E+02</rscale>
<asrwt>0</asrwt>
<pdfrwt beam="1">  1       21 0.36127261E-01 0.89605741E+02</pdfrwt>
<pdfrwt beam="2">  1       21 0.83830814E-02 0.89605741E+02</pdfrwt>
<totfact> 0.81784181E+05</totfact>
</mgrwt>
</event>
<event>
 5    1  0.1590180E+000  0.1205946E+03  0.7546771E-02  0.1242119E+00
         21   -1    0    0  501  502  0.00000000000E+00  0.00000000000E+00  0.13986207781E+02  0.13986207781E+02  0.00000000000E+00 0.  1.
         21   -1    0    0  502  503 -0.00000000000E+00 -0.00000000000E+00 -0.14414460229E+04  0.14414460229E+04  0.00000000000E+00 0.  1.
         24    1    1    2    0    0  0.86921972566E+02 -0.52207521314E+02 -0.37059807184E+03  0.39254452156E+03  0.80419002446E+02 0.  1.
          1    1    1    2  501    0 -0.84045460174E+01  0.28562952920E+02 -0.21714615308E+03  0.21917785123E+03  0.00000000000E+00 0. -1.
         -2    1    1    2    0  503 -0.78517426548E+02  0.23644568394E+02 -0.83971559020E+03  0.84370985790E+03  0.00000000000E+00 0.  1.
<mgrwt>
<rscale>  2 0.12059461E+03</rscale>
<asrwt>0</asrwt>
<pdfrwt beam="1">  1       21 0.21517259E-02 0.12059461E+03</pdfrwt>
<pdfrwt beam="2">  1       21 0.22176076E+00 0.12059461E+03</pdfrwt>
<totfact> 0.11258902E+05</totfact>
</mgrwt>
</event>
<event>
 5    1  0.1590180E+000  0.1171816E+03  0.7546771E-02  0.1247820E+00
         21   -1    0    0  503  502  0.00000000000E+00  0.00000000000E+00  0.35445949285E+03  0.35445949285E+03  0.00000000000E+00 0.  1.
         21   -1    0    0  501  503 -0.00000000000E+00 -0.00000000000E+00 -0.47152874368E+02  0.47152874368E+02  0.00000000000E+00 0.  1.
         24    1    1    2    0    0 -0.70569937804E+02  0.29339673213E+02  0.19846621515E+03  0.22736971447E+03  0.80419002446E+02 0.  1.
          1    1    1    2  501    0 -0.14976363892E+02  0.19753493463E+02 -0.31756184343E+01  0.24991529202E+02  0.00000000000E+00 0. -1.
         -2    1    1    2    0  502  0.85546301696E+02 -0.49093166676E+02  0.11201602176E+03  0.14925112354E+03  0.00000000000E+00 0.  1.
<mgrwt>
<rscale>  2 0.11718162E+03</rscale>
<asrwt>0</asrwt>
<pdfrwt beam="1">  1       21 0.54532228E-01 0.11718162E+03</pdfrwt>
<pdfrwt beam="2">  1       21 0.72542886E-02 0.11718162E+03</pdfrwt>
<totfact> 0.45673098E+05</totfact>
</mgrwt>
</event>
<event>
 5    1  0.1590180E+000  0.1125440E+03  0.7546771E-02  0.1255930E+00
         21   -1    0    0  501  502  0.00000000000E+00  0.00000000000E+00  0.40038206708E+03  0.40038206708E+03  0.00000000000E+00 0. -1.
         21   -1    0    0  502  503 -0.00000000000E+00 -0.00000000000E+00 -0.44889125375E+02  0.44889125375E+02  0.00000000000E+00 0.  1.
         24    1    1    2    0    0 -0.26071190833E+02  0.58270785960E+01  0.91279201892E+02  0.12455027294E+03  0.80419002446E+02 0.  1.
          1    1    1    2  501    0 -0.30923635237E+02  0.51141326626E+02  0.22169164337E+03  0.22960594776E+03  0.00000000000E+00 0. -1.
         -2    1    1    2    0  503  0.56994826070E+02 -0.56968405222E+02  0.42522096437E+02  0.91114971754E+02  0.00000000000E+00 0.  1.
<mgrwt>
<rscale>  2 0.11254400E+03</rscale>
<asrwt>0</asrwt>
<pdfrwt beam="1">  1       21 0.61597239E-01 0.11254400E+03</pdfrwt>
<pdfrwt beam="2">  1       21 0.69060196E-02 0.11254400E+03</pdfrwt>
<totfact> 0.38463473E+05</totfact>
</mgrwt>
</event>
<event>
 5    1  0.1590180E+000  0.8092840E+02  0.7546771E-02  0.1326437E+00
         21   -1    0    0  503  502  0.00000000000E+00  0.00000000000E+00  0.78669802947E+02  0.78669802947E+02  0.00000000000E+00 0.  1.
         21   -1    0    0  501  503 -0.00000000000E+00 -0.00000000000E+00 -0.12008227223E+03  0.12008227223E+03  0.00000000000E+00 0.  1.
         24    1    1    2    0    0 -0.12677699858E+02 -0.13529795788E+02 -0.15642692027E+02  0.83998150075E+02  0.80419002446E+02 0.  0.
          1    1    1    2  501    0 -0.11227087239E+02  0.41234637751E+02 -0.53765204531E+02  0.68680710950E+02  0.00000000000E+00 0. -1.
         -2    1    1    2    0  502  0.23904787098E+02 -0.27704841963E+02  0.27995427273E+02  0.46073214155E+02  0.00000000000E+00 0.  1.
<mgrwt>
<rscale>  2 0.80928399E+02</rscale>
<asrwt>0</asrwt>
<pdfrwt beam="1">  1       21 0.12103047E-01 0.80928399E+02</pdfrwt>
<pdfrwt beam="2">  1       21 0.18474196E-01 0.80928399E+02</pdfrwt>
<totfact> 0.15213564E+06</totfact>
</mgrwt>
</event>
<event>
 5    1  0.1590180E+000  0.1068576E+03  0.7546771E-02  0.1266502E+00
         21   -1    0    0  503  502  0.00000000000E+00  0.00000000000E+00  0.31314027351E+03  0.31314027351E+03  0.00000000000E+00 0. -1.
         21   -1    0    0  501  503 -0.00000000000E+00 -0.00000000000E+00 -0.40428177505E+02  0.40428177505E+02  0.00000000000E+00 0.  1.
         24    1    1    2    0    0  0.37027381991E+02  0.83503576736E+02  0.12338680504E+03  0.17330722419E+03  0.80419002446E+02 0. -1.
          1    1    1    2  501    0 -0.57544169119E+01 -0.25247053537E+02  0.13511711796E+02  0.29207762358E+02  0.00000000000E+00 0. -1.
         -2    1    1    2    0  502 -0.31272965079E+02 -0.58256523199E+02  0.13581357917E+03  0.15105346447E+03  0.00000000000E+00 0.  1.
<mgrwt>
<rscale>  2 0.10685755E+03</rscale>
<asrwt>0</asrwt>
<pdfrwt beam="1">  1       21 0.48175425E-01 0.10685755E+03</pdfrwt>
<pdfrwt beam="2">  1       21 0.62197198E-02 0.10685755E+03</pdfrwt>
<totfact> 0.76646402E+05</totfact>
</mgrwt>
</event>
<event>
 5    1  0.1590180E+000  0.9867038E+02  0.7546771E-02  0.1283117E+00
         21   -1    0    0  501  502  0.00000000000E+00  0.00000000000E+00  0.21390565898E+03  0.21390565898E+03  0.00000000000E+00 0. -1.
         21   -1    0    0  502  503 -0.00000000000E+00 -0.00000000000E+00 -0.69930015463E+02  0.69930015463E+02  0.00000000000E+00 0. -1.
         24    1    1    2    0    0 -0.67101649021E+02  0.31917063572E+02 -0.50009090410E+01  0.10960636521E+03  0.80419002446E+02 0. -1.
          1    1    1    2  501    0  0.83054304455E+01 -0.27680763631E+02  0.69568686042E+02  0.75332641847E+02  0.00000000000E+00 0. -1.
         -2    1    1    2    0  503  0.58796218576E+02 -0.42362999413E+01  0.79407866520E+02  0.98896667392E+02  0.00000000000E+00 0.  1.
<mgrwt>
<rscale>  2 0.98670383E+02</rscale>
<asrwt>0</asrwt>
<pdfrwt beam="1">  1       21 0.32908563E-01 0.98670383E+02</pdfrwt>
<pdfrwt beam="2">  1       21 0.10758464E-01 0.98670383E+02</pdfrwt>
<totfact> 0.63739926E+05</totfact>
</mgrwt>
</event>
<event>
 5    1  0.1590180E+000  0.8478963E+02  0.7546771E-02  0.1315984E+00
         21   -1    0    0  503  502  0.00000000000E+00  0.00000000000E+00  0.69128002646E+02  0.69128002646E+02  0.00000000000E+00 0. -1.
         21   -1    0    0  501  503 -0.00000000000E+00 -0.00000000000E+00 -0.33356492400E+03  0.33356492400E+03  0.00000000000E+00 0. -1.
         24    1    1    2    0    0 -0.66477346774E+01 -0.65132654966E+02 -0.21072014892E+02  0.10581918959E+03  0.80419002446E+02 0. -1.
          1    1    1    2  501    0 -0.34563165136E+00  0.32676014295E+02 -0.25837758873E+03  0.26043582651E+03  0.00000000000E+00 0. -1.
         -2    1    1    2    0  502  0.69933663288E+01  0.32456640672E+02  0.15012682267E+02  0.36437910549E+02  0.00000000000E+00 0.  1.
<mgrwt>
<rscale>  2 0.84789634E+02</rscale>
<asrwt>0</asrwt>
<pdfrwt beam="1">  1       21 0.10635077E-01 0.84789634E+02</pdfrwt>
<pdfrwt beam="2">  1       21 0.51317681E-01 0.84789634E+02</pdfrwt>
<totfact> 0.26916099E+05</totfact>
</mgrwt>
</event>
<event>
 5    1  0.1590180E+000  0.7807199E+02  0.7546771E-02  0.1334614E+00
         21   -1    0    0  503  502  0.00000000000E+00  0.00000000000E+00  0.74722184043E+01  0.74722184043E+01  0.00000000000E+00 0.  1.
         21   -1    0    0  501  503 -0.00000000000E+00 -0.00000000000E+00 -0.16898451031E+04  0.16898451031E+04  0.00000000000E+00 0. -1.
         24    1    1    2    0    0  0.15361581069E+02 -0.15598104072E+02 -0.13272531204E+04  0.13298674146E+04  0.80419002446E+02 0. -1.
          1    1    1    2  501    0  0.23684508869E+02 -0.10422580210E+02 -0.26102805363E+03  0.26230751213E+03  0.00000000000E+00 0. -1.
         -2    1    1    2    0  502 -0.39046089938E+02  0.26020684283E+02 -0.94091710721E+02  0.10514239476E+03  0.00000000000E+00 0.  1.
<mgrwt>
<rscale>  2 0.78071994E+02</rscale>
<asrwt>0</asrwt>
<pdfrwt beam="1">  1       21 0.11495706E-02 0.78071994E+02</pdfrwt>
<pdfrwt beam="2">  1       21 0.25997651E+00 0.78071994E+02</pdfrwt>
<totfact> 0.19263299E+05</totfact>
</mgrwt>
</event>
<event>
 5    1  0.1590180E+000  0.7236469E+02  0.7546771E-02  0.1352232E+00
         21   -1    0    0  501  502  0.00000000000E+00  0.00000000000E+00  0.62699122688E+01  0.62699122688E+01  0.00000000000E+00 0. -1.
         21   -1    0    0  502  503 -0.00000000000E+00 -0.00000000000E+00 -0.17804777739E+04  0.17804777739E+04  0.00000000000E+00 0. -1.
         24    1    1    2    0    0  0.39077391341E+02 -0.18189347653E+02 -0.14056602180E+04  0.14086183867E+04  0.80419002446E+02 0. -1.
          1    1    1    2  501    0 -0.18649182903E+02  0.25672894153E+02 -0.52575510789E+02  0.61409069785E+02  0.00000000000E+00 0. -1.
         -2    1    1    2    0  503 -0.20428208439E+02 -0.74835465007E+01 -0.31597213281E+03  0.31672022967E+03  0.00000000000E+00 0.  1.
<mgrwt>
<rscale>  2 0.72364688E+02</rscale>
<asrwt>0</asrwt>
<pdfrwt beam="1">  1       21 0.96460142E-03 0.72364688E+02</pdfrwt>
<pdfrwt beam="2">  1       21 0.27391979E+00 0.72364688E+02</pdfrwt>
<totfact> 0.21422690E+05</totfact>
</mgrwt>
</event>
<event>
 5    1  0.1590180E+000  0.8408830E+02  0.7546771E-02  0.1317834E+00
         21   -1    0    0  503  502  0.00000000000E+00  0.00000000000E+00  0.94302156974E+02  0.94302156974E+02  0.00000000000E+00 0. -1.
         21   -1    0    0  501  503 -0.00000000000E+00 -0.00000000000E+00 -0.82493189235E+02  0.82493189235E+02  0.00000000000E+00 0. -1.
         24    1    1    2    0    0 -0.13331990452E+02  0.18251732431E+02 -0.14459205741E+02  0.84777074090E+02  0.80419002446E+02 0. -1.
          1    1    1    2  501    0 -0.10246567815E+02 -0.46632118174E+02  0.18644296803E+01  0.47780986756E+02  0.00000000000E+00 0. -1.
         -2    1    1    2    0  502  0.23578558267E+02  0.28380385743E+02  0.24403743800E+02  0.44237285363E+02  0.00000000000E+00 0.  1.
<mgrwt>
<rscale>  2 0.84088302E+02</rscale>
<asrwt>0</asrwt>
<pdfrwt beam="1">  1       21 0.14508024E-01 0.84088302E+02</pdfrwt>
<pdfrwt beam="2">  1       21 0.12691260E-01 0.84088302E+02</pdfrwt>
<totfact> 0.21626408E+06</totfact>
</mgrwt>
</event>
<event>
 5    1  0.1590180E+000  0.1744058E+03  0.7546771E-02  0.1173330E+00
         21   -1    0    0  501  502  0.00000000000E+00  0.00000000000E+00  0.16704910502E+03  0.16704910502E+03  0.00000000000E+00 0.  1.
         21   -1    0    0  502  503 -0.00000000000E+00 -0.00000000000E+00 -0.23839542245E+03  0.23839542245E+03  0.00000000000E+00 0.  1.
         24    1    1    2    0    0  0.11800310543E+03  0.77145722641E+00 -0.54772195262E+02  0.15294619108E+03  0.80419002446E+02 0.  1.
          1    1    1    2  501    0  0.32126945407E+02  0.39166929531E+02  0.60640661179E+02  0.79015686913E+02  0.00000000000E+00 0. -1.
         -2    1    1    2    0  503 -0.15013005083E+03 -0.39938386758E+02 -0.77214783348E+02  0.17348264947E+03  0.00000000000E+00 0.  1.
<mgrwt>
<rscale>  2 0.17440579E+03</rscale>
<asrwt>0</asrwt>
<pdfrwt beam="1">  1       21 0.25699862E-01 0.17440579E+03</pdfrwt>
<pdfrwt beam="2">  1       21 0.36676219E-01 0.17440579E+03</pdfrwt>
<totfact> 0.10372046E+05</totfact>
</mgrwt>
</event>
<event>
 5    1  0.1590180E+000  0.1001955E+03  0.7546771E-02  0.1279885E+00
         21   -1    0    0  501  502  0.00000000000E+00  0.00000000000E+00  0.60216182319E+01  0.60216182319E+01  0.00000000000E+00 0. -1.
         21   -1    0    0  502  503 -0.00000000000E+00 -0.00000000000E+00 -0.17059425992E+04  0.17059425992E+04  0.00000000000E+00 0.  1.
         24    1    1    2    0    0  0.57210657174E+02 -0.20024085057E+02 -0.78559834033E+03  0.79202650938E+03  0.80419002446E+02 0.  1.
          1    1    1    2  501    0 -0.37837923155E+02  0.50786949546E+02 -0.49340857111E+03  0.49745657169E+03  0.00000000000E+00 0. -1.
         -2    1    1    2    0  503 -0.19372734018E+02 -0.30762864490E+02 -0.42091406953E+03  0.42248113636E+03  0.00000000000E+00 0.  1.
<mgrwt>
<rscale>  2 0.10019548E+03</rscale>
<asrwt>0</asrwt>
<pdfrwt beam="1">  1       21 0.92640363E-03 0.10019548E+03</pdfrwt>
<pdfrwt beam="2">  1       21 0.26245247E+00 0.10019548E+03</pdfrwt>
<totfact> 0.25519257E+05</totfact>
</mgrwt>
</event>
<event>
 5    1  0.1590180E+000  0.9098899E+02  0.7546771E-02  0.1300474E+00
         21   -1    0    0  503  502  0.00000000000E+00  0.00000000000E+00  0.52224979183E+03  0.52224979183E+03  0.00000000000E+00 0.  1.
         21   -1    0    0  501  503 -0.00000000000E+00 -0.00000000000E+00 -0.21870606691E+02  0.21870606691E+02  0.00000000000E+00 0.  1.
         24    1    1    2    0    0  0.25315012658E+02  0.68570739268E+02  0.41029153183E+03  0.42443981104E+03  0.80419002446E+02 0.  1.
          1    1    1    2  501    0 -0.12423873374E+02 -0.25846798383E+02  0.15078758236E+02  0.32400286514E+02  0.00000000000E+00 0. -1.
         -2    1    1    2    0  502 -0.12891139285E+02 -0.42723940885E+02  0.75008895068E+02  0.87280300963E+02  0.00000000000E+00 0.  1.
<mgrwt>
<rscale>  2 0.90988988E+02</rscale>
<asrwt>0</asrwt>
<pdfrwt beam="1">  1       21 0.80346112E-01 0.90988988E+02</pdfrwt>
<pdfrwt beam="2">  1       21 0.33647091E-02 0.90988988E+02</pdfrwt>
<totfact> 0.71806259E+05</totfact>
</mgrwt>
</event>
<event>
 5    1  0.1590180E+000  0.8406780E+02  0.7546771E-02  0.1317888E+00
         21   -1    0    0  501  502  0.00000000000E+00  0.00000000000E+00  0.22296834682E+03  0.22296834682E+03  0.00000000000E+00 0. -1.
         21   -1    0    0  502  503 -0.00000000000E+00 -0.00000000000E+00 -0.31893599182E+02  0.31893599182E+02  0.00000000000E+00 0.  1.
         24    1    1    2    0    0 -0.48901438890E+01 -0.43545437320E+02  0.98462691136E+02  0.13447020532E+03  0.80419002446E+02 0.  0.
          1    1    1    2  501    0  0.32853800994E+02  0.13531701154E+02  0.48898636788E+02  0.60444651174E+02  0.00000000000E+00 0. -1.
         -2    1    1    2    0  503 -0.27963657105E+02  0.30013736167E+02  0.43713419715E+02  0.59947089509E+02  0.00000000000E+00 0.  1.
<mgrwt>
<rscale>  2 0.84067802E+02</rscale>
<asrwt>0</asrwt>
<pdfrwt beam="1">  1       21 0.34302822E-01 0.84067802E+02</pdfrwt>
<pdfrwt beam="2">  1       21 0.49067077E-02 0.84067802E+02</pdfrwt>
<totfact> 0.22261929E+06</totfact>
</mgrwt>
</event>
<event>
 5    1  0.1590180E+000  0.7023312E+02  0.7546771E-02  0.1359302E+00
         21   -1    0    0  501  502  0.00000000000E+00  0.00000000000E+00  0.12831905868E+02  0.12831905868E+02  0.00000000000E+00 0. -1.
         21   -1    0    0  502  503 -0.00000000000E+00 -0.00000000000E+00 -0.59277121739E+03  0.59277121739E+03  0.00000000000E+00 0. -1.
         24    1    1    2    0    0 -0.11793334202E+01 -0.21597100572E+02 -0.45382971925E+03  0.46140703897E+03  0.80419002446E+02 0. -1.
          1    1    1    2  501    0 -0.18675448800E+02 -0.89872773935E+01 -0.11030096994E+02  0.23477789132E+02  0.00000000000E+00 0. -1.
         -2    1    1    2    0  503  0.19854782220E+02  0.30584377965E+02 -0.11507949527E+03  0.12071829515E+03  0.00000000000E+00 0.  1.
<mgrwt>
<rscale>  2 0.70233118E+02</rscale>
<asrwt>0</asrwt>
<pdfrwt beam="1">  1       21 0.19741393E-02 0.70233118E+02</pdfrwt>
<pdfrwt beam="2">  1       21 0.91195576E-01 0.70233118E+02</pdfrwt>
<totfact> 0.12733982E+06</totfact>
</mgrwt>
</event>
<event>
 5    1  0.1590180E+000  0.8513098E+02  0.7546771E-02  0.1315090E+00
         21   -1    0    0  503  502  0.00000000000E+00  0.00000000000E+00  0.77851166120E+02  0.77851166120E+02  0.00000000000E+00 0.  1.
         21   -1    0    0  501  503 -0.00000000000E+00 -0.00000000000E+00 -0.16905917115E+03  0.16905917115E+03  0.00000000000E+00 0. -1.
         24    1    1    2    0    0  0.43819962440E+02  0.40839294294E+02 -0.52589073438E+02  0.11322925270E+03  0.80419002446E+02 0. -1.
          1    1    1    2  501    0 -0.21359008297E+02 -0.42394803833E+02 -0.76255372792E+02  0.89824320243E+02  0.00000000000E+00 0. -1.
         -2    1    1    2    0  502 -0.22460954142E+02  0.15555095385E+01  0.37636441203E+02  0.43856764328E+02  0.00000000000E+00 0.  1.
<mgrwt>
<rscale>  2 0.85130981E+02</rscale>
<asrwt>0</asrwt>
<pdfrwt beam="1">  1       21 0.11977102E-01 0.85130981E+02</pdfrwt>
<pdfrwt beam="2">  1       21 0.26009103E-01 0.85130981E+02</pdfrwt>
<totfact> 0.82604387E+05</totfact>
</mgrwt>
</event>
<event>
 5    1  0.1590180E+000  0.6184156E+02  0.7546771E-02  0.1390262E+00
         21   -1    0    0  501  502  0.00000000000E+00  0.00000000000E+00  0.81337519492E+01  0.81337519492E+01  0.00000000000E+00 0. -1.
         21   -1    0    0  502  503 -0.00000000000E+00 -0.00000000000E+00 -0.52212949009E+03  0.52212949009E+03  0.00000000000E+00 0. -1.
         24    1    1    2    0    0 -0.11426779655E+02 -0.33454999705E+01 -0.25006235464E+03  0.26294516696E+03  0.80419002446E+02 0. -1.
          1    1    1    2  501    0 -0.31267236594E+01  0.20015633981E+02 -0.12990254604E+03  0.13147270999E+03  0.00000000000E+00 0. -1.
         -2    1    1    2    0  503  0.14553503315E+02 -0.16670134011E+02 -0.13403083746E+03  0.13584536509E+03  0.00000000000E+00 0.  1.
<mgrwt>
<rscale>  2 0.61841565E+02</rscale>
<asrwt>0</asrwt>
<pdfrwt beam="1">  1       21 0.12513461E-02 0.61841565E+02</pdfrwt>
<pdfrwt beam="2">  1       21 0.80327635E-01 0.61841565E+02</pdfrwt>
<totfact> 0.34371709E+06</totfact>
</mgrwt>
</event>
<event>
 5    1  0.1590180E+000  0.6361366E+02  0.7546771E-02  0.1383264E+00
         21   -1    0    0  501  502  0.00000000000E+00  0.00000000000E+00  0.14547433019E+02  0.14547433019E+02  0.00000000000E+00 0.  1.
         21   -1    0    0  502  503 -0.00000000000E+00 -0.00000000000E+00 -0.54520702042E+03  0.54520702042E+03  0.00000000000E+00 0.  1.
         24    1    1    2    0    0  0.25440043292E+02 -0.80530329275E+01 -0.24116542920E+03  0.25561695432E+03  0.80419002446E+02 0.  1.
          1    1    1    2  501    0 -0.72600482703E+01  0.19639561799E+02 -0.89580525302E+01  0.22774270431E+02  0.00000000000E+00 0. -1.
         -2    1    1    2    0  503 -0.18179995022E+02 -0.11586528871E+02 -0.28053610568E+03  0.28136322869E+03  0.00000000000E+00 0.  1.
<mgrwt>
<rscale>  2 0.63613660E+02</rscale>
<asrwt>0</asrwt>
<pdfrwt beam="1">  1       21 0.22380663E-02 0.63613660E+02</pdfrwt>
<pdfrwt beam="2">  1       21 0.83878015E-01 0.63613660E+02</pdfrwt>
<totfact> 0.12529862E+06</totfact>
</mgrwt>
</event>
<event>
 5    1  0.1590180E+000  0.1238532E+03  0.7546771E-02  0.1236872E+00
         21   -1    0    0  503  502  0.00000000000E+00  0.00000000000E+00  0.58189772870E+02  0.58189772870E+02  0.00000000000E+00 0.  1.
         21   -1    0    0  501  503 -0.00000000000E+00 -0.00000000000E+00 -0.38247192582E+03  0.38247192582E+03  0.00000000000E+00 0.  1.
         24    1    1    2    0    0  0.16771518656E+02  0.83783211122E+02 -0.22946929271E+03  0.25772908753E+03  0.80419002446E+02 0.  1.
          1    1    1    2  501    0 -0.26532870385E+02  0.15418839855E+02 -0.75363255214E+02  0.81371703127E+02  0.00000000000E+00 0. -1.
         -2    1    1    2    0  502  0.97613517284E+01 -0.99202050977E+02 -0.19449605021E+02  0.10156090804E+03  0.00000000000E+00 0.  1.
<mgrwt>
<rscale>  2 0.12385324E+03</rscale>
<asrwt>0</asrwt>
<pdfrwt beam="1">  1       21 0.89522731E-02 0.12385324E+03</pdfrwt>
<pdfrwt beam="2">  1       21 0.58841832E-01 0.12385324E+03</pdfrwt>
<totfact> 0.27074591E+05</totfact>
</mgrwt>
</event>
<event>
 5    1  0.1590180E+000  0.6629284E+02  0.7546771E-02  0.1373173E+00
         21   -1    0    0  503  502  0.00000000000E+00  0.00000000000E+00  0.15578368423E+02  0.15578368423E+02  0.00000000000E+00 0. -1.
         21   -1    0    0  501  503 -0.00000000000E+00 -0.00000000000E+00 -0.28695859040E+03  0.28695859040E+03  0.00000000000E+00 0.  1.
         24    1    1    2    0    0 -0.16031673005E+02 -0.15922197573E+01 -0.18526910743E+03  0.20261147012E+03  0.80419002446E+02 0.  0.
          1    1    1    2  501    0 -0.63871725207E+01 -0.19051159907E+02 -0.37707784823E+02  0.42727271184E+02  0.00000000000E+00 0. -1.
         -2    1    1    2    0  502  0.22418845526E+02  0.20643379664E+02 -0.48403329722E+02  0.57198217514E+02  0.00000000000E+00 0.  1.
<mgrwt>
<rscale>  2 0.66292836E+02</rscale>
<asrwt>0</asrwt>
<pdfrwt beam="1">  1       21 0.23966721E-02 0.66292836E+02</pdfrwt>
<pdfrwt beam="2">  1       21 0.44147475E-01 0.66292836E+02</pdfrwt>
<totfact> 0.42985894E+06</totfact>
</mgrwt>
</event>
<event>
 5    1  0.1590180E+000  0.7054093E+02  0.7546771E-02  0.1358263E+00
         21   -1    0    0  503  502  0.00000000000E+00  0.00000000000E+00  0.31848351367E+03  0.31848351367E+03  0.00000000000E+00 0.  1.
         21   -1    0    0  501  503 -0.00000000000E+00 -0.00000000000E+00 -0.68326817272E+02  0.68326817272E+02  0.00000000000E+00 0. -1.
         24    1    1    2    0    0  0.13743035932E+02  0.60091301201E+01  0.17544447583E+02  0.83666028212E+02  0.80419002446E+02 0. -1.
          1    1    1    2  501    0 -0.20617209593E+02 -0.28829348342E+02 -0.25671490506E+02  0.43763296060E+02  0.00000000000E+00 0. -1.
         -2    1    1    2    0  502  0.68741736612E+01  0.22820218222E+02  0.25828373932E+03  0.25938100667E+03  0.00000000000E+00 0.  1.
<mgrwt>
<rscale>  2 0.70540934E+02</rscale>
<asrwt>0</asrwt>
<pdfrwt beam="1">  1       21 0.48997463E-01 0.70540934E+02</pdfrwt>
<pdfrwt beam="2">  1       21 0.10511818E-01 0.70540934E+02</pdfrwt>
<totfact> 0.30251276E+05</totfact>
</mgrwt>
</event>
<event>
 5    1  0.1590180E+000  0.8452923E+02  0.7546771E-02  0.1316668E+00
         21   -1    0    0  501  502  0.00000000000E+00  0.00000000000E+00  0.25282907838E+03  0.25282907838E+03  0.00000000000E+00 0.  1.
         21   -1    0    0  502  503 -0.00000000000E+00 -0.00000000000E+00 -0.33581920472E+02  0.33581920472E+02  0.00000000000E+00 0. -1.
         24    1    1    2    0    0  0.72633748255E+01  0.54260946698E+02  0.13033820444E+03  0.16264153972E+03  0.80419002446E+02 0.  0.
          1    1    1    2  501    0 -0.20921193025E+02 -0.62150810489E+01  0.64662243118E+02  0.68246093185E+02  0.00000000000E+00 0. -1.
         -2    1    1    2    0  503  0.13657818199E+02 -0.48045865649E+02  0.24246710353E+02  0.55523365954E+02  0.00000000000E+00 0.  1.
<mgrwt>
<rscale>  2 0.84529231E+02</rscale>
<asrwt>0</asrwt>
<pdfrwt beam="1">  1       21 0.38896780E-01 0.84529231E+02</pdfrwt>
<pdfrwt beam="2">  1       21 0.51664495E-02 0.84529231E+02</pdfrwt>
<totfact> 0.15992931E+06</totfact>
</mgrwt>
</event>
<event>
 5    1  0.1590180E+000  0.7077614E+02  0.7546771E-02  0.1357473E+00
         21   -1    0    0  501  502  0.00000000000E+00  0.00000000000E+00  0.30560370385E+03  0.30560370385E+03  0.00000000000E+00 0.  1.
         21   -1    0    0  502  503 -0.00000000000E+00 -0.00000000000E+00 -0.48145294410E+02  0.48145294410E+02  0.00000000000E+00 0.  1.
         24    1    1    2    0    0  0.30622790121E+02 -0.40952731994E+01  0.66858845719E+02  0.10904974893E+03  0.80419002446E+02 0.  0.
          1    1    1    2  501    0 -0.22709918973E+02  0.24566614286E+02  0.21165639486E+03  0.21428413017E+03  0.00000000000E+00 0. -1.
         -2    1    1    2    0  503 -0.79128711485E+01 -0.20471341087E+02 -0.21056831139E+02  0.30415119156E+02  0.00000000000E+00 0.  1.
<mgrwt>
<rscale>  2 0.70776143E+02</rscale>
<asrwt>0</asrwt>
<pdfrwt beam="1">  1       21 0.47015953E-01 0.70776143E+02</pdfrwt>
<pdfrwt beam="2">  1       21 0.74069686E-02 0.70776143E+02</pdfrwt>
<totfact> 0.59754154E+05</totfact>
</mgrwt>
</event>
<event>
 5    1  0.1590180E+000  0.8832162E+02  0.7546771E-02  0.1306968E+00
         21   -1    0    0  501  502  0.00000000000E+00  0.00000000000E+00  0.63046086792E+02  0.63046086792E+02  0.00000000000E+00 0.  1.
         21   -1    0    0  502  503 -0.00000000000E+00 -0.00000000000E+00 -0.21842661261E+03  0.21842661261E+03  0.00000000000E+00 0.  1.
         24    1    1    2    0    0  0.36339584902E+02 -0.28443690240E+02 -0.17073775909E+02  0.94277986420E+02  0.80419002446E+02 0.  1.
          1    1    1    2  501    0 -0.29185202211E+02 -0.19725871850E+02  0.52388183225E+01  0.35613638760E+02  0.00000000000E+00 0. -1.
         -2    1    1    2    0  503 -0.71543826916E+01  0.48169562090E+02 -0.14354556823E+03  0.15158107423E+03  0.00000000000E+00 0.  1.
<mgrwt>
<rscale>  2 0.88321622E+02</rscale>
<asrwt>0</asrwt>
<pdfrwt beam="1">  1       21 0.96993982E-02 0.88321622E+02</pdfrwt>
<pdfrwt beam="2">  1       21 0.33604094E-01 0.88321622E+02</pdfrwt>
<totfact> 0.73232585E+05</totfact>
</mgrwt>
</event>
<event>
 5    1  0.2255149E+000  0.1213921E+03  0.7546771E-02  0.1240818E+00
         21   -1    0    0  501  502  0.00000000000E+00  0.00000000000E+00  0.32702877887E+03  0.32702877887E+03  0.00000000000E+00 0.  1.
         21   -1    0    0  502  503 -0.00000000000E+00 -0.00000000000E+00 -0.12476405877E+03  0.12476405877E+03  0.00000000000E+00 0.  1.
         24    1    1    2    0    0  0.82710196205E+02 -0.39943526558E+02  0.21864632644E+03  0.25041943593E+03  0.80419002446E+02 0.  1.
          1    1    1    2  501    0  0.12461945336E+02  0.19843257469E+02  0.68423405701E+02  0.72324390051E+02  0.00000000000E+00 0. -1.
         -2    1    1    2    0  503 -0.95172141541E+02  0.20100269090E+02 -0.84805012040E+02  0.12904901166E+03  0.00000000000E+00 0.  1.
<mgrwt>
<rscale>  2 0.12139205E+03</rscale>
<asrwt>0</asrwt>
<pdfrwt beam="1">  1       21 0.50312120E-01 0.12139205E+03</pdfrwt>
<pdfrwt beam="2">  1       21 0.19194471E-01 0.12139205E+03</pdfrwt>
<totfact> 0.96439927E+04</totfact>
</mgrwt>
</event>
<event>
 5    1  0.1590180E+000  0.9044841E+02  0.7546771E-02  0.1301769E+00
         21   -1    0    0  501  502  0.00000000000E+00  0.00000000000E+00  0.16695449631E+02  0.16695449631E+02  0.00000000000E+00 0.  1.
         21   -1    0    0  502  503 -0.00000000000E+00 -0.00000000000E+00 -0.61712592961E+03  0.61712592961E+03  0.00000000000E+00 0. -1.
         24    1    1    2    0    0 -0.17098177771E+02 -0.12034618959E+02 -0.13813732597E+03  0.16120271870E+03  0.80419002446E+02 0.  1.
          1    1    1    2  501    0  0.52490609567E+02  0.27409894021E+02 -0.30148852700E+03  0.30724891911E+03  0.00000000000E+00 0. -1.
         -2    1    1    2    0  503 -0.35392431796E+02 -0.15375275062E+02 -0.16080462700E+03  0.16536974142E+03  0.00000000000E+00 0.  1.
<mgrwt>
<rscale>  2 0.90448413E+02</rscale>
<asrwt>0</asrwt>
<pdfrwt beam="1">  1       21 0.25685311E-02 0.90448413E+02</pdfrwt>
<pdfrwt beam="2">  1       21 0.94942438E-01 0.90448413E+02</pdfrwt>
<totfact> 0.76506268E+05</totfact>
</mgrwt>
</event>
<event>
 5    1  0.1590180E+000  0.9076301E+02  0.7546771E-02  0.1301014E+00
         21   -1    0    0  501  502  0.00000000000E+00  0.00000000000E+00  0.15834262711E+03  0.15834262711E+03  0.00000000000E+00 0. -1.
         21   -1    0    0  502  503 -0.00000000000E+00 -0.00000000000E+00 -0.16103761030E+03  0.16103761030E+03  0.00000000000E+00 0.  1.
         24    1    1    2    0    0 -0.11886712047E+02  0.16539934852E+02  0.10017322536E+03  0.13006442404E+03  0.80419002446E+02 0. -1.
          1    1    1    2  501    0  0.43006487915E+02 -0.40668094075E+02  0.18264086295E+02  0.61943754541E+02  0.00000000000E+00 0. -1.
         -2    1    1    2    0  503 -0.31119775868E+02  0.24128159223E+02 -0.12113229484E+03  0.12737205883E+03  0.00000000000E+00 0.  1.
<mgrwt>
<rscale>  2 0.90763015E+02</rscale>
<asrwt>0</asrwt>
<pdfrwt beam="1">  1       21 0.24360404E-01 0.90763015E+02</pdfrwt>
<pdfrwt beam="2">  1       21 0.24775017E-01 0.90763015E+02</pdfrwt>
<totfact> 0.25112562E+05</totfact>
</mgrwt>
</event>
<event>
 5    1  0.1590180E+000  0.6783674E+02  0.7546771E-02  0.1367608E+00
         21   -1    0    0  503  502  0.00000000000E+00  0.00000000000E+00  0.10415050394E+03  0.10415050394E+03  0.00000000000E+00 0.  1.
         21   -1    0    0  501  503 -0.00000000000E+00 -0.00000000000E+00 -0.37790140181E+03  0.37790140181E+03  0.00000000000E+00 0. -1.
         24    1    1    2    0    0  0.20935904650E+02 -0.37337656682E+02  0.75790831186E+01  0.91417017920E+02  0.80419002446E+02 0. -1.
          1    1    1    2  501    0 -0.15486871950E+02  0.14933875250E+02 -0.33318813285E+03  0.33388200866E+03  0.00000000000E+00 0. -1.
         -2    1    1    2    0  502 -0.54490327005E+01  0.22403781432E+02  0.51858151864E+02  0.56752879174E+02  0.00000000000E+00 0.  1.
<mgrwt>
<rscale>  2 0.67836742E+02</rscale>
<asrwt>0</asrwt>
<pdfrwt beam="1">  1       21 0.16023154E-01 0.67836742E+02</pdfrwt>
<pdfrwt beam="2">  1       21 0.58138677E-01 0.67836742E+02</pdfrwt>
<totfact> 0.10197820E+05</totfact>
</mgrwt>
</event>
<event>
 5    1  0.1590180E+000  0.7940111E+02  0.7546771E-02  0.1330760E+00
         21   -1    0    0  501  502  0.00000000000E+00  0.00000000000E+00  0.93678024109E+03  0.93678024109E+03  0.00000000000E+00 0. -1.
         21   -1    0    0  502  503 -0.00000000000E+00 -0.00000000000E+00 -0.68925536388E+02  0.68925536388E+02  0.00000000000E+00 0.  1.
         24    1    1    2    0    0 -0.17886980982E+02 -0.56260953586E+02  0.22170494806E+02  0.10219582076E+03  0.80419002446E+02 0.  1.
          1    1    1    2  501    0  0.81355573034E+01  0.26764719046E+02  0.86596046895E+03  0.86641218324E+03  0.00000000000E+00 0. -1.
         -2    1    1    2    0  503  0.97514236782E+01  0.29496234541E+02 -0.20276259054E+02  0.37097773479E+02  0.00000000000E+00 0.  1.
<mgrwt>
<rscale>  2 0.79401107E+02</rscale>
<asrwt>0</asrwt>
<pdfrwt beam="1">  1       21 0.14412003E+00 0.79401107E+02</pdfrwt>
<pdfrwt beam="2">  1       21 0.10603929E-01 0.79401107E+02</pdfrwt>
<totfact> 0.26656900E+04</totfact>
</mgrwt>
</event>
<event>
 5    1  0.1590180E+000  0.6782950E+02  0.7546771E-02  0.1367633E+00
         21   -1    0    0  503  502  0.00000000000E+00  0.00000000000E+00  0.39034223487E+02  0.39034223487E+02  0.00000000000E+00 0.  1.
         21   -1    0    0  501  503 -0.00000000000E+00 -0.00000000000E+00 -0.11911191876E+03  0.11911191876E+03  0.00000000000E+00 0.  1.
         24    1    1    2    0    0  0.17237200568E+02  0.32233369828E+02 -0.59283899395E+02  0.10638565644E+03  0.80419002446E+02 0.  1.
          1    1    1    2  501    0  0.40070709275E+01 -0.24326908713E+02 -0.12310029613E+02  0.27557066862E+02  0.00000000000E+00 0. -1.
         -2    1    1    2    0  502 -0.21244271495E+02 -0.79064611146E+01 -0.84837662668E+01  0.24203418949E+02  0.00000000000E+00 0.  1.
<mgrwt>
<rscale>  2 0.67829503E+02</rscale>
<asrwt>0</asrwt>
<pdfrwt beam="1">  1       21 0.60052651E-02 0.67829503E+02</pdfrwt>
<pdfrwt beam="2">  1       21 0.18324911E-01 0.67829503E+02</pdfrwt>
<totfact> 0.50534017E+06</totfact>
</mgrwt>
</event>
<event>
 5    1  0.1590180E+000  0.6489860E+02  0.7546771E-02  0.1378353E+00
         21   -1    0    0  503  502  0.00000000000E+00  0.00000000000E+00  0.63090371200E+02  0.63090371200E+02  0.00000000000E+00 0. -1.
         21   -1    0    0  501  503 -0.00000000000E+00 -0.00000000000E+00 -0.13075663594E+03  0.13075663594E+03  0.00000000000E+00 0.  1.
         24    1    1    2    0    0 -0.32620347182E+01 -0.90998011208E+00 -0.10307119759E+03  0.13077597892E+03  0.80419002446E+02 0.  1.
          1    1    1    2  501    0  0.14139221727E+02  0.21667171865E+02  0.81482589885E+01  0.27125229072E+02  0.00000000000E+00 0. -1.
         -2    1    1    2    0  502 -0.10877187008E+02 -0.20757191753E+02  0.27256673862E+02  0.35945799152E+02  0.00000000000E+00 0.  1.
<mgrwt>
<rscale>  2 0.64898600E+02</rscale>
<asrwt>0</asrwt>
<pdfrwt beam="1">  1       21 0.97062110E-02 0.64898600E+02</pdfrwt>
<pdfrwt beam="2">  1       21 0.20116405E-01 0.64898600E+02</pdfrwt>
<totfact> 0.18923291E+06</totfact>
</mgrwt>
</event>
<event>
 5    1  0.1590180E+000  0.7377635E+02  0.7546771E-02  0.1347703E+00
         21   -1    0    0  501  502  0.00000000000E+00  0.00000000000E+00  0.20318169022E+03  0.20318169022E+03  0.00000000000E+00 0. -1.
         21   -1    0    0  502  503 -0.00000000000E+00 -0.00000000000E+00 -0.55908597942E+02  0.55908597942E+02  0.00000000000E+00 0.  1.
         24    1    1    2    0    0 -0.21475976727E+02 -0.42364172260E+02  0.17411044134E+03  0.19757935723E+03  0.80419002446E+02 0. -1.
          1    1    1    2  501    0  0.18728290775E+02  0.91800688765E+01 -0.42796670686E+01  0.21291737603E+02  0.00000000000E+00 0. -1.
         -2    1    1    2    0  503  0.27476859515E+01  0.33184103383E+02 -0.22557681987E+02  0.40219193329E+02  0.00000000000E+00 0.  1.
<mgrwt>
<rscale>  2 0.73776350E+02</rscale>
<asrwt>0</asrwt>
<pdfrwt beam="1">  1       21 0.31258721E-01 0.73776350E+02</pdfrwt>
<pdfrwt beam="2">  1       21 0.86013229E-02 0.73776350E+02</pdfrwt>
<totfact> 0.10308918E+06</totfact>
</mgrwt>
</event>
<event>
 5    1  0.1590180E+000  0.9399987E+02  0.7546771E-02  0.1293445E+00
         21   -1    0    0  501  502  0.00000000000E+00  0.00000000000E+00  0.13948586162E+03  0.13948586162E+03  0.00000000000E+00 0. -1.
         21   -1    0    0  502  503 -0.00000000000E+00 -0.00000000000E+00 -0.14907070255E+03  0.14907070255E+03  0.00000000000E+00 0. -1.
         24    1    1    2    0    0 -0.33268940797E+02 -0.47126483718E+02 -0.66755589225E+02  0.11937861005E+03  0.80419002446E+02 0. -1.
          1    1    1    2  501    0  0.15087485265E+02  0.63069392747E+02  0.10047174682E+03  0.11958240850E+03  0.00000000000E+00 0. -1.
         -2    1    1    2    0  503  0.18181455532E+02 -0.15942909029E+02 -0.43300998522E+02  0.49595545632E+02  0.00000000000E+00 0.  1.
<mgrwt>
<rscale>  2 0.93999873E+02</rscale>
<asrwt>0</asrwt>
<pdfrwt beam="1">  1       21 0.21459363E-01 0.93999873E+02</pdfrwt>
<pdfrwt beam="2">  1       21 0.22933954E-01 0.93999873E+02</pdfrwt>
<totfact> 0.36669486E+05</totfact>
</mgrwt>
</event>
<event>
 5    1  0.1590180E+000  0.1309257E+03  0.7546771E-02  0.1226089E+00
         21   -1    0    0  501  502  0.00000000000E+00  0.00000000000E+00  0.18541778028E+02  0.18541778028E+02  0.00000000000E+00 0.  1.
         21   -1    0    0  502  503 -0.00000000000E+00 -0.00000000000E+00 -0.12593456585E+04  0.12593456585E+04  0.00000000000E+00 0.  1.
         24    1    1    2    0    0  0.71454095620E+02  0.63487458105E+02 -0.28364428323E+03  0.30993167067E+03  0.80419002446E+02 0.  1.
          1    1    1    2  501    0 -0.68083558290E+02  0.50931095712E+01 -0.32601894244E+03  0.33309107088E+03  0.00000000000E+00 0. -1.
         -2    1    1    2    0  503 -0.33705373304E+01 -0.68580567676E+02 -0.63114065480E+03  0.63486469498E+03  0.00000000000E+00 0.  1.
<mgrwt>
<rscale>  2 0.13092568E+03</rscale>
<asrwt>0</asrwt>
<pdfrwt beam="1">  1       21 0.28525812E-02 0.13092568E+03</pdfrwt>
<pdfrwt beam="2">  1       21 0.19374549E+00 0.13092568E+03</pdfrwt>
<totfact> 0.10513403E+05</totfact>
</mgrwt>
</event>
<event>
 5    1  0.1590180E+000  0.1093573E+03  0.7546771E-02  0.1261765E+00
         21   -1    0    0  501  502  0.00000000000E+00  0.00000000000E+00  0.12358354319E+03  0.12358354319E+03  0.00000000000E+00 0. -1.
         21   -1    0    0  502  503 -0.00000000000E+00 -0.00000000000E+00 -0.22486710834E+03  0.22486710834E+03  0.00000000000E+00 0. -1.
         24    1    1    2    0    0  0.34456408883E+02 -0.87964356360E+02 -0.18107050346E+03  0.21949650403E+03  0.80419002446E+02 0. -1.
          1    1    1    2  501    0 -0.18136827645E+02  0.54070816632E+02  0.69598870743E+02  0.89981112113E+02  0.00000000000E+00 0. -1.
         -2    1    1    2    0  503 -0.16319581238E+02  0.33893539728E+02  0.10188067562E+02  0.38973035392E+02  0.00000000000E+00 0.  1.
<mgrwt>
<rscale>  2 0.10935732E+03</rscale>
<asrwt>0</asrwt>
<pdfrwt beam="1">  1       21 0.19012853E-01 0.10935732E+03</pdfrwt>
<pdfrwt beam="2">  1       21 0.34594940E-01 0.10935732E+03</pdfrwt>
<totfact> 0.20888062E+05</totfact>
</mgrwt>
</event>
<event>
 5    1  0.1590180E+000  0.7743044E+02  0.7546771E-02  0.1336506E+00
         21   -1    0    0  503  502  0.00000000000E+00  0.00000000000E+00  0.37318825145E+03  0.37318825145E+03  0.00000000000E+00 0.  1.
         21   -1    0    0  501  503 -0.00000000000E+00 -0.00000000000E+00 -0.50611074606E+02  0.50611074606E+02  0.00000000000E+00 0. -1.
         24    1    1    2    0    0 -0.48645084404E+02 -0.28225353943E+02  0.54115281227E+02  0.11206558106E+03  0.80419002446E+02 0. -1.
          1    1    1    2  501    0  0.30889629642E+02  0.13718650023E+02 -0.76644640699E+01  0.34657100100E+02  0.00000000000E+00 0. -1.
         -2    1    1    2    0  502  0.17755454762E+02  0.14506703920E+02  0.27612635969E+03  0.27707664490E+03  0.00000000000E+00 0.  1.
<mgrwt>
<rscale>  2 0.77430437E+02</rscale>
<asrwt>0</asrwt>
<pdfrwt beam="1">  1       21 0.57413575E-01 0.77430437E+02</pdfrwt>
<pdfrwt beam="2">  1       21 0.77863194E-02 0.77430437E+02</pdfrwt>
<totfact> 0.36524779E+05</totfact>
</mgrwt>
</event>
<event>
 5    1  0.1590180E+000  0.7982863E+02  0.7546771E-02  0.1329538E+00
         21   -1    0    0  501  502  0.00000000000E+00  0.00000000000E+00  0.40490926513E+02  0.40490926513E+02  0.00000000000E+00 0.  1.
         21   -1    0    0  502  503 -0.00000000000E+00 -0.00000000000E+00 -0.28238233974E+03  0.28238233974E+03  0.00000000000E+00 0. -1.
         24    1    1    2    0    0  0.91950317759E+01 -0.35636751084E+02 -0.15982990363E+03  0.18266729506E+03  0.80419002446E+02 0. -1.
          1    1    1    2  501    0 -0.22761462266E+02 -0.90660860879E+01  0.17581086613E+02  0.30155806869E+02  0.00000000000E+00 0. -1.
         -2    1    1    2    0  503  0.13566430490E+02  0.44702837171E+02 -0.99642596207E+02  0.11005016432E+03  0.00000000000E+00 0.  1.
<mgrwt>
<rscale>  2 0.79828632E+02</rscale>
<asrwt>0</asrwt>
<pdfrwt beam="1">  1       21 0.62293734E-02 0.79828632E+02</pdfrwt>
<pdfrwt beam="2">  1       21 0.43443437E-01 0.79828632E+02</pdfrwt>
<totfact> 0.93849727E+05</totfact>
</mgrwt>
</event>
<event>
 5    1  0.1590180E+000  0.8232332E+02  0.7546771E-02  0.1322585E+00
         21   -1    0    0  503  502  0.00000000000E+00  0.00000000000E+00  0.78781299078E+02  0.78781299078E+02  0.00000000000E+00 0.  1.
         21   -1    0    0  501  503 -0.00000000000E+00 -0.00000000000E+00 -0.18069923125E+03  0.18069923125E+03  0.00000000000E+00 0. -1.
         24    1    1    2    0    0 -0.22038948257E+02 -0.42157526322E+01 -0.92149489552E+01  0.83997732405E+02  0.80419002446E+02 0. -1.
          1    1    1    2  501    0  0.36113481624E+02  0.33123720217E+02 -0.12231862512E+03  0.13176953535E+03  0.00000000000E+00 0. -1.
         -2    1    1    2    0  502 -0.14074533367E+02 -0.28907967585E+02  0.29615641901E+02  0.43713262571E+02  0.00000000000E+00 0.  1.
<mgrwt>
<rscale>  2 0.82323323E+02</rscale>
<asrwt>0</asrwt>
<pdfrwt beam="1">  1       21 0.12120200E-01 0.82323323E+02</pdfrwt>
<pdfrwt beam="2">  1       21 0.27799882E-01 0.82323323E+02</pdfrwt>
<totfact> 0.71342443E+05</totfact>
</mgrwt>
</event>
<event>
 5    1  0.1590180E+000  0.1866265E+03  0.7546771E-02  0.1161540E+00
         21   -1    0    0  501  502  0.00000000000E+00  0.00000000000E+00  0.92627423075E+03  0.92627423075E+03  0.00000000000E+00 0. -1.
         21   -1    0    0  502  503 -0.00000000000E+00 -0.00000000000E+00 -0.73339893960E+02  0.73339893960E+02  0.00000000000E+00 0.  1.
         24    1    1    2    0    0 -0.58023932351E+02  0.10652760676E+03  0.83766096596E+02  0.16792522926E+03  0.80419002446E+02 0.  1.
          1    1    1    2  501    0  0.83840152549E+02  0.29787142647E+02  0.62612920959E+03  0.63241934833E+03  0.00000000000E+00 0. -1.
         -2    1    1    2    0  503 -0.25816220198E+02 -0.13631474941E+03  0.14303903060E+03  0.19926954711E+03  0.00000000000E+00 0.  1.
<mgrwt>
<rscale>  2 0.18662652E+03</rscale>
<asrwt>0</asrwt>
<pdfrwt beam="1">  1       21 0.14250372E+00 0.18662652E+03</pdfrwt>
<pdfrwt beam="2">  1       21 0.11283061E-01 0.18662652E+03</pdfrwt>
<totfact> 0.22474355E+04</totfact>
</mgrwt>
</event>
<event>
 5    1  0.1590180E+000  0.1288621E+03  0.7546771E-02  0.1229154E+00
         21   -1    0    0  503  502  0.00000000000E+00  0.00000000000E+00  0.55619681155E+03  0.55619681155E+03  0.00000000000E+00 0.  1.
         21   -1    0    0  501  503 -0.00000000000E+00 -0.00000000000E+00 -0.10579665513E+03  0.10579665513E+03  0.00000000000E+00 0. -1.
         24    1    1    2    0    0 -0.43820295465E+02  0.81088673205E+02  0.14398817915E+03  0.18893227068E+03  0.80419002446E+02 0. -1.
          1    1    1    2  501    0  0.66086067863E+02 -0.89796701998E+02 -0.45440126708E+02  0.12039776232E+03  0.00000000000E+00 0. -1.
         -2    1    1    2    0  502 -0.22265772398E+02  0.87080287938E+01  0.35185210398E+03  0.35266343369E+03  0.00000000000E+00 0.  1.
<mgrwt>
<rscale>  2 0.12886208E+03</rscale>
<asrwt>0</asrwt>
<pdfrwt beam="1">  1       21 0.85568739E-01 0.12886208E+03</pdfrwt>
<pdfrwt beam="2">  1       21 0.16276409E-01 0.12886208E+03</pdfrwt>
<totfact> 0.41299400E+04</totfact>
</mgrwt>
</event>
<event>
 5    1  0.1590180E+000  0.7663420E+02  0.7546771E-02  0.1338884E+00
         21   -1    0    0  503  502  0.00000000000E+00  0.00000000000E+00  0.26884256717E+02  0.26884256717E+02  0.00000000000E+00 0.  1.
         21   -1    0    0  501  503 -0.00000000000E+00 -0.00000000000E+00 -0.85989779178E+03  0.85989779178E+03  0.00000000000E+00 0. -1.
         24    1    1    2    0    0  0.18557271738E+02 -0.12492095958E+02 -0.24105950000E+03  0.25510257406E+03  0.80419002446E+02 0. -1.
          1    1    1    2  501    0 -0.42827853213E+02  0.15040282389E+02 -0.60313173017E+03  0.60483743191E+03  0.00000000000E+00 0. -1.
         -2    1    1    2    0  502  0.24270581475E+02 -0.25481864317E+01  0.11177695105E+02  0.26842042528E+02  0.00000000000E+00 0.  1.
<mgrwt>
<rscale>  2 0.76634197E+02</rscale>
<asrwt>0</asrwt>
<pdfrwt beam="1">  1       21 0.41360397E-02 0.76634197E+02</pdfrwt>
<pdfrwt beam="2">  1       21 0.13229196E+00 0.76634197E+02</pdfrwt>
<totfact> 0.16131051E+05</totfact>
</mgrwt>
</event>
<event>
 5    1  0.1590180E+000  0.1029612E+03  0.7546771E-02  0.1274189E+00
         21   -1    0    0  503  502  0.00000000000E+00  0.00000000000E+00  0.88230150263E+02  0.88230150263E+02  0.00000000000E+00 0. -1.
         21   -1    0    0  501  503 -0.00000000000E+00 -0.00000000000E+00 -0.15838530064E+03  0.15838530064E+03  0.00000000000E+00 0.  1.
         24    1    1    2    0    0  0.28840345768E+02 -0.34030450179E+02 -0.58398277751E+02  0.10893765135E+03  0.80419002446E+02 0.  0.
          1    1    1    2  501    0 -0.16966508957E+02 -0.37653492191E+02 -0.42064395211E+02  0.58949650082E+02  0.00000000000E+00 0. -1.
         -2    1    1    2    0  502 -0.11873836812E+02  0.71683942369E+02  0.30307522583E+02  0.78728149472E+02  0.00000000000E+00 0.  1.
<mgrwt>
<rscale>  2 0.10296121E+03</rscale>
<asrwt>0</asrwt>
<pdfrwt beam="1">  1       21 0.13573869E-01 0.10296121E+03</pdfrwt>
<pdfrwt beam="2">  1       21 0.24366969E-01 0.10296121E+03</pdfrwt>
<totfact> 0.75010919E+05</totfact>
</mgrwt>
</event>
<event>
 5    1  0.1590180E+000  0.1170323E+03  0.7546771E-02  0.1248075E+00
         21   -1    0    0  501  502  0.00000000000E+00  0.00000000000E+00  0.14594535295E+03  0.14594535295E+03  0.00000000000E+00 0.  1.
         21   -1    0    0  502  503 -0.00000000000E+00 -0.00000000000E+00 -0.19944709525E+03  0.19944709525E+03  0.00000000000E+00 0.  1.
         24    1    1    2    0    0 -0.75504860290E+02 -0.27038222150E+02  0.29880801129E+01  0.11361423309E+03  0.80419002446E+02 0.  1.
          1    1    1    2  501    0 -0.16508249737E+02 -0.12131303238E+02  0.68619683561E+02  0.71612511474E+02  0.00000000000E+00 0. -1.
         -2    1    1    2    0  503  0.92013110027E+02  0.39169525387E+02 -0.12510950597E+03  0.16016570364E+03  0.00000000000E+00 0.  1.
<mgrwt>
<rscale>  2 0.11703231E+03</rscale>
<asrwt>0</asrwt>
<pdfrwt beam="1">  1       21 0.22453131E-01 0.11703231E+03</pdfrwt>
<pdfrwt beam="2">  1       21 0.30684168E-01 0.11703231E+03</pdfrwt>
<totfact> 0.19344041E+05</totfact>
</mgrwt>
</event>
<event>
 5    1  0.1590180E+000  0.1002131E+03  0.7546771E-02  0.1279849E+00
         21   -1    0    0  501  502  0.00000000000E+00  0.00000000000E+00  0.80683825432E+02  0.80683825432E+02  0.00000000000E+00 0.  1.
         21   -1    0    0  502  503 -0.00000000000E+00 -0.00000000000E+00 -0.20612972982E+03  0.20612972982E+03  0.00000000000E+00 0.  1.
         24    1    1    2    0    0  0.69267361193E+02  0.34134570258E+01 -0.86746910923E+02  0.13711988012E+03  0.80419002446E+02 0.  1.
          1    1    1    2  501    0 -0.44549825545E+01 -0.25404473173E+02  0.38616020108E+02  0.46437389415E+02  0.00000000000E+00 0. -1.
         -2    1    1    2    0  503 -0.64812378638E+02  0.21991016147E+02 -0.77315013574E+02  0.10325628572E+03  0.00000000000E+00 0.  1.
<mgrwt>
<rscale>  2 0.10021308E+03</rscale>
<asrwt>0</asrwt>
<pdfrwt beam="1">  1       21 0.12412896E-01 0.10021308E+03</pdfrwt>
<pdfrwt beam="2">  1       21 0.31712266E-01 0.10021308E+03</pdfrwt>
<totfact> 0.53268800E+05</totfact>
</mgrwt>
</event>
<event>
 5    1  0.1590180E+000  0.8711722E+02  0.7546771E-02  0.1309987E+00
         21   -1    0    0  503  502  0.00000000000E+00  0.00000000000E+00  0.16095871382E+03  0.16095871382E+03  0.00000000000E+00 0.  1.
         21   -1    0    0  501  503 -0.00000000000E+00 -0.00000000000E+00 -0.90793676596E+02  0.90793676596E+02  0.00000000000E+00 0. -1.
         24    1    1    2    0    0 -0.11515057865E+02  0.41100905281E+02 -0.43179443763E+02  0.10076488124E+03  0.80419002446E+02 0. -1.
          1    1    1    2  501    0 -0.29092774272E+02 -0.28364344606E+02  0.14109618284E+02  0.43011706405E+02  0.00000000000E+00 0. -1.
         -2    1    1    2    0  502  0.40607832138E+02 -0.12736560676E+02  0.99234862699E+02  0.10797580277E+03  0.00000000000E+00 0.  1.
<mgrwt>
<rscale>  2 0.87117222E+02</rscale>
<asrwt>0</asrwt>
<pdfrwt beam="1">  1       21 0.24762879E-01 0.87117222E+02</pdfrwt>
<pdfrwt beam="2">  1       21 0.13968258E-01 0.87117222E+02</pdfrwt>
<totfact> 0.69078326E+05</totfact>
</mgrwt>
</event>
<event>
 5    1  0.1590180E+000  0.1076072E+03  0.7546771E-02  0.1265066E+00
         21   -1    0    0  503  502  0.00000000000E+00  0.00000000000E+00  0.40990756815E+03  0.40990756815E+03  0.00000000000E+00 0.  1.
         21   -1    0    0  501  503 -0.00000000000E+00 -0.00000000000E+00 -0.48426159174E+02  0.48426159174E+02  0.00000000000E+00 0.  1.
         24    1    1    2    0    0  0.24463914126E+02  0.82462587228E+02  0.46211404874E+02  0.12649613149E+03  0.80419002446E+02 0.  1.
          1    1    1    2  501    0  0.10906673355E+02 -0.43465571860E+02  0.90544811418E+02  0.10102759195E+03  0.00000000000E+00 0. -1.
         -2    1    1    2    0  502 -0.35370587481E+02 -0.38997015368E+02  0.22472519268E+03  0.23081000388E+03  0.00000000000E+00 0.  1.
<mgrwt>
<rscale>  2 0.10760721E+03</rscale>
<asrwt>0</asrwt>
<pdfrwt beam="1">  1       21 0.63062701E-01 0.10760721E+03</pdfrwt>
<pdfrwt beam="2">  1       21 0.74501786E-02 0.10760721E+03</pdfrwt>
<totfact> 0.32172467E+05</totfact>
</mgrwt>
</event>
<event>
 5    1  0.1590180E+000  0.6994981E+02  0.7546771E-02  0.1360264E+00
         21   -1    0    0  503  502  0.00000000000E+00  0.00000000000E+00  0.73054829144E+02  0.73054829144E+02  0.00000000000E+00 0. -1.
         21   -1    0    0  501  503 -0.00000000000E+00 -0.00000000000E+00 -0.98327064492E+02  0.98327064492E+02  0.00000000000E+00 0. -1.
         24    1    1    2    0    0 -0.10378547184E+02  0.28937248831E+02 -0.38833282245E+02  0.94447437106E+02  0.80419002446E+02 0. -1.
          1    1    1    2  501    0  0.21948941006E+02  0.73019035015E+00 -0.20686515304E+02  0.30169870810E+02  0.00000000000E+00 0. -1.
         -2    1    1    2    0  502 -0.11570393822E+02 -0.29667439181E+02  0.34247562203E+02  0.46764585720E+02  0.00000000000E+00 0.  1.
<mgrwt>
<rscale>  2 0.69949810E+02</rscale>
<asrwt>0</asrwt>
<pdfrwt beam="1">  1       21 0.11239204E-01 0.69949810E+02</pdfrwt>
<pdfrwt beam="2">  1       21 0.15127241E-01 0.69949810E+02</pdfrwt>
<totfact> 0.24596910E+06</totfact>
</mgrwt>
</event>
<event>
 5    1  0.1590180E+000  0.8208157E+02  0.7546771E-02  0.1323246E+00
         21   -1    0    0  503  502  0.00000000000E+00  0.00000000000E+00  0.12115216653E+04  0.12115216653E+04  0.00000000000E+00 0.  1.
         21   -1    0    0  501  503 -0.00000000000E+00 -0.00000000000E+00 -0.10312760178E+02  0.10312760178E+02  0.00000000000E+00 0.  1.
         24    1    1    2    0    0 -0.12514048890E+02  0.35354644037E+02  0.34881183661E+03  0.35992147142E+03  0.80419002446E+02 0.  1.
          1    1    1    2  501    0 -0.23242577380E+02 -0.31951097702E+02  0.85638166308E+02  0.94313231183E+02  0.00000000000E+00 0. -1.
         -2    1    1    2    0  502  0.35756626270E+02 -0.34035463353E+01  0.76675890225E+03  0.76759972292E+03  0.00000000000E+00 0.  1.
<mgrwt>
<rscale>  2 0.82081568E+02</rscale>
<asrwt>0</asrwt>
<pdfrwt beam="1">  1       21 0.18638784E+00 0.82081568E+02</pdfrwt>
<pdfrwt beam="2">  1       21 0.15865795E-02 0.82081568E+02</pdfrwt>
<totfact> 0.31084898E+05</totfact>
</mgrwt>
</event>
<event>
 5    1  0.1590180E+000  0.7199570E+02  0.7546771E-02  0.1353435E+00
         21   -1    0    0  503  502  0.00000000000E+00  0.00000000000E+00  0.35176369893E+03  0.35176369893E+03  0.00000000000E+00 0.  1.
         21   -1    0    0  501  503 -0.00000000000E+00 -0.00000000000E+00 -0.25056477935E+02  0.25056477935E+02  0.00000000000E+00 0. -1.
         24    1    1    2    0    0  0.10469791540E+02  0.33280306519E+02  0.14306394766E+03  0.16778469660E+03  0.80419002446E+02 0.  0.
          1    1    1    2  501    0  0.14117268077E+02 -0.27742173030E+02  0.87477980914E+01  0.32333409870E+02  0.00000000000E+00 0. -1.
         -2    1    1    2    0  502 -0.24587059617E+02 -0.55381334890E+01  0.17489547524E+03  0.17670207040E+03  0.00000000000E+00 0.  1.
<mgrwt>
<rscale>  2 0.71995702E+02</rscale>
<asrwt>0</asrwt>
<pdfrwt beam="1">  1       21 0.54117489E-01 0.71995702E+02</pdfrwt>
<pdfrwt beam="2">  1       21 0.38548430E-02 0.71995702E+02</pdfrwt>
<totfact> 0.13282898E+06</totfact>
</mgrwt>
</event>
<event>
 5    1  0.1590180E+000  0.9918707E+02  0.7546771E-02  0.1282015E+00
         21   -1    0    0  503  502  0.00000000000E+00  0.00000000000E+00  0.75559432047E+02  0.75559432047E+02  0.00000000000E+00 0.  1.
         21   -1    0    0  501  503 -0.00000000000E+00 -0.00000000000E+00 -0.84188117101E+03  0.84188117101E+03  0.00000000000E+00 0. -1.
         24    1    1    2    0    0  0.56663923045E+02 -0.43971785243E+02 -0.73039334479E+03  0.73829937840E+03  0.80419002446E+02 0. -1.
          1    1    1    2  501    0 -0.14571628668E+02  0.46222424756E+02 -0.94955325892E+02  0.10660843694E+03  0.00000000000E+00 0. -1.
         -2    1    1    2    0  502 -0.42092294376E+02 -0.22506395127E+01  0.59026931726E+02  0.72532787711E+02  0.00000000000E+00 0.  1.
<mgrwt>
<rscale>  2 0.99187066E+02</rscale>
<asrwt>0</asrwt>
<pdfrwt beam="1">  1       21 0.11624528E-01 0.99187066E+02</pdfrwt>
<pdfrwt beam="2">  1       21 0.12952018E+00 0.99187066E+02</pdfrwt>
<totfact> 0.28978348E+04</totfact>
</mgrwt>
</event>
<event>
 5    1  0.1590180E+000  0.9209641E+02  0.7546771E-02  0.1297853E+00
         21   -1    0    0  503  502  0.00000000000E+00  0.00000000000E+00  0.21666649398E+04  0.21666649398E+04  0.00000000000E+00 0.  1.
         21   -1    0    0  501  503 -0.00000000000E+00 -0.00000000000E+00 -0.69726819754E+02  0.69726819754E+02  0.00000000000E+00 0. -1.
         24    1    1    2    0    0 -0.44293928740E+02 -0.12023937671E+02  0.92362846550E+02  0.13078470315E+03  0.80419002446E+02 0.  0.
          1    1    1    2  501    0  0.84609012414E+00  0.39943981297E+02 -0.42239215504E+02  0.58141111416E+02  0.00000000000E+00 0. -1.
         -2    1    1    2    0  502  0.43447838616E+02 -0.27920043626E+02  0.20468144890E+04  0.20474659450E+04  0.00000000000E+00 0.  1.
<mgrwt>
<rscale>  2 0.92096407E+02</rscale>
<asrwt>0</asrwt>
<pdfrwt beam="1">  1       21 0.33333302E+00 0.92096407E+02</pdfrwt>
<pdfrwt beam="2">  1       21 0.10727205E-01 0.92096407E+02</pdfrwt>
<totfact> 0.19001682E+03</totfact>
</mgrwt>
</event>
<event>
 5    1  0.1590180E+000  0.1024615E+03  0.7546771E-02  0.1275203E+00
         21   -1    0    0  503  502  0.00000000000E+00  0.00000000000E+00  0.71478997900E+03  0.71478997900E+03  0.00000000000E+00 0.  1.
         21   -1    0    0  501  503 -0.00000000000E+00 -0.00000000000E+00 -0.23423745675E+02  0.23423745675E+02  0.00000000000E+00 0.  1.
         24    1    1    2    0    0  0.44633224072E+02 -0.41814378716E+02  0.25226386389E+03  0.27174407066E+03  0.80419002446E+02 0.  1.
          1    1    1    2  501    0 -0.12100685287E+01 -0.24550785052E+02  0.48753671229E+01  0.25059419728E+02  0.00000000000E+00 0. -1.
         -2    1    1    2    0  502 -0.43423155544E+02  0.66365163768E+02  0.43422700232E+03  0.44141023429E+03  0.00000000000E+00 0.  1.
<mgrwt>
<rscale>  2 0.10246154E+03</rscale>
<asrwt>0</asrwt>
<pdfrwt beam="1">  1       21 0.10996767E+00 0.10246154E+03</pdfrwt>
<pdfrwt beam="2">  1       21 0.36036537E-02 0.10246154E+03</pdfrwt>
<totfact> 0.31238515E+05</totfact>
</mgrwt>
</event>
<event>
 5    1  0.1590180E+000  0.7586738E+02  0.7546771E-02  0.1341206E+00
         21   -1    0    0  503  502  0.00000000000E+00  0.00000000000E+00  0.11132807598E+03  0.11132807598E+03  0.00000000000E+00 0. -1.
         21   -1    0    0  501  503 -0.00000000000E+00 -0.00000000000E+00 -0.65995930964E+02  0.65995930964E+02  0.00000000000E+00 0.  1.
         24    1    1    2    0    0 -0.32478922101E+02 -0.29613099344E+02  0.97664485676E+01  0.92165153424E+02  0.80419002446E+02 0.  1.
          1    1    1    2  501    0  0.30104123172E+02 -0.27585406317E+00 -0.90214406132E+01  0.31428024408E+02  0.00000000000E+00 0. -1.
         -2    1    1    2    0  502  0.23747989288E+01  0.29888953407E+02  0.44587137057E+02  0.53730829109E+02  0.00000000000E+00 0.  1.
<mgrwt>
<rscale>  2 0.75867384E+02</rscale>
<asrwt>0</asrwt>
<pdfrwt beam="1">  1       21 0.17127396E-01 0.75867384E+02</pdfrwt>
<pdfrwt beam="2">  1       21 0.10153220E-01 0.75867384E+02</pdfrwt>
<totfact> 0.23601931E+06</totfact>
</mgrwt>
</event>
<event>
 5    1  0.1590180E+000  0.7569232E+02  0.7546771E-02  0.1341740E+00
         21   -1    0    0  503  502  0.00000000000E+00  0.00000000000E+00  0.43711670778E+03  0.43711670778E+03  0.00000000000E+00 0.  1.
         21   -1    0    0  501  503 -0.00000000000E+00 -0.00000000000E+00 -0.13207291362E+02  0.13207291362E+02  0.00000000000E+00 0. -1.
         24    1    1    2    0    0 -0.18626714796E+02  0.20663573537E+02  0.25548997662E+03  0.26928847336E+03  0.80419002446E+02 0.  1.
          1    1    1    2  501    0 -0.20061651479E+02  0.39342821228E+01  0.47260965383E+02  0.51493177070E+02  0.00000000000E+00 0. -1.
         -2    1    1    2    0  502  0.38688366275E+02 -0.24597855660E+02  0.12115847442E+03  0.12954234872E+03  0.00000000000E+00 0.  1.
<mgrwt>
<rscale>  2 0.75692315E+02</rscale>
<asrwt>0</asrwt>
<pdfrwt beam="1">  1       21 0.67248713E-01 0.75692315E+02</pdfrwt>
<pdfrwt beam="2">  1       21 0.20318913E-02 0.75692315E+02</pdfrwt>
<totfact> 0.23736743E+06</totfact>
</mgrwt>
</event>
<event>
 5    1  0.1590180E+000  0.7620740E+02  0.7546771E-02  0.1340172E+00
         21   -1    0    0  503  502  0.00000000000E+00  0.00000000000E+00  0.81279743632E+03  0.81279743632E+03  0.00000000000E+00 0. -1.
         21   -1    0    0  501  503 -0.00000000000E+00 -0.00000000000E+00 -0.85561527463E+01  0.85561527463E+01  0.00000000000E+00 0.  1.
         24    1    1    2    0    0 -0.14599156170E+02  0.16877104390E+02  0.38618069940E+03  0.39509583718E+03  0.80419002446E+02 0. -1.
          1    1    1    2  501    0 -0.23497656873E+02  0.63467204373E+01  0.51166180862E+02  0.56660381245E+02  0.00000000000E+00 0. -1.
         -2    1    1    2    0  502  0.38096813043E+02 -0.23223824827E+02  0.36689440331E+03  0.36959737064E+03  0.00000000000E+00 0.  1.
<mgrwt>
<rscale>  2 0.76207403E+02</rscale>
<asrwt>0</asrwt>
<pdfrwt beam="1">  1       21 0.12504570E+00 0.76207403E+02</pdfrwt>
<pdfrwt beam="2">  1       21 0.13163318E-02 0.76207403E+02</pdfrwt>
<totfact> 0.11597852E+06</totfact>
</mgrwt>
</event>
<event>
 5    1  0.1590180E+000  0.9013283E+02  0.7546771E-02  0.1302530E+00
         21   -1    0    0  503  502  0.00000000000E+00  0.00000000000E+00  0.35318083958E+02  0.35318083958E+02  0.00000000000E+00 0.  1.
         21   -1    0    0  501  503 -0.00000000000E+00 -0.00000000000E+00 -0.37058114205E+03  0.37058114205E+03  0.00000000000E+00 0. -1.
         24    1    1    2    0    0  0.10816154351E+02  0.36267758103E+02 -0.28467166399E+03  0.29822392880E+03  0.80419002446E+02 0. -1.
          1    1    1    2  501    0 -0.37068438308E+01  0.27235318975E+02 -0.29652412454E+02  0.40432274920E+02  0.00000000000E+00 0. -1.
         -2    1    1    2    0  502 -0.71093105199E+01 -0.63503077078E+02 -0.20938981645E+02  0.67243022291E+02  0.00000000000E+00 0.  1.
<mgrwt>
<rscale>  2 0.90132826E+02</rscale>
<asrwt>0</asrwt>
<pdfrwt beam="1">  1       21 0.54335511E-02 0.90132826E+02</pdfrwt>
<pdfrwt beam="2">  1       21 0.57012486E-01 0.90132826E+02</pdfrwt>
<totfact> 0.67923058E+05</totfact>
</mgrwt>
</event>
<event>
 5    1  0.1590180E+000  0.9799565E+02  0.7546771E-02  0.1284568E+00
         21   -1    0    0  503  502  0.00000000000E+00  0.00000000000E+00  0.10195639845E+04  0.10195639845E+04  0.00000000000E+00 0. -1.
         21   -1    0    0  501  503 -0.00000000000E+00 -0.00000000000E+00 -0.20326241540E+02  0.20326241540E+02  0.00000000000E+00 0. -1.
         24    1    1    2    0    0 -0.41707433570E+02  0.27642229155E+02  0.74934215594E+03  0.75530423371E+03  0.80419002446E+02 0. -1.
          1    1    1    2  501    0  0.18289671287E+02 -0.59210580931E+02  0.46629850123E+02  0.77554805735E+02  0.00000000000E+00 0. -1.
         -2    1    1    2    0  502  0.23417762283E+02  0.31568351776E+02  0.20326573692E+03  0.20703118661E+03  0.00000000000E+00 0.  1.
<mgrwt>
<rscale>  2 0.97995645E+02</rscale>
<asrwt>0</asrwt>
<pdfrwt beam="1">  1       21 0.15685596E+00 0.97995645E+02</pdfrwt>
<pdfrwt beam="2">  1       21 0.31271149E-02 0.97995645E+02</pdfrwt>
<totfact> 0.16398817E+05</totfact>
</mgrwt>
</event>
<event>
 5    1  0.1590180E+000  0.1234826E+03  0.7546771E-02  0.1237460E+00
         21   -1    0    0  501  502  0.00000000000E+00  0.00000000000E+00  0.11649470672E+03  0.11649470672E+03  0.00000000000E+00 0. -1.
         21   -1    0    0  502  503 -0.00000000000E+00 -0.00000000000E+00 -0.23902762328E+03  0.23902762328E+03  0.00000000000E+00 0. -1.
         24    1    1    2    0    0  0.37296815160E+02 -0.70734668691E+02  0.20232133177E+02  0.11519983048E+03  0.80419002446E+02 0. -1.
          1    1    1    2  501    0 -0.28033242498E+02  0.99480173292E+02 -0.96270004778E+01  0.10380195904E+03  0.00000000000E+00 0. -1.
         -2    1    1    2    0  503 -0.92635726623E+01 -0.28745504601E+02 -0.13313804926E+03  0.13652054048E+03  0.00000000000E+00 0.  1.
<mgrwt>
<rscale>  2 0.12348256E+03</rscale>
<asrwt>0</asrwt>
<pdfrwt beam="1">  1       21 0.17922263E-01 0.12348256E+03</pdfrwt>
<pdfrwt beam="2">  1       21 0.36773480E-01 0.12348256E+03</pdfrwt>
<totfact> 0.20562882E+05</totfact>
</mgrwt>
</event>
<event>
 5    1  0.1590180E+000  0.7463700E+02  0.7546771E-02  0.1344999E+00
         21   -1    0    0  503  502  0.00000000000E+00  0.00000000000E+00  0.65182791894E+01  0.65182791894E+01  0.00000000000E+00 0. -1.
         21   -1    0    0  501  503 -0.00000000000E+00 -0.00000000000E+00 -0.10167976043E+04  0.10167976043E+04  0.00000000000E+00 0.  1.
         24    1    1    2    0    0 -0.35830712661E+02  0.12466649385E+02 -0.74216592036E+03  0.74747356248E+03  0.80419002446E+02 0.  1.
          1    1    1    2  501    0  0.19896859818E+02 -0.30421325579E+02 -0.20729169626E+03  0.21045472059E+03  0.00000000000E+00 0. -1.
         -2    1    1    2    0  502  0.15933852843E+02  0.17954676195E+02 -0.60821708450E+02  0.65387600372E+02  0.00000000000E+00 0.  1.
<mgrwt>
<rscale>  2 0.74636998E+02</rscale>
<asrwt>0</asrwt>
<pdfrwt beam="1">  1       21 0.10028121E-02 0.74636998E+02</pdfrwt>
<pdfrwt beam="2">  1       21 0.15643042E+00 0.74636998E+02</pdfrwt>
<totfact> 0.10174401E+06</totfact>
</mgrwt>
</event>
<event>
 5    1  0.1590180E+000  0.7403049E+02  0.7546771E-02  0.1346900E+00
         21   -1    0    0  503  502  0.00000000000E+00  0.00000000000E+00  0.18556316922E+02  0.18556316922E+02  0.00000000000E+00 0. -1.
         21   -1    0    0  501  503 -0.00000000000E+00 -0.00000000000E+00 -0.34890705061E+03  0.34890705061E+03  0.00000000000E+00 0.  1.
         24    1    1    2    0    0 -0.20438059336E+02 -0.33862157802E+02 -0.16233193605E+03  0.18542716472E+03  0.80419002446E+02 0.  0.
          1    1    1    2  501    0  0.22023095999E+02 -0.23924670933E+01 -0.11901144100E+03  0.12105562252E+03  0.00000000000E+00 0. -1.
         -2    1    1    2    0  502 -0.15850366624E+01  0.36254624895E+02 -0.49007356647E+02  0.60980580294E+02  0.00000000000E+00 0.  1.
<mgrwt>
<rscale>  2 0.74030492E+02</rscale>
<asrwt>0</asrwt>
<pdfrwt beam="1">  1       21 0.28548180E-02 0.74030492E+02</pdfrwt>
<pdfrwt beam="2">  1       21 0.53678008E-01 0.74030492E+02</pdfrwt>
<totfact> 0.22018428E+06</totfact>
</mgrwt>
</event>
<event>
 5    1  0.1744210E+000  0.1127849E+03  0.7546771E-02  0.1255498E+00
         21   -1    0    0  501  502  0.00000000000E+00  0.00000000000E+00  0.16154096385E+03  0.16154096385E+03  0.00000000000E+00 0.  1.
         21   -1    0    0  502  503 -0.00000000000E+00 -0.00000000000E+00 -0.25894024856E+03  0.25894024856E+03  0.00000000000E+00 0.  1.
         24    1    1    2    0    0  0.69051314863E+02 -0.40503939370E+02  0.49335398582E+02  0.12373298144E+03  0.80419002446E+02 0.  1.
          1    1    1    2  501    0 -0.11234168680E+01  0.44062612619E+02  0.62644542543E+02  0.76597092677E+02  0.00000000000E+00 0. -1.
         -2    1    1    2    0  503 -0.67927897995E+02 -0.35586732485E+01 -0.20937922584E+03  0.22015113830E+03  0.00000000000E+00 0.  1.
<mgrwt>
<rscale>  2 0.11278494E+03</rscale>
<asrwt>0</asrwt>
<pdfrwt beam="1">  1       21 0.24852457E-01 0.11278494E+03</pdfrwt>
<pdfrwt beam="2">  1       21 0.39836960E-01 0.11278494E+03</pdfrwt>
<totfact> 0.96079856E+04</totfact>
</mgrwt>
</event>
<event>
 5    1  0.1590180E+000  0.1005525E+03  0.7546771E-02  0.1279138E+00
         21   -1    0    0  501  502  0.00000000000E+00  0.00000000000E+00  0.29385851278E+03  0.29385851278E+03  0.00000000000E+00 0. -1.
         21   -1    0    0  502  503 -0.00000000000E+00 -0.00000000000E+00 -0.81648264384E+02  0.81648264384E+02  0.00000000000E+00 0. -1.
         24    1    1    2    0    0  0.52147643934E+02 -0.65682462060E+02  0.11985769617E+02  0.11680940552E+03  0.80419002446E+02 0. -1.
          1    1    1    2  501    0 -0.21223558110E+02  0.37414400457E+02  0.21107862447E+03  0.21541695033E+03  0.00000000000E+00 0. -1.
         -2    1    1    2    0  503 -0.30924085824E+02  0.28268061603E+02 -0.10854145689E+02  0.43280421318E+02  0.00000000000E+00 0.  1.
<mgrwt>
<rscale>  2 0.10055249E+03</rscale>
<asrwt>0</asrwt>
<pdfrwt beam="1">  1       21 0.45209001E-01 0.10055249E+03</pdfrwt>
<pdfrwt beam="2">  1       21 0.12561272E-01 0.10055249E+03</pdfrwt>
<totfact> 0.25927335E+05</totfact>
</mgrwt>
</event>
<event>
 5    1  0.1590180E+000  0.6487518E+02  0.7546771E-02  0.1378442E+00
         21   -1    0    0  503  502  0.00000000000E+00  0.00000000000E+00  0.26076865245E+03  0.26076865245E+03  0.00000000000E+00 0. -1.
         21   -1    0    0  501  503 -0.00000000000E+00 -0.00000000000E+00 -0.26402335233E+02  0.26402335233E+02  0.00000000000E+00 0. -1.
         24    1    1    2    0    0  0.20408173913E+02  0.66104842570E+01  0.11275717675E+03  0.14014845318E+03  0.80419002446E+02 0.  0.
          1    1    1    2  501    0  0.25447960249E+01 -0.19856190380E+02 -0.24468596105E+01  0.20167583028E+02  0.00000000000E+00 0. -1.
         -2    1    1    2    0  502 -0.22952969938E+02  0.13245706123E+02  0.12405600008E+03  0.12685495148E+03  0.00000000000E+00 0.  1.
<mgrwt>
<rscale>  2 0.64875180E+02</rscale>
<asrwt>0</asrwt>
<pdfrwt beam="1">  1       21 0.40118252E-01 0.64875180E+02</pdfrwt>
<pdfrwt beam="2">  1       21 0.40618979E-02 0.64875180E+02</pdfrwt>
<totfact> 0.22123656E+06</totfact>
</mgrwt>
</event>
<event>
 5    1  0.1590180E+000  0.1136448E+03  0.7546771E-02  0.1253965E+00
         21   -1    0    0  501  502  0.00000000000E+00  0.00000000000E+00  0.63502822640E+03  0.63502822640E+03  0.00000000000E+00 0. -1.
         21   -1    0    0  502  503 -0.00000000000E+00 -0.00000000000E+00 -0.26252804598E+02  0.26252804598E+02  0.00000000000E+00 0.  1.
         24    1    1    2    0    0 -0.22268385390E+02  0.24715084879E+02  0.17239666242E+03  0.19311794732E+03  0.80419002446E+02 0.  0.
          1    1    1    2  501    0  0.49727596930E+02  0.43914350008E+02  0.34152103501E+03  0.34790504651E+03  0.00000000000E+00 0. -1.
         -2    1    1    2    0  503 -0.27459211539E+02 -0.68629434887E+02  0.94857724378E+02  0.12025803718E+03  0.00000000000E+00 0.  1.
<mgrwt>
<rscale>  2 0.11364480E+03</rscale>
<asrwt>0</asrwt>
<pdfrwt beam="1">  1       21 0.97696638E-01 0.11364480E+03</pdfrwt>
<pdfrwt beam="2">  1       21 0.40388935E-02 0.11364480E+03</pdfrwt>
<totfact> 0.34072993E+05</totfact>
</mgrwt>
</event>
<event>
 5    1  0.1590180E+000  0.7240571E+02  0.7546771E-02  0.1352098E+00
         21   -1    0    0  503  502  0.00000000000E+00  0.00000000000E+00  0.15090363704E+02  0.15090363704E+02  0.00000000000E+00 0.  1.
         21   -1    0    0  501  503 -0.00000000000E+00 -0.00000000000E+00 -0.61121605018E+03  0.61121605018E+03  0.00000000000E+00 0.  1.
         24    1    1    2    0    0 -0.71476347076E+01  0.37887247925E+02 -0.44238610168E+03  0.45128617434E+03  0.80419002446E+02 0.  1.
          1    1    1    2  501    0 -0.16585700426E+02 -0.19536094650E+02 -0.13945920348E+03  0.14179426606E+03  0.00000000000E+00 0. -1.
         -2    1    1    2    0  502  0.23733335134E+02 -0.18351153274E+02 -0.14280381313E+02  0.33225973477E+02  0.00000000000E+00 0.  1.
<mgrwt>
<rscale>  2 0.72405708E+02</rscale>
<asrwt>0</asrwt>
<pdfrwt beam="1">  1       21 0.23215942E-02 0.72405708E+02</pdfrwt>
<pdfrwt beam="2">  1       21 0.94033245E-01 0.72405708E+02</pdfrwt>
<totfact> 0.91831211E+05</totfact>
</mgrwt>
</event>
<event>
 5    1  0.1590180E+000  0.9387782E+02  0.7546771E-02  0.1293724E+00
         21   -1    0    0  503  502  0.00000000000E+00  0.00000000000E+00  0.26982963276E+02  0.26982963276E+02  0.00000000000E+00 0. -1.
         21   -1    0    0  501  503 -0.00000000000E+00 -0.00000000000E+00 -0.35188010176E+03  0.35188010176E+03  0.00000000000E+00 0.  1.
         24    1    1    2    0    0 -0.44466475623E+01  0.89934305873E+01 -0.10671615897E+03  0.13400077988E+03  0.80419002446E+02 0. -1.
          1    1    1    2  501    0 -0.26178579935E+02  0.40669613506E+02 -0.13379865139E+03  0.14227232558E+03  0.00000000000E+00 0. -1.
         -2    1    1    2    0  502  0.30625227498E+02 -0.49663044093E+02 -0.84382328122E+02  0.10258995958E+03  0.00000000000E+00 0.  1.
<mgrwt>
<rscale>  2 0.93877824E+02</rscale>
<asrwt>0</asrwt>
<pdfrwt beam="1">  1       21 0.41512254E-02 0.93877824E+02</pdfrwt>
<pdfrwt beam="2">  1       21 0.54135396E-01 0.93877824E+02</pdfrwt>
<totfact> 0.11832544E+06</totfact>
</mgrwt>
</event>
<event>
 5    1  0.1590180E+000  0.7779599E+02  0.7546771E-02  0.1335425E+00
         21   -1    0    0  501  502  0.00000000000E+00  0.00000000000E+00  0.54121397251E+02  0.54121397251E+02  0.00000000000E+00 0.  1.
         21   -1    0    0  502  503 -0.00000000000E+00 -0.00000000000E+00 -0.20340835354E+03  0.20340835354E+03  0.00000000000E+00 0.  1.
         24    1    1    2    0    0  0.29792075819E+02 -0.84941519362E+01  0.14585995807E+01  0.86192005812E+02  0.80419002446E+02 0.  1.
          1    1    1    2  501    0  0.80139502322E+01 -0.20342372164E+02 -0.12592079742E+02  0.25230853648E+02  0.00000000000E+00 0. -1.
         -2    1    1    2    0  503 -0.37806026051E+02  0.28836524101E+02 -0.13815347612E+03  0.14610689133E+03  0.00000000000E+00 0.  1.
<mgrwt>
<rscale>  2 0.77795993E+02</rscale>
<asrwt>0</asrwt>
<pdfrwt beam="1">  1       21 0.83263689E-02 0.77795993E+02</pdfrwt>
<pdfrwt beam="2">  1       21 0.31293592E-01 0.77795993E+02</pdfrwt>
<totfact> 0.10888109E+06</totfact>
</mgrwt>
</event>
<event>
 5    1  0.1590180E+000  0.7663487E+02  0.7546771E-02  0.1338882E+00
         21   -1    0    0  503  502  0.00000000000E+00  0.00000000000E+00  0.34755688180E+02  0.34755688180E+02  0.00000000000E+00 0.  1.
         21   -1    0    0  501  503 -0.00000000000E+00 -0.00000000000E+00 -0.19246820687E+03  0.19246820687E+03  0.00000000000E+00 0. -1.
         24    1    1    2    0    0 -0.20382066021E+02  0.86502817421E+01 -0.68834698032E+02  0.10814660234E+03  0.80419002446E+02 0.  1.
          1    1    1    2  501    0 -0.17434955085E+02 -0.23473310398E+02 -0.66633722451E+02  0.72766935675E+02  0.00000000000E+00 0. -1.
         -2    1    1    2    0  502  0.37817021106E+02  0.14823028656E+02 -0.22244098206E+02  0.46310357037E+02  0.00000000000E+00 0.  1.
<mgrwt>
<rscale>  2 0.76634868E+02</rscale>
<asrwt>0</asrwt>
<pdfrwt beam="1">  1       21 0.53470288E-02 0.76634868E+02</pdfrwt>
<pdfrwt beam="2">  1       21 0.29610494E-01 0.76634868E+02</pdfrwt>
<totfact> 0.25477784E+06</totfact>
</mgrwt>
</event>
<event>
 5    1  0.1590180E+000  0.9023212E+02  0.7546771E-02  0.1302291E+00
         21   -1    0    0  501  502  0.00000000000E+00  0.00000000000E+00  0.41720894489E+03  0.41720894489E+03  0.00000000000E+00 0. -1.
         21   -1    0    0  502  503 -0.00000000000E+00 -0.00000000000E+00 -0.41331782602E+02  0.41331782602E+02  0.00000000000E+00 0.  1.
         24    1    1    2    0    0  0.79692592256E+01 -0.90570242023E+01  0.40144591865E+02  0.90688163453E+02  0.80419002446E+02 0.  0.
          1    1    1    2  501    0  0.44668274357E+02  0.12532979793E+02  0.30131483856E+03  0.30486548222E+03  0.00000000000E+00 0. -1.
         -2    1    1    2    0  503 -0.52637533582E+02 -0.34759555910E+01  0.34417731865E+02  0.62987081815E+02  0.00000000000E+00 0.  1.
<mgrwt>
<rscale>  2 0.90232119E+02</rscale>
<asrwt>0</asrwt>
<pdfrwt beam="1">  1       21 0.64185989E-01 0.90232119E+02</pdfrwt>
<pdfrwt beam="2">  1       21 0.63587361E-02 0.90232119E+02</pdfrwt>
<totfact> 0.40653326E+05</totfact>
</mgrwt>
</event>
<event>
 5    1  0.1590180E+000  0.8490740E+02  0.7546771E-02  0.1315675E+00
         21   -1    0    0  503  502  0.00000000000E+00  0.00000000000E+00  0.76580988344E+03  0.76580988344E+03  0.00000000000E+00 0. -1.
         21   -1    0    0  501  503 -0.00000000000E+00 -0.00000000000E+00 -0.11391399180E+02  0.11391399180E+02  0.00000000000E+00 0.  1.
         24    1    1    2    0    0 -0.17117483015E+02 -0.44787957463E+02  0.30079915052E+03  0.31503383035E+03  0.80419002446E+02 0.  1.
          1    1    1    2  501    0  0.39271798051E+00  0.56032280704E+02  0.19861077748E+03  0.20636378470E+03  0.00000000000E+00 0. -1.
         -2    1    1    2    0  502  0.16724765035E+02 -0.11244323241E+02  0.25500855626E+03  0.25580366756E+03  0.00000000000E+00 0.  1.
<mgrwt>
<rscale>  2 0.84907397E+02</rscale>
<asrwt>0</asrwt>
<pdfrwt beam="1">  1       21 0.11781686E+00 0.84907397E+02</pdfrwt>
<pdfrwt beam="2">  1       21 0.17525235E-02 0.84907397E+02</pdfrwt>
<totfact> 0.85217691E+05</totfact>
</mgrwt>
</event>
<event>
 5    1  0.1590180E+000  0.7821660E+02  0.7546771E-02  0.1334190E+00
         21   -1    0    0  503  502  0.00000000000E+00  0.00000000000E+00  0.71165316548E+01  0.71165316548E+01  0.00000000000E+00 0. -1.
         21   -1    0    0  501  503 -0.00000000000E+00 -0.00000000000E+00 -0.98179807746E+03  0.98179807746E+03  0.00000000000E+00 0.  1.
         24    1    1    2    0    0 -0.15527558588E+02 -0.24424743817E+02 -0.66435220863E+03  0.66982740035E+03  0.80419002446E+02 0.  0.
          1    1    1    2  501    0 -0.21657531982E+02 -0.64877979304E+01 -0.14772337383E+03  0.14944341869E+03  0.00000000000E+00 0. -1.
         -2    1    1    2    0  502  0.37185090570E+02  0.30912541747E+02 -0.16260596334E+03  0.16964379008E+03  0.00000000000E+00 0.  1.
<mgrwt>
<rscale>  2 0.78216597E+02</rscale>
<asrwt>0</asrwt>
<pdfrwt beam="1">  1       21 0.10948505E-02 0.78216597E+02</pdfrwt>
<pdfrwt beam="2">  1       21 0.15104593E+00 0.78216597E+02</pdfrwt>
<totfact> 0.96996234E+05</totfact>
</mgrwt>
</event>
<event>
 5    1  0.1590180E+000  0.7380649E+02  0.7546771E-02  0.1347607E+00
         21   -1    0    0  501  502  0.00000000000E+00  0.00000000000E+00  0.46020201129E+02  0.46020201129E+02  0.00000000000E+00 0. -1.
         21   -1    0    0  502  503 -0.00000000000E+00 -0.00000000000E+00 -0.39288991250E+03  0.39288991250E+03  0.00000000000E+00 0.  1.
         24    1    1    2    0    0 -0.55997806194E+01  0.40631602330E+02 -0.16847397061E+03  0.19113602324E+03  0.80419002446E+02 0. -1.
          1    1    1    2  501    0 -0.14569906472E+02 -0.32453076451E+02  0.24832573514E+02  0.43383649605E+02  0.00000000000E+00 0. -1.
         -2    1    1    2    0  503  0.20169687091E+02 -0.81785258790E+01 -0.20322831428E+03  0.20439044079E+03  0.00000000000E+00 0.  1.
<mgrwt>
<rscale>  2 0.73806493E+02</rscale>
<asrwt>0</asrwt>
<pdfrwt beam="1">  1       21 0.70800309E-02 0.73806493E+02</pdfrwt>
<pdfrwt beam="2">  1       21 0.60444602E-01 0.73806493E+02</pdfrwt>
<totfact> 0.38551355E+05</totfact>
</mgrwt>
</event>
<event>
 5    1  0.1590180E+000  0.7218524E+02  0.7546771E-02  0.1352816E+00
         21   -1    0    0  503  502  0.00000000000E+00  0.00000000000E+00  0.82402256578E+02  0.82402256578E+02  0.00000000000E+00 0. -1.
         21   -1    0    0  501  503 -0.00000000000E+00 -0.00000000000E+00 -0.12541570435E+03  0.12541570435E+03  0.00000000000E+00 0. -1.
         24    1    1    2    0    0 -0.44906588642E+02 -0.14846762128E+02  0.43718837270E+02  0.10303194037E+03  0.80419002446E+02 0. -1.
          1    1    1    2  501    0  0.20394413243E+02  0.16885148574E+02 -0.70520528286E+02  0.75327187944E+02  0.00000000000E+00 0. -1.
         -2    1    1    2    0  502  0.24512175399E+02 -0.20383864456E+01 -0.16211756761E+02  0.29458832621E+02  0.00000000000E+00 0.  1.
<mgrwt>
<rscale>  2 0.72185244E+02</rscale>
<asrwt>0</asrwt>
<pdfrwt beam="1">  1       21 0.12677270E-01 0.72185244E+02</pdfrwt>
<pdfrwt beam="2">  1       21 0.19294724E-01 0.72185244E+02</pdfrwt>
<totfact> 0.12913830E+06</totfact>
</mgrwt>
</event>
<event>
 5    1  0.1590180E+000  0.6429646E+02  0.7546771E-02  0.1380638E+00
         21   -1    0    0  503  502  0.00000000000E+00  0.00000000000E+00  0.29468728493E+03  0.29468728493E+03  0.00000000000E+00 0. -1.
         21   -1    0    0  501  503 -0.00000000000E+00 -0.00000000000E+00 -0.15594002405E+02  0.15594002405E+02  0.00000000000E+00 0.  1.
         24    1    1    2    0    0 -0.85506529403E+00 -0.56415896447E+01  0.13483893906E+03  0.15710287747E+03  0.80419002446E+02 0.  1.
          1    1    1    2  501    0 -0.46486826278E+01  0.26241092849E+02  0.51290433322E+02  0.57800638011E+02  0.00000000000E+00 0. -1.
         -2    1    1    2    0  502  0.55037479218E+01 -0.20599503205E+02  0.92963910143E+02  0.95377771847E+02  0.00000000000E+00 0.  1.
<mgrwt>
<rscale>  2 0.64296464E+02</rscale>
<asrwt>0</asrwt>
<pdfrwt beam="1">  1       21 0.45336501E-01 0.64296464E+02</pdfrwt>
<pdfrwt beam="2">  1       21 0.23990775E-02 0.64296464E+02</pdfrwt>
<totfact> 0.40622348E+06</totfact>
</mgrwt>
</event>
<event>
 5    1  0.1590180E+000  0.1109787E+03  0.7546771E-02  0.1258768E+00
         21   -1    0    0  501  502  0.00000000000E+00  0.00000000000E+00  0.13867306982E+02  0.13867306982E+02  0.00000000000E+00 0.  1.
         21   -1    0    0  502  503 -0.00000000000E+00 -0.00000000000E+00 -0.11079373647E+04  0.11079373647E+04  0.00000000000E+00 0.  1.
         24    1    1    2    0    0  0.48089535687E+02  0.73352136225E+02 -0.33612237797E+03  0.35656501266E+03  0.80419002446E+02 0.  1.
          1    1    1    2  501    0  0.11908713205E+02 -0.16127118903E+02 -0.92563548026E+02  0.94709618506E+02  0.00000000000E+00 0. -1.
         -2    1    1    2    0  503 -0.59998248892E+02 -0.57225017322E+02 -0.66538413172E+03  0.67053004051E+03  0.00000000000E+00 0.  1.
<mgrwt>
<rscale>  2 0.11097866E+03</rscale>
<asrwt>0</asrwt>
<pdfrwt beam="1">  1       21 0.21334315E-02 0.11097866E+03</pdfrwt>
<pdfrwt beam="2">  1       21 0.17045193E+00 0.11097866E+03</pdfrwt>
<totfact> 0.24304947E+05</totfact>
</mgrwt>
</event>
<event>
 5    1  0.1590180E+000  0.6329593E+02  0.7546771E-02  0.1384499E+00
         21   -1    0    0  501  502  0.00000000000E+00  0.00000000000E+00  0.23621402108E+02  0.23621402108E+02  0.00000000000E+00 0.  1.
         21   -1    0    0  502  503 -0.00000000000E+00 -0.00000000000E+00 -0.17854124761E+03  0.17854124761E+03  0.00000000000E+00 0. -1.
         24    1    1    2    0    0 -0.11339481290E+02  0.20431795980E+02 -0.10996279446E+03  0.13822110636E+03  0.80419002446E+02 0.  1.
          1    1    1    2  501    0 -0.92608120859E+01 -0.20226043430E+02 -0.12551944318E+02  0.25542254785E+02  0.00000000000E+00 0. -1.
         -2    1    1    2    0  503  0.20600293376E+02 -0.20575254929E+00 -0.32405106722E+02  0.38399288573E+02  0.00000000000E+00 0.  1.
<mgrwt>
<rscale>  2 0.63295933E+02</rscale>
<asrwt>0</asrwt>
<pdfrwt beam="1">  1       21 0.36340618E-02 0.63295933E+02</pdfrwt>
<pdfrwt beam="2">  1       21 0.27467884E-01 0.63295933E+02</pdfrwt>
<totfact> 0.54646291E+06</totfact>
</mgrwt>
</event>
<event>
 5    1  0.1590180E+000  0.4090445E+03  0.7546771E-02  0.1040692E+00
         21   -1    0    0  501  502  0.00000000000E+00  0.00000000000E+00  0.80125506758E+03  0.80125506758E+03  0.00000000000E+00 0. -1.
         21   -1    0    0  502  503 -0.00000000000E+00 -0.00000000000E+00 -0.34683191500E+03  0.34683191500E+03  0.00000000000E+00 0.  1.
         24    1    1    2    0    0  0.11974970267E+02  0.39331705751E+03  0.32574599685E+03  0.51712607559E+03  0.80419002446E+02 0. -1.
          1    1    1    2  501    0  0.12853620620E+02 -0.39133774859E+03  0.27759904067E+03  0.47997049536E+03  0.00000000000E+00 0. -1.
         -2    1    1    2    0  503 -0.24828590887E+02 -0.19793089127E+01 -0.14892188494E+03  0.15099041163E+03  0.00000000000E+00 0.  1.
<mgrwt>
<rscale>  2 0.40904448E+03</rscale>
<asrwt>0</asrwt>
<pdfrwt beam="1">  1       21 0.12327001E+00 0.40904448E+03</pdfrwt>
<pdfrwt beam="2">  1       21 0.53358756E-01 0.40904448E+03</pdfrwt>
<totfact> 0.14271962E+03</totfact>
</mgrwt>
</event>
<event>
 5    1  0.1590180E+000  0.9108011E+02  0.7546771E-02  0.1300257E+00
         21   -1    0    0  503  502  0.00000000000E+00  0.00000000000E+00  0.16212238369E+04  0.16212238369E+04  0.00000000000E+00 0.  1.
         21   -1    0    0  501  503 -0.00000000000E+00 -0.00000000000E+00 -0.16521540575E+02  0.16521540575E+02  0.00000000000E+00 0. -1.
         24    1    1    2    0    0  0.54256698179E+02  0.34371438948E+02  0.28281161973E+03  0.30095649739E+03  0.80419002446E+02 0. -1.
          1    1    1    2  501    0 -0.46947737801E+02 -0.30156784470E+01  0.69155917925E+02  0.83640453043E+02  0.00000000000E+00 0. -1.
         -2    1    1    2    0  502 -0.73089603781E+01 -0.31355760501E+02  0.12527347587E+04  0.12531484271E+04  0.00000000000E+00 0.  1.
<mgrwt>
<rscale>  2 0.91080115E+02</rscale>
<asrwt>0</asrwt>
<pdfrwt beam="1">  1       21 0.24941893E+00 0.91080115E+02</pdfrwt>
<pdfrwt beam="2">  1       21 0.25417768E-02 0.91080115E+02</pdfrwt>
<totfact> 0.61429959E+04</totfact>
</mgrwt>
</event>
<event>
 5    1  0.1590180E+000  0.8928102E+02  0.7546771E-02  0.1304602E+00
         21   -1    0    0  503  502  0.00000000000E+00  0.00000000000E+00  0.18169607202E+03  0.18169607202E+03  0.00000000000E+00 0.  1.
         21   -1    0    0  501  503 -0.00000000000E+00 -0.00000000000E+00 -0.22019104678E+03  0.22019104678E+03  0.00000000000E+00 0. -1.
         24    1    1    2    0    0  0.33059065499E+02  0.35817239072E+02  0.10679411515E+02  0.94641651566E+02  0.80419002446E+02 0. -1.
          1    1    1    2  501    0 -0.34977154685E+02  0.11765890423E+02 -0.17178886250E+03  0.17570785642E+03  0.00000000000E+00 0. -1.
         -2    1    1    2    0  502  0.19180891858E+01 -0.47583129494E+02  0.12261447622E+03  0.13153761081E+03  0.00000000000E+00 0.  1.
<mgrwt>
<rscale>  2 0.89281021E+02</rscale>
<asrwt>0</asrwt>
<pdfrwt beam="1">  1       21 0.27953242E-01 0.89281021E+02</pdfrwt>
<pdfrwt beam="2">  1       21 0.33875545E-01 0.89281021E+02</pdfrwt>
<totfact> 0.10699256E+05</totfact>
</mgrwt>
</event>
<event>
 5    1  0.1590180E+000  0.1308179E+03  0.7546771E-02  0.1226247E+00
         21   -1    0    0  503  502  0.00000000000E+00  0.00000000000E+00  0.63566839105E+02  0.63566839105E+02  0.00000000000E+00 0.  1.
         21   -1    0    0  501  503 -0.00000000000E+00 -0.00000000000E+00 -0.29268279916E+03  0.29268279916E+03  0.00000000000E+00 0.  1.
         24    1    1    2    0    0 -0.76412325058E+02 -0.66621278410E+02 -0.14824791885E+03  0.19677880871E+03  0.80419002446E+02 0.  1.
          1    1    1    2  501    0  0.19732599737E+02 -0.20400775870E+02 -0.37247820052E+02  0.46829128191E+02  0.00000000000E+00 0. -1.
         -2    1    1    2    0  502  0.56679725320E+02  0.87022054281E+02 -0.43620221151E+02  0.11264170137E+03  0.00000000000E+00 0.  1.
<mgrwt>
<rscale>  2 0.13081790E+03</rscale>
<asrwt>0</asrwt>
<pdfrwt beam="1">  1       21 0.97795139E-02 0.13081790E+03</pdfrwt>
<pdfrwt beam="2">  1       21 0.45028122E-01 0.13081790E+03</pdfrwt>
<totfact> 0.40364007E+05</totfact>
</mgrwt>
</event>
<event>
 5    1  0.1590180E+000  0.2049158E+03  0.7546771E-02  0.1145657E+00
         21   -1    0    0  501  502  0.00000000000E+00  0.00000000000E+00  0.90005414563E+03  0.90005414563E+03  0.00000000000E+00 0.  1.
         21   -1    0    0  502  503 -0.00000000000E+00 -0.00000000000E+00 -0.47205642274E+02  0.47205642274E+02  0.00000000000E+00 0.  1.
         24    1    1    2    0    0  0.13170033013E+03  0.11020168251E+03  0.40337572808E+03  0.44572253897E+03  0.80419002446E+02 0.  1.
          1    1    1    2  501    0  0.22764816169E+02  0.96243540854E+01  0.77136682628E+02  0.80999585515E+02  0.00000000000E+00 0. -1.
         -2    1    1    2    0  503 -0.15446514630E+03 -0.11982603660E+03  0.37233609265E+03  0.42053766342E+03  0.00000000000E+00 0.  1.
<mgrwt>
<rscale>  2 0.20491579E+03</rscale>
<asrwt>0</asrwt>
<pdfrwt beam="1">  1       21 0.13846986E+00 0.20491579E+03</pdfrwt>
<pdfrwt beam="2">  1       21 0.72624072E-02 0.20491579E+03</pdfrwt>
<totfact> 0.51902367E+04</totfact>
</mgrwt>
</event>
<event>
 5    1  0.1590180E+000  0.1070685E+03  0.7546771E-02  0.1266097E+00
         21   -1    0    0  503  502  0.00000000000E+00  0.00000000000E+00  0.45467340734E+03  0.45467340734E+03  0.00000000000E+00 0.  1.
         21   -1    0    0  501  503 -0.00000000000E+00 -0.00000000000E+00 -0.30849490800E+02  0.30849490800E+02  0.00000000000E+00 0.  1.
         24    1    1    2    0    0 -0.22118351371E+02 -0.89006315965E+02  0.31841485730E+03  0.34097886013E+03  0.80419002446E+02 0.  1.
          1    1    1    2  501    0  0.47988823567E+01  0.37797635349E+02  0.18893751132E+02  0.42528394535E+02  0.00000000000E+00 0. -1.
         -2    1    1    2    0  502  0.17319469014E+02  0.51208680616E+02  0.86515308107E+02  0.10201564348E+03  0.00000000000E+00 0.  1.
<mgrwt>
<rscale>  2 0.10706850E+03</rscale>
<asrwt>0</asrwt>
<pdfrwt beam="1">  1       21 0.69949750E-01 0.10706850E+03</pdfrwt>
<pdfrwt beam="2">  1       21 0.47460758E-02 0.10706850E+03</pdfrwt>
<totfact> 0.55109906E+05</totfact>
</mgrwt>
</event>
<event>
 5    1  0.1590180E+000  0.7952944E+02  0.7546771E-02  0.1330392E+00
         21   -1    0    0  503  502  0.00000000000E+00  0.00000000000E+00  0.14735155245E+03  0.14735155245E+03  0.00000000000E+00 0.  1.
         21   -1    0    0  501  503 -0.00000000000E+00 -0.00000000000E+00 -0.12429245152E+03  0.12429245152E+03  0.00000000000E+00 0.  1.
         24    1    1    2    0    0 -0.65915377153E+01 -0.21591327869E+02 -0.74169246400E+02  0.11170464124E+03  0.80419002446E+02 0.  1.
          1    1    1    2  501    0 -0.32654666044E+02  0.14137100754E+02 -0.16629003457E+02  0.39277329188E+02  0.00000000000E+00 0. -1.
         -2    1    1    2    0  502  0.39246203759E+02  0.74542271155E+01  0.11385735078E+03  0.12066203354E+03  0.00000000000E+00 0.  1.
<mgrwt>
<rscale>  2 0.79529436E+02</rscale>
<asrwt>0</asrwt>
<pdfrwt beam="1">  1       21 0.22669470E-01 0.79529436E+02</pdfrwt>
<pdfrwt beam="2">  1       21 0.19121916E-01 0.79529436E+02</pdfrwt>
<totfact> 0.46307986E+05</totfact>
</mgrwt>
</event>
<event>
 5    1  0.1590180E+000  0.7700942E+02  0.7546771E-02  0.1337759E+00
         21   -1    0    0  503  502  0.00000000000E+00  0.00000000000E+00  0.14947528916E+02  0.14947528916E+02  0.00000000000E+00 0. -1.
         21   -1    0    0  501  503 -0.00000000000E+00 -0.00000000000E+00 -0.54929754184E+03  0.54929754184E+03  0.00000000000E+00 0. -1.
         24    1    1    2    0    0 -0.27126540957E+02 -0.14948003759E+02 -0.15029229434E+03  0.17324630366E+03  0.80419002446E+02 0. -1.
          1    1    1    2  501    0  0.21175652355E+02  0.38288728453E+02 -0.31124147930E+03  0.31430191443E+03  0.00000000000E+00 0. -1.
         -2    1    1    2    0  502  0.59508886023E+01 -0.23340724694E+02 -0.72816239287E+02  0.76696852662E+02  0.00000000000E+00 0.  1.
<mgrwt>
<rscale>  2 0.77009420E+02</rscale>
<asrwt>0</asrwt>
<pdfrwt beam="1">  1       21 0.22996198E-02 0.77009420E+02</pdfrwt>
<pdfrwt beam="2">  1       21 0.84507316E-01 0.77009420E+02</pdfrwt>
<totfact> 0.11859134E+06</totfact>
</mgrwt>
</event>
<event>
 5    1  0.1590180E+000  0.1948856E+03  0.7546771E-02  0.1154127E+00
         21   -1    0    0  501  502  0.00000000000E+00  0.00000000000E+00  0.64686071256E+02  0.64686071256E+02  0.00000000000E+00 0.  1.
         21   -1    0    0  502  503 -0.00000000000E+00 -0.00000000000E+00 -0.90591609944E+03  0.90591609944E+03  0.00000000000E+00 0.  1.
         24    1    1    2    0    0  0.10377579996E+03 -0.15412505008E+03 -0.62292508627E+03  0.65500139448E+03  0.80419002446E+02 0.  1.
          1    1    1    2  501    0 -0.26374680467E+02  0.22764719333E+02  0.14150453090E+02  0.37604408501E+02  0.00000000000E+00 0. -1.
         -2    1    1    2    0  503 -0.77401119498E+02  0.13136033075E+03 -0.23245539501E+03  0.27799636772E+03  0.00000000000E+00 0.  1.
<mgrwt>
<rscale>  2 0.19488556E+03</rscale>
<asrwt>0</asrwt>
<pdfrwt beam="1">  1       21 0.99517038E-02 0.19488556E+03</pdfrwt>
<pdfrwt beam="2">  1       21 0.13937170E+00 0.19488556E+03</pdfrwt>
<totfact> 0.29587873E+04</totfact>
</mgrwt>
</event>
<event>
 5    1  0.1590180E+000  0.9625921E+02  0.7546771E-02  0.1288365E+00
         21   -1    0    0  503  502  0.00000000000E+00  0.00000000000E+00  0.29180304616E+03  0.29180304616E+03  0.00000000000E+00 0.  1.
         21   -1    0    0  501  503 -0.00000000000E+00 -0.00000000000E+00 -0.51939022478E+02  0.51939022478E+02  0.00000000000E+00 0. -1.
         24    1    1    2    0    0  0.10280752464E+02  0.27250737491E+02  0.14349579933E+03  0.16705255743E+03  0.80419002446E+02 0.  0.
          1    1    1    2  501    0 -0.48144497313E+02 -0.44334766382E+02 -0.64811228294E+01  0.65768298479E+02  0.00000000000E+00 0. -1.
         -2    1    1    2    0  502  0.37863744850E+02  0.17084028891E+02  0.10284934719E+03  0.11092121273E+03  0.00000000000E+00 0.  1.
<mgrwt>
<rscale>  2 0.96259207E+02</rscale>
<asrwt>0</asrwt>
<pdfrwt beam="1">  1       21 0.44892775E-01 0.96259207E+02</pdfrwt>
<pdfrwt beam="2">  1       21 0.79906190E-02 0.96259207E+02</pdfrwt>
<totfact> 0.57736197E+05</totfact>
</mgrwt>
</event>
<event>
 5    1  0.1590180E+000  0.6987844E+02  0.7546771E-02  0.1360507E+00
         21   -1    0    0  503  502  0.00000000000E+00  0.00000000000E+00  0.99336638734E+02  0.99336638734E+02  0.00000000000E+00 0.  1.
         21   -1    0    0  501  503 -0.00000000000E+00 -0.00000000000E+00 -0.79698668245E+02  0.79698668245E+02  0.00000000000E+00 0. -1.
         24    1    1    2    0    0 -0.15244421413E+02  0.76916290086E+01  0.17234240412E+02  0.83998741288E+02  0.80419002446E+02 0. -1.
          1    1    1    2  501    0  0.34875191273E+02 -0.12983578297E+02 -0.35877061292E+02  0.51691544750E+02  0.00000000000E+00 0. -1.
         -2    1    1    2    0  502 -0.19630769859E+02  0.52919492884E+01  0.38280791369E+02  0.43345020941E+02  0.00000000000E+00 0.  1.
<mgrwt>
<rscale>  2 0.69878444E+02</rscale>
<asrwt>0</asrwt>
<pdfrwt beam="1">  1       21 0.15282560E-01 0.69878444E+02</pdfrwt>
<pdfrwt beam="2">  1       21 0.12261334E-01 0.69878444E+02</pdfrwt>
<totfact> 0.20761191E+06</totfact>
</mgrwt>
</event>
<event>
 5    1  0.1590180E+000  0.7620423E+02  0.7546771E-02  0.1340182E+00
         21   -1    0    0  503  502  0.00000000000E+00  0.00000000000E+00  0.11150148430E+03  0.11150148430E+03  0.00000000000E+00 0.  1.
         21   -1    0    0  501  503 -0.00000000000E+00 -0.00000000000E+00 -0.14011469584E+03  0.14011469584E+03  0.00000000000E+00 0. -1.
         24    1    1    2    0    0 -0.77543811179E+01  0.18308288024E+02 -0.69915236049E+02  0.10840055361E+03  0.80419002446E+02 0.  0.
          1    1    1    2  501    0 -0.28104848238E+02  0.23171805997E+01 -0.41778774182E+02  0.50405533352E+02  0.00000000000E+00 0. -1.
         -2    1    1    2    0  502  0.35859229356E+02 -0.20625468623E+02  0.83080798687E+02  0.92810093182E+02  0.00000000000E+00 0.  1.
<mgrwt>
<rscale>  2 0.76204225E+02</rscale>
<asrwt>0</asrwt>
<pdfrwt beam="1">  1       21 0.17154075E-01 0.76204225E+02</pdfrwt>
<pdfrwt beam="2">  1       21 0.21556107E-01 0.76204225E+02</pdfrwt>
<totfact> 0.61802137E+05</totfact>
</mgrwt>
</event>
<event>
 5    1  0.1590180E+000  0.7965140E+02  0.7546771E-02  0.1330044E+00
         21   -1    0    0  501  502  0.00000000000E+00  0.00000000000E+00  0.49294503848E+03  0.49294503848E+03  0.00000000000E+00 0. -1.
         21   -1    0    0  502  503 -0.00000000000E+00 -0.00000000000E+00 -0.13886295348E+03  0.13886295348E+03  0.00000000000E+00 0.  1.
         24    1    1    2    0    0 -0.36009088230E+02 -0.82930364518E+01  0.12022604571E+03  0.14928813386E+03  0.80419002446E+02 0. -1.
          1    1    1    2  501    0  0.44517057789E+02 -0.14220396395E+02  0.35547937218E+03  0.35853810418E+03  0.00000000000E+00 0. -1.
         -2    1    1    2    0  503 -0.85079695592E+01  0.22513432847E+02 -0.12162333288E+03  0.12398175392E+03  0.00000000000E+00 0.  1.
<mgrwt>
<rscale>  2 0.79651399E+02</rscale>
<asrwt>0</asrwt>
<pdfrwt beam="1">  1       21 0.75837697E-01 0.79651399E+02</pdfrwt>
<pdfrwt beam="2">  1       21 0.21363532E-01 0.79651399E+02</pdfrwt>
<totfact> 0.34150175E+04</totfact>
</mgrwt>
</event>
<event>
 5    1  0.1590180E+000  0.8941531E+02  0.7546771E-02  0.1304274E+00
         21   -1    0    0  503  502  0.00000000000E+00  0.00000000000E+00  0.22694028199E+02  0.22694028199E+02  0.00000000000E+00 0. -1.
         21   -1    0    0  501  503 -0.00000000000E+00 -0.00000000000E+00 -0.85872835170E+03  0.85872835170E+03  0.00000000000E+00 0. -1.
         24    1    1    2    0    0 -0.24221635260E+02 -0.65828487010E+02 -0.19071801945E+03  0.21854211542E+03  0.80419002446E+02 0. -1.
          1    1    1    2  501    0  0.73264392651E+01  0.43534605508E+02 -0.62889746856E+03  0.63044505276E+03  0.00000000000E+00 0. -1.
         -2    1    1    2    0  502  0.16895195995E+02  0.22293881502E+02 -0.16418835493E+02  0.32435211716E+02  0.00000000000E+00 0.  1.
<mgrwt>
<rscale>  2 0.89415309E+02</rscale>
<asrwt>0</asrwt>
<pdfrwt beam="1">  1       21 0.34913886E-02 0.89415309E+02</pdfrwt>
<pdfrwt beam="2">  1       21 0.13211207E+00 0.89415309E+02</pdfrwt>
<totfact> 0.21226303E+05</totfact>
</mgrwt>
</event>
<event>
 5    1  0.1590180E+000  0.1309774E+03  0.7546771E-02  0.1226013E+00
         21   -1    0    0  503  502  0.00000000000E+00  0.00000000000E+00  0.44697382752E+03  0.44697382752E+03  0.00000000000E+00 0. -1.
         21   -1    0    0  501  503 -0.00000000000E+00 -0.00000000000E+00 -0.57579714979E+02  0.57579714979E+02  0.00000000000E+00 0. -1.
         24    1    1    2    0    0  0.26143305453E+02  0.84096193634E+02  0.27259389651E+03  0.29754040158E+03  0.80419002446E+02 0. -1.
          1    1    1    2  501    0 -0.10867665887E+02 -0.11112136954E+03  0.31157130671E+02  0.11591734866E+03  0.00000000000E+00 0. -1.
         -2    1    1    2    0  502 -0.15275639566E+02  0.27025175901E+02  0.85643085361E+02  0.91095792256E+02  0.00000000000E+00 0.  1.
<mgrwt>
<rscale>  2 0.13097738E+03</rscale>
<asrwt>0</asrwt>
<pdfrwt beam="1">  1       21 0.68765202E-01 0.13097738E+03</pdfrwt>
<pdfrwt beam="2">  1       21 0.88584180E-02 0.13097738E+03</pdfrwt>
<totfact> 0.19706995E+05</totfact>
</mgrwt>
</event>
<event>
 5    1  0.1590180E+000  0.1077683E+03  0.7546771E-02  0.1264759E+00
         21   -1    0    0  503  502  0.00000000000E+00  0.00000000000E+00  0.12056342793E+03  0.12056342793E+03  0.00000000000E+00 0.  1.
         21   -1    0    0  501  503 -0.00000000000E+00 -0.00000000000E+00 -0.11313798357E+03  0.11313798357E+03  0.00000000000E+00 0.  1.
         24    1    1    2    0    0 -0.86676163118E+02  0.30482712139E+02  0.47746381375E+02  0.13110639146E+03  0.80419002446E+02 0.  1.
          1    1    1    2  501    0  0.25122714692E+02 -0.17247001902E+02 -0.19943417705E+02  0.36419085352E+02  0.00000000000E+00 0. -1.
         -2    1    1    2    0  502  0.61553448425E+02 -0.13235710238E+02 -0.20377519316E+02  0.66175934690E+02  0.00000000000E+00 0.  1.
<mgrwt>
<rscale>  2 0.10776830E+03</rscale>
<asrwt>0</asrwt>
<pdfrwt beam="1">  1       21 0.18548220E-01 0.10776830E+03</pdfrwt>
<pdfrwt beam="2">  1       21 0.17405844E-01 0.10776830E+03</pdfrwt>
<totfact> 0.79516317E+05</totfact>
</mgrwt>
</event>
<event>
 5    1  0.1590180E+000  0.8358932E+02  0.7546771E-02  0.1319163E+00
         21   -1    0    0  503  502  0.00000000000E+00  0.00000000000E+00  0.40549078517E+03  0.40549078517E+03  0.00000000000E+00 0. -1.
         21   -1    0    0  501  503 -0.00000000000E+00 -0.00000000000E+00 -0.22274934365E+02  0.22274934365E+02  0.00000000000E+00 0.  1.
         24    1    1    2    0    0 -0.22053450139E+02 -0.94397199932E+01  0.25874342895E+03  0.27201257500E+03  0.80419002446E+02 0. -1.
          1    1    1    2  501    0  0.52142624497E+02  0.16132493359E+01  0.39990514967E+02  0.65732010088E+02  0.00000000000E+00 0. -1.
         -2    1    1    2    0  502 -0.30089174358E+02  0.78264706573E+01  0.84481906886E+02  0.90021134450E+02  0.00000000000E+00 0.  1.
<mgrwt>
<rscale>  2 0.83589315E+02</rscale>
<asrwt>0</asrwt>
<pdfrwt beam="1">  1       21 0.62383192E-01 0.83589315E+02</pdfrwt>
<pdfrwt beam="2">  1       21 0.34269133E-02 0.83589315E+02</pdfrwt>
<totfact> 0.12022955E+06</totfact>
</mgrwt>
</event>
<event>
 5    1  0.1590180E+000  0.1037009E+03  0.7546771E-02  0.1272701E+00
         21   -1    0    0  503  502  0.00000000000E+00  0.00000000000E+00  0.38993976318E+03  0.38993976318E+03  0.00000000000E+00 0.  1.
         21   -1    0    0  501  503 -0.00000000000E+00 -0.00000000000E+00 -0.35870432242E+02  0.35870432242E+02  0.00000000000E+00 0. -1.
         24    1    1    2    0    0 -0.75396897408E+02 -0.98046188838E+01  0.99593797437E+02  0.14888573851E+03  0.80419002446E+02 0. -1.
          1    1    1    2  501    0  0.57097144574E+02  0.33954807970E+02  0.10383564888E+03  0.12326741208E+03  0.00000000000E+00 0. -1.
         -2    1    1    2    0  502  0.18299752834E+02 -0.24150189086E+02  0.15063988462E+03  0.15365704483E+03  0.00000000000E+00 0.  1.
<mgrwt>
<rscale>  2 0.10370087E+03</rscale>
<asrwt>0</asrwt>
<pdfrwt beam="1">  1       21 0.59990730E-01 0.10370087E+03</pdfrwt>
<pdfrwt beam="2">  1       21 0.55185283E-02 0.10370087E+03</pdfrwt>
<totfact> 0.59481608E+05</totfact>
</mgrwt>
</event>
<event>
 5    1  0.1964497E+000  0.9834719E+02  0.7546771E-02  0.1283810E+00
         21   -1    0    0  501  502  0.00000000000E+00  0.00000000000E+00  0.43720411187E+03  0.43720411187E+03  0.00000000000E+00 0. -1.
         21   -1    0    0  502  503 -0.00000000000E+00 -0.00000000000E+00 -0.99109225428E+02  0.99109225428E+02  0.00000000000E+00 0.  1.
         24    1    1    2    0    0 -0.13178370585E+02  0.11093080301E+02  0.74651058246E+02  0.11107079874E+03  0.80419002446E+02 0. -1.
          1    1    1    2  501    0 -0.29554469840E+02 -0.49069251384E+02  0.33147047200E+03  0.33638360829E+03  0.00000000000E+00 0. -1.
         -2    1    1    2    0  503  0.42732840425E+02  0.37976171083E+02 -0.68026643802E+02  0.88858930266E+02  0.00000000000E+00 0.  1.
<mgrwt>
<rscale>  2 0.98347186E+02</rscale>
<asrwt>0</asrwt>
<pdfrwt beam="1">  1       21 0.67262170E-01 0.98347186E+02</pdfrwt>
<pdfrwt beam="2">  1       21 0.15247573E-01 0.98347186E+02</pdfrwt>
<totfact> 0.80438177E+04</totfact>
</mgrwt>
</event>
<event>
 5    1  0.1590180E+000  0.8963615E+02  0.7546771E-02  0.1303735E+00
         21   -1    0    0  501  502  0.00000000000E+00  0.00000000000E+00  0.43593058352E+02  0.43593058352E+02  0.00000000000E+00 0. -1.
         21   -1    0    0  502  503 -0.00000000000E+00 -0.00000000000E+00 -0.64454423410E+03  0.64454423410E+03  0.00000000000E+00 0.  1.
         24    1    1    2    0    0  0.52196991789E+01 -0.40714340646E+02 -0.31044592805E+02  0.95477146431E+02  0.80419002446E+02 0.  0.
          1    1    1    2  501    0 -0.28880713347E+02  0.54442108096E+02 -0.75329499800E+02  0.97327140498E+02  0.00000000000E+00 0. -1.
         -2    1    1    2    0  503  0.23661014168E+02 -0.13727767449E+02 -0.49457708314E+03  0.49533300552E+03  0.00000000000E+00 0.  1.
<mgrwt>
<rscale>  2 0.89636150E+02</rscale>
<asrwt>0</asrwt>
<pdfrwt beam="1">  1       21 0.67066245E-02 0.89636150E+02</pdfrwt>
<pdfrwt beam="2">  1       21 0.99160650E-01 0.89636150E+02</pdfrwt>
<totfact> 0.14209025E+05</totfact>
</mgrwt>
</event>
<event>
 5    1  0.1590180E+000  0.9511408E+02  0.7546771E-02  0.1290919E+00
         21   -1    0    0  503  502  0.00000000000E+00  0.00000000000E+00  0.80054462974E+02  0.80054462974E+02  0.00000000000E+00 0.  1.
         21   -1    0    0  501  503 -0.00000000000E+00 -0.00000000000E+00 -0.18713079058E+03  0.18713079058E+03  0.00000000000E+00 0.  1.
         24    1    1    2    0    0 -0.30993688770E+02  0.69566938061E+02 -0.11856305703E+03  0.16224851944E+03  0.80419002446E+02 0.  1.
          1    1    1    2  501    0  0.25711588447E+02 -0.29822228824E+02 -0.28269992646E+02  0.48473122416E+02  0.00000000000E+00 0. -1.
         -2    1    1    2    0  502  0.52821003233E+01 -0.39744709237E+02  0.39756722069E+02  0.56463611696E+02  0.00000000000E+00 0.  1.
<mgrwt>
<rscale>  2 0.95114080E+02</rscale>
<asrwt>0</asrwt>
<pdfrwt beam="1">  1       21 0.12316071E-01 0.95114080E+02</pdfrwt>
<pdfrwt beam="2">  1       21 0.28789352E-01 0.95114080E+02</pdfrwt>
<totfact> 0.64996846E+05</totfact>
</mgrwt>
</event>
<event>
 5    1  0.1590180E+000  0.6436236E+02  0.7546771E-02  0.1380386E+00
         21   -1    0    0  503  502  0.00000000000E+00  0.00000000000E+00  0.38068900156E+02  0.38068900156E+02  0.00000000000E+00 0. -1.
         21   -1    0    0  501  503 -0.00000000000E+00 -0.00000000000E+00 -0.11110867299E+03  0.11110867299E+03  0.00000000000E+00 0.  1.
         24    1    1    2    0    0  0.67163447512E+01  0.11738008618E+02 -0.55629947225E+02  0.98715738946E+02  0.80419002446E+02 0.  1.
          1    1    1    2  501    0 -0.25595099205E+02 -0.13550823341E+01 -0.11683668170E+02  0.28168305831E+02  0.00000000000E+00 0. -1.
         -2    1    1    2    0  502  0.18878754454E+02 -0.10382926284E+02 -0.57261574348E+01  0.22293528364E+02  0.00000000000E+00 0.  1.
<mgrwt>
<rscale>  2 0.64362360E+02</rscale>
<asrwt>0</asrwt>
<pdfrwt beam="1">  1       21 0.58567540E-02 0.64362360E+02</pdfrwt>
<pdfrwt beam="2">  1       21 0.17093642E-01 0.64362360E+02</pdfrwt>
<totfact> 0.59430938E+06</totfact>
</mgrwt>
</event>
<event>
 5    1  0.1590180E+000  0.7096472E+02  0.7546771E-02  0.1356843E+00
         21   -1    0    0  501  502  0.00000000000E+00  0.00000000000E+00  0.10952405857E+04  0.10952405857E+04  0.00000000000E+00 0.  1.
         21   -1    0    0  502  503 -0.00000000000E+00 -0.00000000000E+00 -0.61397406364E+01  0.61397406364E+01  0.00000000000E+00 0. -1.
         24    1    1    2    0    0  0.33960277866E+02 -0.22153542374E+02  0.38633555222E+03  0.39669440981E+03  0.80419002446E+02 0. -1.
          1    1    1    2  501    0 -0.53572339673E+01  0.22634270222E+02  0.33966121285E+03  0.34045667809E+03  0.00000000000E+00 0. -1.
         -2    1    1    2    0  503 -0.28603043899E+02 -0.48072784825E+00  0.36310408003E+03  0.36422923846E+03  0.00000000000E+00 0.  1.
<mgrwt>
<rscale>  2 0.70964721E+02</rscale>
<asrwt>0</asrwt>
<pdfrwt beam="1">  1       21 0.16849840E+00 0.70964721E+02</pdfrwt>
<pdfrwt beam="2">  1       21 0.94457635E-03 0.70964721E+02</pdfrwt>
<totfact> 0.92132710E+05</totfact>
</mgrwt>
</event>
<event>
 5    1  0.1590180E+000  0.6960328E+02  0.7546771E-02  0.1361447E+00
         21   -1    0    0  501  502  0.00000000000E+00  0.00000000000E+00  0.26282742590E+03  0.26282742590E+03  0.00000000000E+00 0.  1.
         21   -1    0    0  502  503 -0.00000000000E+00 -0.00000000000E+00 -0.25474890382E+02  0.25474890382E+02  0.00000000000E+00 0. -1.
         24    1    1    2    0    0  0.50049760187E+01 -0.75965990642E+01  0.19839178116E+03  0.21426449284E+03  0.80419002446E+02 0.  1.
          1    1    1    2  501    0 -0.31285301356E+02  0.16431634775E+01  0.34711683096E+02  0.46758646371E+02  0.00000000000E+00 0. -1.
         -2    1    1    2    0  503  0.26280325337E+02  0.59534355867E+01  0.42490712523E+01  0.27279177070E+02  0.00000000000E+00 0.  1.
<mgrwt>
<rscale>  2 0.69603277E+02</rscale>
<asrwt>0</asrwt>
<pdfrwt beam="1">  1       21 0.40434987E-01 0.69603277E+02</pdfrwt>
<pdfrwt beam="2">  1       21 0.39192141E-02 0.69603277E+02</pdfrwt>
<totfact> 0.23177839E+06</totfact>
</mgrwt>
</event>
<event>
 5    1  0.1590180E+000  0.8079080E+02  0.7546771E-02  0.1326822E+00
         21   -1    0    0  503  502  0.00000000000E+00  0.00000000000E+00  0.92892825602E+02  0.92892825602E+02  0.00000000000E+00 0.  1.
         21   -1    0    0  501  503 -0.00000000000E+00 -0.00000000000E+00 -0.86253342321E+02  0.86253342321E+02  0.00000000000E+00 0.  1.
         24    1    1    2    0    0 -0.28894839516E+02  0.10431199321E+01  0.41910216148E+02  0.95182361926E+02  0.80419002446E+02 0.  1.
          1    1    1    2  501    0 -0.28170955414E+01 -0.31812360999E+02 -0.12981215709E+02  0.34474255625E+02  0.00000000000E+00 0. -1.
         -2    1    1    2    0  502  0.31711935057E+02  0.30769241067E+02 -0.22289517158E+02  0.49489550372E+02  0.00000000000E+00 0.  1.
<mgrwt>
<rscale>  2 0.80790798E+02</rscale>
<asrwt>0</asrwt>
<pdfrwt beam="1">  1       21 0.14291204E-01 0.80790798E+02</pdfrwt>
<pdfrwt beam="2">  1       21 0.13269745E-01 0.80790798E+02</pdfrwt>
<totfact> 0.20499557E+06</totfact>
</mgrwt>
</event>
<event>
 5    1  0.1590180E+000  0.6403704E+02  0.7546771E-02  0.1381631E+00
         21   -1    0    0  501  502  0.00000000000E+00  0.00000000000E+00  0.34874567239E+02  0.34874567239E+02  0.00000000000E+00 0.  1.
         21   -1    0    0  502  503 -0.00000000000E+00 -0.00000000000E+00 -0.16452794458E+03  0.16452794458E+03  0.00000000000E+00 0.  1.
         24    1    1    2    0    0  0.59698191950E+01  0.24376467446E+00 -0.70491638625E+02  0.10710735378E+03  0.80419002446E+02 0.  0.
          1    1    1    2  501    0  0.17303798605E+02  0.12075279443E+02  0.60638365158E+01  0.21954587974E+02  0.00000000000E+00 0. -1.
         -2    1    1    2    0  503 -0.23273617800E+02 -0.12319044117E+02 -0.65225575230E+02  0.70340570069E+02  0.00000000000E+00 0.  1.
<mgrwt>
<rscale>  2 0.64037042E+02</rscale>
<asrwt>0</asrwt>
<pdfrwt beam="1">  1       21 0.53653181E-02 0.64037042E+02</pdfrwt>
<pdfrwt beam="2">  1       21 0.25311991E-01 0.64037042E+02</pdfrwt>
<totfact> 0.33635835E+06</totfact>
</mgrwt>
</event>
<event>
 5    1  0.1590180E+000  0.1361674E+03  0.7546771E-02  0.1218581E+00
         21   -1    0    0  503  502  0.00000000000E+00  0.00000000000E+00  0.11594880705E+03  0.11594880705E+03  0.00000000000E+00 0.  1.
         21   -1    0    0  501  503 -0.00000000000E+00 -0.00000000000E+00 -0.20319206367E+03  0.20319206367E+03  0.00000000000E+00 0. -1.
         24    1    1    2    0    0 -0.32885224191E+02  0.22175817326E+02 -0.48382030156E+02  0.10188837834E+03  0.80419002446E+02 0. -1.
          1    1    1    2  501    0  0.96076957909E+02  0.30071082865E+02 -0.77076637113E+02  0.12679061422E+03  0.00000000000E+00 0. -1.
         -2    1    1    2    0  502 -0.63191733718E+02 -0.52246900191E+02  0.38215410641E+02  0.90461878160E+02  0.00000000000E+00 0.  1.
<mgrwt>
<rscale>  2 0.13616744E+03</rscale>
<asrwt>0</asrwt>
<pdfrwt beam="1">  1       21 0.17838278E-01 0.13616744E+03</pdfrwt>
<pdfrwt beam="2">  1       21 0.31260317E-01 0.13616744E+03</pdfrwt>
<totfact> 0.28422224E+05</totfact>
</mgrwt>
</event>
<event>
 5    1  0.1590180E+000  0.1057228E+03  0.7546771E-02  0.1268702E+00
         21   -1    0    0  501  502  0.00000000000E+00  0.00000000000E+00  0.83173497101E+02  0.83173497101E+02  0.00000000000E+00 0.  1.
         21   -1    0    0  502  503 -0.00000000000E+00 -0.00000000000E+00 -0.20102869219E+03  0.20102869219E+03  0.00000000000E+00 0.  1.
         24    1    1    2    0    0 -0.37497729211E+02  0.47387418982E+02 -0.74234125545E+02  0.12501827276E+03  0.80419002446E+02 0.  1.
          1    1    1    2  501    0 -0.13866716700E+01  0.26936391344E+02  0.35020592559E+02  0.44203324989E+02  0.00000000000E+00 0. -1.
         -2    1    1    2    0  503  0.38884400881E+02 -0.74323810325E+02 -0.78641662103E+02  0.11498059154E+03  0.00000000000E+00 0.  1.
<mgrwt>
<rscale>  2 0.10572282E+03</rscale>
<asrwt>0</asrwt>
<pdfrwt beam="1">  1       21 0.12795923E-01 0.10572282E+03</pdfrwt>
<pdfrwt beam="2">  1       21 0.30927491E-01 0.10572282E+03</pdfrwt>
<totfact> 0.52974290E+05</totfact>
</mgrwt>
</event>
<event>
 5    1  0.1590180E+000  0.1229730E+03  0.7546771E-02  0.1238272E+00
         21   -1    0    0  503  502  0.00000000000E+00  0.00000000000E+00  0.41274283744E+02  0.41274283744E+02  0.00000000000E+00 0. -1.
         21   -1    0    0  501  503 -0.00000000000E+00 -0.00000000000E+00 -0.49603333630E+03  0.49603333630E+03  0.00000000000E+00 0. -1.
         24    1    1    2    0    0  0.10347483020E+03  0.21863790058E+02 -0.22062205146E+03  0.25753906761E+03  0.80419002446E+02 0. -1.
          1    1    1    2  501    0 -0.81992342816E+02  0.60975750003E+00 -0.23476581495E+03  0.24867268437E+03  0.00000000000E+00 0. -1.
         -2    1    1    2    0  502 -0.21482487381E+02 -0.22473547558E+02  0.62881384911E+00  0.31095868066E+02  0.00000000000E+00 0.  1.
<mgrwt>
<rscale>  2 0.12297300E+03</rscale>
<asrwt>0</asrwt>
<pdfrwt beam="1">  1       21 0.63498895E-02 0.12297300E+03</pdfrwt>
<pdfrwt beam="2">  1       21 0.76312825E-01 0.12297300E+03</pdfrwt>
<totfact> 0.27835085E+05</totfact>
</mgrwt>
</event>
<event>
 5    1  0.1590180E+000  0.9105521E+02  0.7546771E-02  0.1300316E+00
         21   -1    0    0  501  502  0.00000000000E+00  0.00000000000E+00  0.26132692537E+03  0.26132692537E+03  0.00000000000E+00 0.  1.
         21   -1    0    0  502  503 -0.00000000000E+00 -0.00000000000E+00 -0.36138387513E+02  0.36138387513E+02  0.00000000000E+00 0.  1.
         24    1    1    2    0    0 -0.51476269023E+02 -0.31436917175E+02  0.82013817220E+02  0.12973653380E+03  0.80419002446E+02 0.  1.
          1    1    1    2  501    0 -0.26203737478E+01  0.27196795157E+02  0.79528284347E+02  0.84090903412E+02  0.00000000000E+00 0. -1.
         -2    1    1    2    0  503  0.54096642771E+02  0.42401220180E+01  0.63646436287E+02  0.83637875666E+02  0.00000000000E+00 0.  1.
<mgrwt>
<rscale>  2 0.91055215E+02</rscale>
<asrwt>0</asrwt>
<pdfrwt beam="1">  1       21 0.40204141E-01 0.91055215E+02</pdfrwt>
<pdfrwt beam="2">  1       21 0.55597521E-02 0.91055215E+02</pdfrwt>
<totfact> 0.13286150E+06</totfact>
</mgrwt>
</event>
<event>
 5    1  0.1590180E+000  0.7645446E+02  0.7546771E-02  0.1339425E+00
         21   -1    0    0  501  502  0.00000000000E+00  0.00000000000E+00  0.15967481576E+02  0.15967481576E+02  0.00000000000E+00 0.  1.
         21   -1    0    0  502  503 -0.00000000000E+00 -0.00000000000E+00 -0.60931563054E+03  0.60931563054E+03  0.00000000000E+00 0.  1.
         24    1    1    2    0    0 -0.25076449688E+02 -0.36553591464E+02 -0.32019765626E+03  0.33310471088E+03  0.80419002446E+02 0.  1.
          1    1    1    2  501    0 -0.10671459058E+02  0.17696866241E+02 -0.53519576627E+01  0.21347191010E+02  0.00000000000E+00 0. -1.
         -2    1    1    2    0  503  0.35747908746E+02  0.18856725223E+02 -0.26779853504E+03  0.27083121023E+03  0.00000000000E+00 0.  1.
<mgrwt>
<rscale>  2 0.76454458E+02</rscale>
<asrwt>0</asrwt>
<pdfrwt beam="1">  1       21 0.24565354E-02 0.76454458E+02</pdfrwt>
<pdfrwt beam="2">  1       21 0.93740874E-01 0.76454458E+02</pdfrwt>
<totfact> 0.84534588E+05</totfact>
</mgrwt>
</event>
<event>
 5    1  0.2041831E+000  0.1041903E+03  0.7546771E-02  0.1271723E+00
         21   -1    0    0  501  502  0.00000000000E+00  0.00000000000E+00  0.13640940578E+03  0.13640940578E+03  0.00000000000E+00 0. -1.
         21   -1    0    0  502  503 -0.00000000000E+00 -0.00000000000E+00 -0.22150538676E+03  0.22150538676E+03  0.00000000000E+00 0.  1.
         24    1    1    2    0    0 -0.30822352836E+00 -0.89092693302E+01  0.26800142309E+02  0.85234580212E+02  0.80419002446E+02 0.  0.
          1    1    1    2  501    0 -0.58164110303E+02 -0.20939731701E+02  0.61544095196E+02  0.87230795849E+02  0.00000000000E+00 0. -1.
         -2    1    1    2    0  503  0.58472333831E+02  0.29849001031E+02 -0.17344021849E+03  0.18544941649E+03  0.00000000000E+00 0.  1.
<mgrwt>
<rscale>  2 0.10419029E+03</rscale>
<asrwt>0</asrwt>
<pdfrwt beam="1">  1       21 0.20986063E-01 0.10419029E+03</pdfrwt>
<pdfrwt beam="2">  1       21 0.34077751E-01 0.10419029E+03</pdfrwt>
<totfact> 0.17964170E+05</totfact>
</mgrwt>
</event>
<event>
 5    1  0.1590180E+000  0.8394803E+02  0.7546771E-02  0.1318207E+00
         21   -1    0    0  503  502  0.00000000000E+00  0.00000000000E+00  0.41907956263E+02  0.41907956263E+02  0.00000000000E+00 0.  1.
         21   -1    0    0  501  503 -0.00000000000E+00 -0.00000000000E+00 -0.18159833169E+03  0.18159833169E+03  0.00000000000E+00 0. -1.
         24    1    1    2    0    0 -0.33354071839E+02  0.52738868892E+01 -0.74807584865E+02  0.11490734832E+03  0.80419002446E+02 0.  1.
          1    1    1    2  501    0  0.47460424830E+02 -0.27125840790E+02 -0.61639918445E+02  0.82388001004E+02  0.00000000000E+00 0. -1.
         -2    1    1    2    0  502 -0.14106352991E+02  0.21851953901E+02 -0.32428721163E+01  0.26210938624E+02  0.00000000000E+00 0.  1.
<mgrwt>
<rscale>  2 0.83948026E+02</rscale>
<asrwt>0</asrwt>
<pdfrwt beam="1">  1       21 0.64473778E-02 0.83948026E+02</pdfrwt>
<pdfrwt beam="2">  1       21 0.27938205E-01 0.83948026E+02</pdfrwt>
<totfact> 0.20884569E+06</totfact>
</mgrwt>
</event>
<event>
 5    1  0.1590180E+000  0.8215457E+02  0.7546771E-02  0.1323046E+00
         21   -1    0    0  503  502  0.00000000000E+00  0.00000000000E+00  0.18517189179E+03  0.18517189179E+03  0.00000000000E+00 0. -1.
         21   -1    0    0  501  503 -0.00000000000E+00 -0.00000000000E+00 -0.54492192879E+02  0.54492192879E+02  0.00000000000E+00 0.  1.
         24    1    1    2    0    0  0.12158746505E+02  0.12024737732E+02  0.10309800651E+02  0.82860952070E+02  0.80419002446E+02 0.  1.
          1    1    1    2  501    0  0.54165030287E+01 -0.44680275061E+02  0.18983242228E+02  0.48846995507E+02  0.00000000000E+00 0. -1.
         -2    1    1    2    0  502 -0.17575249534E+02  0.32655537328E+02  0.10138665603E+03  0.10795613709E+03  0.00000000000E+00 0.  1.
<mgrwt>
<rscale>  2 0.82154568E+02</rscale>
<asrwt>0</asrwt>
<pdfrwt beam="1">  1       21 0.28487983E-01 0.82154568E+02</pdfrwt>
<pdfrwt beam="2">  1       21 0.83834144E-02 0.82154568E+02</pdfrwt>
<totfact> 0.12885478E+06</totfact>
</mgrwt>
</event>
<event>
 5    1  0.3621343E+000  0.8115473E+02  0.7546771E-02  0.1325806E+00
         21   -1    0    0  501  502  0.00000000000E+00  0.00000000000E+00  0.18669969460E+03  0.18669969460E+03  0.00000000000E+00 0. -1.
         21   -1    0    0  502  503 -0.00000000000E+00 -0.00000000000E+00 -0.65662263755E+03  0.65662263755E+03  0.00000000000E+00 0.  1.
         24    1    1    2    0    0  0.29428830889E+02  0.16976626085E+02  0.99266580068E+02  0.13219429562E+03  0.80419002446E+02 0.  0.
          1    1    1    2  501    0 -0.14901181076E+02 -0.42832599278E+02  0.63341201561E+02  0.77902404158E+02  0.00000000000E+00 0. -1.
         -2    1    1    2    0  503 -0.14527649813E+02  0.25855973193E+02 -0.63253072458E+03  0.63322563237E+03  0.00000000000E+00 0.  1.
<mgrwt>
<rscale>  2 0.81154727E+02</rscale>
<asrwt>0</asrwt>
<pdfrwt beam="1">  1       21 0.28723030E-01 0.81154727E+02</pdfrwt>
<pdfrwt beam="2">  1       21 0.10101887E+00 0.81154727E+02</pdfrwt>
<totfact> 0.10328514E+04</totfact>
</mgrwt>
</event>
<event>
 5    1  0.1590180E+000  0.8882694E+02  0.7546771E-02  0.1305718E+00
         21   -1    0    0  501  502  0.00000000000E+00  0.00000000000E+00  0.11754526725E+04  0.11754526725E+04  0.00000000000E+00 0. -1.
         21   -1    0    0  502  503 -0.00000000000E+00 -0.00000000000E+00 -0.20741286240E+02  0.20741286240E+02  0.00000000000E+00 0.  1.
         24    1    1    2    0    0  0.40499938286E+02  0.37569864008E+02  0.55804022390E+03  0.56650494007E+03  0.80419002446E+02 0.  1.
          1    1    1    2  501    0 -0.24795534970E+02  0.12389983695E+02  0.57044704467E+03  0.57112009335E+03  0.00000000000E+00 0. -1.
         -2    1    1    2    0  503 -0.15704403315E+02 -0.49959847703E+02  0.26224117711E+02  0.58568925342E+02  0.00000000000E+00 0.  1.
<mgrwt>
<rscale>  2 0.88826942E+02</rscale>
<asrwt>0</asrwt>
<pdfrwt beam="1">  1       21 0.18083882E+00 0.88826942E+02</pdfrwt>
<pdfrwt beam="2">  1       21 0.31909681E-02 0.88826942E+02</pdfrwt>
<totfact> 0.10943810E+05</totfact>
</mgrwt>
</event>
<event>
 5    1  0.1590180E+000  0.6708459E+02  0.7546771E-02  0.1370297E+00
         21   -1    0    0  501  502  0.00000000000E+00  0.00000000000E+00  0.10297117292E+04  0.10297117292E+04  0.00000000000E+00 0. -1.
         21   -1    0    0  502  503 -0.00000000000E+00 -0.00000000000E+00 -0.50221357612E+01  0.50221357612E+01  0.00000000000E+00 0.  1.
         24    1    1    2    0    0 -0.60321526842E+01 -0.11912316685E+02  0.50754677412E+03  0.51405178147E+03  0.80419002446E+02 0.  1.
          1    1    1    2  501    0  0.22745672813E+02 -0.10202522695E+02  0.37704369431E+03  0.37786691377E+03  0.00000000000E+00 0. -1.
         -2    1    1    2    0  503 -0.16713520129E+02  0.22114839379E+02  0.14009912497E+03  0.14281516969E+03  0.00000000000E+00 0.  1.
<mgrwt>
<rscale>  2 0.67084593E+02</rscale>
<asrwt>0</asrwt>
<pdfrwt beam="1">  1       21 0.15841702E+00 0.67084593E+02</pdfrwt>
<pdfrwt beam="2">  1       21 0.77263709E-03 0.67084593E+02</pdfrwt>
<totfact> 0.14742044E+06</totfact>
</mgrwt>
</event>
<event>
 5    1  0.1590180E+000  0.8006830E+02  0.7546771E-02  0.1328858E+00
         21   -1    0    0  501  502  0.00000000000E+00  0.00000000000E+00  0.47743645626E+02  0.47743645626E+02  0.00000000000E+00 0.  1.
         21   -1    0    0  502  503 -0.00000000000E+00 -0.00000000000E+00 -0.16102653828E+03  0.16102653828E+03  0.00000000000E+00 0. -1.
         24    1    1    2    0    0 -0.15233070821E+02  0.55768250703E+02 -0.82127294390E+02  0.12866333072E+03  0.80419002446E+02 0.  0.
          1    1    1    2  501    0  0.16406051802E+02 -0.22714139214E+02  0.77215069778E+01  0.29063935143E+02  0.00000000000E+00 0. -1.
         -2    1    1    2    0  503 -0.11729809807E+01 -0.33054111489E+02 -0.38877105242E+02  0.51042918047E+02  0.00000000000E+00 0.  1.
<mgrwt>
<rscale>  2 0.80068300E+02</rscale>
<asrwt>0</asrwt>
<pdfrwt beam="1">  1       21 0.73451762E-02 0.80068300E+02</pdfrwt>
<pdfrwt beam="2">  1       21 0.24773314E-01 0.80068300E+02</pdfrwt>
<totfact> 0.20955102E+06</totfact>
</mgrwt>
</event>
<event>
 5    1  0.1590180E+000  0.8234475E+02  0.7546771E-02  0.1322526E+00
         21   -1    0    0  501  502  0.00000000000E+00  0.00000000000E+00  0.11223054075E+03  0.11223054075E+03  0.00000000000E+00 0.  1.
         21   -1    0    0  502  503 -0.00000000000E+00 -0.00000000000E+00 -0.63018826399E+02  0.63018826399E+02  0.00000000000E+00 0. -1.
         24    1    1    2    0    0 -0.10657668344E+02  0.10170478737E+02  0.33285779776E+02  0.88273346045E+02  0.80419002446E+02 0.  1.
          1    1    1    2  501    0  0.27464375089E+02 -0.40101919442E+02  0.19692432828E+02  0.52442804585E+02  0.00000000000E+00 0. -1.
         -2    1    1    2    0  503 -0.16806706746E+02  0.29931440705E+02 -0.37664982499E+01  0.34533216523E+02  0.00000000000E+00 0.  1.
<mgrwt>
<rscale>  2 0.82344752E+02</rscale>
<asrwt>0</asrwt>
<pdfrwt beam="1">  1       21 0.17266237E-01 0.82344752E+02</pdfrwt>
<pdfrwt beam="2">  1       21 0.96952041E-02 0.82344752E+02</pdfrwt>
<totfact> 0.25290103E+06</totfact>
</mgrwt>
</event>
<event>
 5    1  0.1590180E+000  0.1238515E+03  0.7546771E-02  0.1236875E+00
         21   -1    0    0  503  502  0.00000000000E+00  0.00000000000E+00  0.22999505706E+03  0.22999505706E+03  0.00000000000E+00 0. -1.
         21   -1    0    0  501  503 -0.00000000000E+00 -0.00000000000E+00 -0.12207319819E+03  0.12207319819E+03  0.00000000000E+00 0. -1.
         24    1    1    2    0    0  0.48948776728E+02 -0.81244693091E+02  0.94367393172E+02  0.15610606570E+03  0.80419002446E+02 0. -1.
          1    1    1    2  501    0 -0.46072806649E+02  0.42144251256E+01 -0.68961236215E+02  0.83042862378E+02  0.00000000000E+00 0. -1.
         -2    1    1    2    0  502 -0.28759700792E+01  0.77030267965E+02  0.82515701914E+02  0.11291932717E+03  0.00000000000E+00 0.  1.
<mgrwt>
<rscale>  2 0.12385151E+03</rscale>
<asrwt>0</asrwt>
<pdfrwt beam="1">  1       21 0.35383855E-01 0.12385151E+03</pdfrwt>
<pdfrwt beam="2">  1       21 0.18780492E-01 0.12385151E+03</pdfrwt>
<totfact> 0.20360350E+05</totfact>
</mgrwt>
</event>
<event>
 5    1  0.1590180E+000  0.6567388E+02  0.7546771E-02  0.1375454E+00
         21   -1    0    0  503  502  0.00000000000E+00  0.00000000000E+00  0.25499969152E+03  0.25499969152E+03  0.00000000000E+00 0. -1.
         21   -1    0    0  501  503 -0.00000000000E+00 -0.00000000000E+00 -0.18295853644E+02  0.18295853644E+02  0.00000000000E+00 0. -1.
         24    1    1    2    0    0  0.21216668380E+01  0.69838988921E+01  0.16226014322E+03  0.18124250701E+03  0.80419002446E+02 0. -1.
          1    1    1    2  501    0  0.90934100299E+00 -0.28678486953E+02  0.25322661153E+02  0.38269043401E+02  0.00000000000E+00 0. -1.
         -2    1    1    2    0  502 -0.30310078410E+01  0.21694588061E+02  0.49121033503E+02  0.53783994757E+02  0.00000000000E+00 0.  1.
<mgrwt>
<rscale>  2 0.65673883E+02</rscale>
<asrwt>0</asrwt>
<pdfrwt beam="1">  1       21 0.39230719E-01 0.65673883E+02</pdfrwt>
<pdfrwt beam="2">  1       21 0.28147469E-02 0.65673883E+02</pdfrwt>
<totfact> 0.41898549E+06</totfact>
</mgrwt>
</event>
<event>
 5    1  0.1590180E+000  0.6680426E+02  0.7546771E-02  0.1371310E+00
         21   -1    0    0  503  502  0.00000000000E+00  0.00000000000E+00  0.28949169712E+03  0.28949169712E+03  0.00000000000E+00 0.  1.
         21   -1    0    0  501  503 -0.00000000000E+00 -0.00000000000E+00 -0.94819761355E+02  0.94819761355E+02  0.00000000000E+00 0. -1.
         24    1    1    2    0    0 -0.75613107570E+01 -0.28977458383E+02 -0.67139592347E+02  0.10895782363E+03  0.80419002446E+02 0. -1.
          1    1    1    2  501    0  0.22691686683E+02  0.15043999071E+02  0.22949878440E+02  0.35608025401E+02  0.00000000000E+00 0. -1.
         -2    1    1    2    0  502 -0.15130375926E+02  0.13933459311E+02  0.23886164967E+03  0.23974560945E+03  0.00000000000E+00 0.  1.
<mgrwt>
<rscale>  2 0.66804255E+02</rscale>
<asrwt>0</asrwt>
<pdfrwt beam="1">  1       21 0.44537184E-01 0.66804255E+02</pdfrwt>
<pdfrwt beam="2">  1       21 0.14587656E-01 0.66804255E+02</pdfrwt>
<totfact> 0.20693414E+05</totfact>
</mgrwt>
</event>
<event>
 5    1  0.1590180E+000  0.6866932E+02  0.7546771E-02  0.1364677E+00
         21   -1    0    0  503  502  0.00000000000E+00  0.00000000000E+00  0.11343225257E+03  0.11343225257E+03  0.00000000000E+00 0.  1.
         21   -1    0    0  501  503 -0.00000000000E+00 -0.00000000000E+00 -0.13413043218E+03  0.13413043218E+03  0.00000000000E+00 0. -1.
         24    1    1    2    0    0 -0.61184087324E+01 -0.35357921007E+00  0.21656195029E+02  0.83509081429E+02  0.80419002446E+02 0.  1.
          1    1    1    2  501    0 -0.23689053690E+02  0.94763924449E+01 -0.97458799135E+02  0.10074319236E+03  0.00000000000E+00 0. -1.
         -2    1    1    2    0  502  0.29807462423E+02 -0.91228132348E+01  0.55104424488E+02  0.63310410957E+02  0.00000000000E+00 0.  1.
<mgrwt>
<rscale>  2 0.68669320E+02</rscale>
<asrwt>0</asrwt>
<pdfrwt beam="1">  1       21 0.17451116E-01 0.68669320E+02</pdfrwt>
<pdfrwt beam="2">  1       21 0.20635451E-01 0.68669320E+02</pdfrwt>
<totfact> 0.64804008E+05</totfact>
</mgrwt>
</event>
<event>
 5    1  0.1590180E+000  0.2372688E+03  0.7546771E-02  0.1121626E+00
         21   -1    0    0  501  502  0.00000000000E+00  0.00000000000E+00  0.11078671778E+04  0.11078671778E+04  0.00000000000E+00 0. -1.
         21   -1    0    0  502  503 -0.00000000000E+00 -0.00000000000E+00 -0.16439307051E+03  0.16439307051E+03  0.00000000000E+00 0.  1.
         24    1    1    2    0    0 -0.11798729290E+03 -0.19018288360E+03  0.31975474337E+03  0.39849823383E+03  0.80419002446E+02 0.  1.
          1    1    1    2  501    0 -0.94004592030E+01  0.33453826742E+02  0.66642222830E+03  0.66732759086E+03  0.00000000000E+00 0. -1.
         -2    1    1    2    0  503  0.12738775210E+03  0.15672905686E+03 -0.42702864344E+02  0.20643442366E+03  0.00000000000E+00 0.  1.
<mgrwt>
<rscale>  2 0.23726881E+03</rscale>
<asrwt>0</asrwt>
<pdfrwt beam="1">  1       21 0.17044110E+00 0.23726881E+03</pdfrwt>
<pdfrwt beam="2">  1       21 0.25291242E-01 0.23726881E+03</pdfrwt>
<totfact> 0.30201890E+03</totfact>
</mgrwt>
</event>
<event>
 5    1  0.1590180E+000  0.7441085E+02  0.7546771E-02  0.1345705E+00
         21   -1    0    0  501  502  0.00000000000E+00  0.00000000000E+00  0.21271705616E+03  0.21271705616E+03  0.00000000000E+00 0. -1.
         21   -1    0    0  502  503 -0.00000000000E+00 -0.00000000000E+00 -0.62552319164E+02  0.62552319164E+02  0.00000000000E+00 0. -1.
         24    1    1    2    0    0  0.45093615657E+02  0.18946426017E+02  0.49291236983E+02  0.10625085049E+03  0.80419002446E+02 0. -1.
          1    1    1    2  501    0 -0.17530115047E+02 -0.20641080767E+02  0.12768704673E+03  0.13052716596E+03  0.00000000000E+00 0. -1.
         -2    1    1    2    0  503 -0.27563500610E+02  0.16946547494E+01 -0.26813546722E+02  0.38491358879E+02  0.00000000000E+00 0.  1.
<mgrwt>
<rscale>  2 0.74410845E+02</rscale>
<asrwt>0</asrwt>
<pdfrwt beam="1">  1       21 0.32725701E-01 0.74410845E+02</pdfrwt>
<pdfrwt beam="2">  1       21 0.96234338E-02 0.74410845E+02</pdfrwt>
<totfact> 0.77930737E+05</totfact>
</mgrwt>
</event>
<event>
 5    1  0.1590180E+000  0.6289064E+02  0.7546771E-02  0.1386086E+00
         21   -1    0    0  501  502  0.00000000000E+00  0.00000000000E+00  0.15383735847E+04  0.15383735847E+04  0.00000000000E+00 0. -1.
         21   -1    0    0  502  503 -0.00000000000E+00 -0.00000000000E+00 -0.10962532464E+02  0.10962532464E+02  0.00000000000E+00 0. -1.
         24    1    1    2    0    0  0.12311282628E+02  0.66603522703E+01  0.17485361631E+03  0.19296873079E+03  0.80419002446E+02 0. -1.
          1    1    1    2  501    0 -0.20895853334E+02  0.11654537164E+02  0.12973597678E+04  0.12975803759E+04  0.00000000000E+00 0. -1.
         -2    1    1    2    0  503  0.85845707066E+01 -0.18314889434E+02  0.55197668193E+02  0.58787010497E+02  0.00000000000E+00 0.  1.
<mgrwt>
<rscale>  2 0.62890643E+02</rscale>
<asrwt>0</asrwt>
<pdfrwt beam="1">  1       21 0.23667269E+00 0.62890643E+02</pdfrwt>
<pdfrwt beam="2">  1       21 0.16865447E-02 0.62890643E+02</pdfrwt>
<totfact> 0.14484949E+05</totfact>
</mgrwt>
</event>
<event>
 5    1  0.1590180E+000  0.7165447E+02  0.7546771E-02  0.1354556E+00
         21   -1    0    0  501  502  0.00000000000E+00  0.00000000000E+00  0.72906065645E+02  0.72906065645E+02  0.00000000000E+00 0. -1.
         21   -1    0    0  502  503 -0.00000000000E+00 -0.00000000000E+00 -0.10585528113E+03  0.10585528113E+03  0.00000000000E+00 0. -1.
         24    1    1    2    0    0 -0.10705650692E+02  0.44146281651E+02  0.29153870115E+02  0.96853855047E+02  0.80419002446E+02 0. -1.
          1    1    1    2  501    0 -0.51737997855E+01 -0.27340784519E+02 -0.21428693984E+02  0.35120871688E+02  0.00000000000E+00 0. -1.
         -2    1    1    2    0  503  0.15879450477E+02 -0.16805497133E+02 -0.40674391615E+02  0.46786620038E+02  0.00000000000E+00 0.  1.
<mgrwt>
<rscale>  2 0.71654466E+02</rscale>
<asrwt>0</asrwt>
<pdfrwt beam="1">  1       21 0.11216318E-01 0.71654466E+02</pdfrwt>
<pdfrwt beam="2">  1       21 0.16285428E-01 0.71654466E+02</pdfrwt>
<totfact> 0.21676548E+06</totfact>
</mgrwt>
</event>
<event>
 5    1  0.1590180E+000  0.1216575E+03  0.7546771E-02  0.1240388E+00
         21   -1    0    0  501  502  0.00000000000E+00  0.00000000000E+00  0.13787389795E+02  0.13787389795E+02  0.00000000000E+00 0. -1.
         21   -1    0    0  502  503 -0.00000000000E+00 -0.00000000000E+00 -0.18207341703E+04  0.18207341703E+04  0.00000000000E+00 0. -1.
         24    1    1    2    0    0 -0.36461313028E+02  0.10198779676E+03 -0.95408983013E+03  0.96357955455E+03  0.80419002446E+02 0. -1.
          1    1    1    2  501    0  0.16610653396E+02 -0.53542840310E+02 -0.88287600077E+02  0.10458226371E+03  0.00000000000E+00 0. -1.
         -2    1    1    2    0  503  0.19850659632E+02 -0.48444956453E+02 -0.76456935028E+03  0.76635974182E+03  0.00000000000E+00 0.  1.
<mgrwt>
<rscale>  2 0.12165748E+03</rscale>
<asrwt>0</asrwt>
<pdfrwt beam="1">  1       21 0.21211357E-02 0.12165748E+03</pdfrwt>
<pdfrwt beam="2">  1       21 0.28011311E+00 0.12165748E+03</pdfrwt>
<totfact> 0.53276605E+04</totfact>
</mgrwt>
</event>
<event>
 5    1  0.1590180E+000  0.6338156E+02  0.7546771E-02  0.1384165E+00
         21   -1    0    0  503  502  0.00000000000E+00  0.00000000000E+00  0.31363702891E+03  0.31363702891E+03  0.00000000000E+00 0.  1.
         21   -1    0    0  501  503 -0.00000000000E+00 -0.00000000000E+00 -0.22075377372E+02  0.22075377372E+02  0.00000000000E+00 0. -1.
         24    1    1    2    0    0 -0.52568708114E+01 -0.23307445600E+02  0.69276834529E+02  0.10879966667E+03  0.80419002446E+02 0. -1.
          1    1    1    2  501    0 -0.14854019052E+02  0.15001205859E+02  0.71029344078E+02  0.74100241426E+02  0.00000000000E+00 0. -1.
         -2    1    1    2    0  502  0.20110889863E+02  0.83062397411E+01  0.15125547294E+03  0.15281249819E+03  0.00000000000E+00 0.  1.
<mgrwt>
<rscale>  2 0.63381555E+02</rscale>
<asrwt>0</asrwt>
<pdfrwt beam="1">  1       21 0.48251847E-01 0.63381555E+02</pdfrwt>
<pdfrwt beam="2">  1       21 0.33962121E-02 0.63381555E+02</pdfrwt>
<totfact> 0.20495074E+06</totfact>
</mgrwt>
</event>
<event>
 5    1  0.1782999E+000  0.8425752E+02  0.7546771E-02  0.1317386E+00
         21   -1    0    0  501  502  0.00000000000E+00  0.00000000000E+00  0.89080151838E+03  0.89080151838E+03  0.00000000000E+00 0.  1.
         21   -1    0    0  502  503 -0.00000000000E+00 -0.00000000000E+00 -0.57346779523E+02  0.57346779523E+02  0.00000000000E+00 0.  1.
         24    1    1    2    0    0 -0.26730542012E+02  0.29541386568E+02  0.76192510436E+03  0.76719247650E+03  0.80419002446E+02 0.  1.
          1    1    1    2  501    0  0.10814112627E+02 -0.50953685630E+02  0.11709282847E+03  0.12815597368E+03  0.00000000000E+00 0. -1.
         -2    1    1    2    0  503  0.15916429385E+02  0.21412299062E+02 -0.45563193965E+02  0.52799847725E+02  0.00000000000E+00 0.  1.
<mgrwt>
<rscale>  2 0.84257517E+02</rscale>
<asrwt>0</asrwt>
<pdfrwt beam="1">  1       21 0.13704638E+00 0.84257517E+02</pdfrwt>
<pdfrwt beam="2">  1       21 0.88225821E-02 0.84257517E+02</pdfrwt>
<totfact> 0.41281689E+04</totfact>
</mgrwt>
</event>
<event>
 5    1  0.1590180E+000  0.6127858E+02  0.7546771E-02  0.1392543E+00
         21   -1    0    0  503  502  0.00000000000E+00  0.00000000000E+00  0.15646220217E+02  0.15646220217E+02  0.00000000000E+00 0.  1.
         21   -1    0    0  501  503 -0.00000000000E+00 -0.00000000000E+00 -0.43932418246E+03  0.43932418246E+03  0.00000000000E+00 0. -1.
         24    1    1    2    0    0  0.12790203728E+01 -0.47188027789E+01 -0.99293903832E+02  0.12786867594E+03  0.80419002446E+02 0.  1.
          1    1    1    2  501    0  0.16027166540E+02  0.14923124664E+02 -0.15859266042E+03  0.16009747549E+03  0.00000000000E+00 0. -1.
         -2    1    1    2    0  502 -0.17306186913E+02 -0.10204321885E+02 -0.16579139799E+03  0.16700425126E+03  0.00000000000E+00 0.  1.
<mgrwt>
<rscale>  2 0.61278582E+02</rscale>
<asrwt>0</asrwt>
<pdfrwt beam="1">  1       21 0.24071110E-02 0.61278582E+02</pdfrwt>
<pdfrwt beam="2">  1       21 0.67588329E-01 0.61278582E+02</pdfrwt>
<totfact> 0.17759258E+06</totfact>
</mgrwt>
</event>
<event>
 5    1  0.1590180E+000  0.8073278E+02  0.7546771E-02  0.1326985E+00
         21   -1    0    0  501  502  0.00000000000E+00  0.00000000000E+00  0.29452693409E+02  0.29452693409E+02  0.00000000000E+00 0.  1.
         21   -1    0    0  502  503 -0.00000000000E+00 -0.00000000000E+00 -0.28388088134E+03  0.28388088134E+03  0.00000000000E+00 0. -1.
         24    1    1    2    0    0 -0.26309742028E+02 -0.12255907837E+02 -0.13468874914E+03  0.15953270793E+03  0.80419002446E+02 0.  0.
          1    1    1    2  501    0  0.49207879125E+02  0.17939997727E+02 -0.28638384330E+02  0.59694354368E+02  0.00000000000E+00 0. -1.
         -2    1    1    2    0  503 -0.22898137097E+02 -0.56840898893E+01 -0.91101054467E+02  0.94106512449E+02  0.00000000000E+00 0.  1.
<mgrwt>
<rscale>  2 0.80732781E+02</rscale>
<asrwt>0</asrwt>
<pdfrwt beam="1">  1       21 0.45311838E-02 0.80732781E+02</pdfrwt>
<pdfrwt beam="2">  1       21 0.43673980E-01 0.80732781E+02</pdfrwt>
<totfact> 0.15776821E+06</totfact>
</mgrwt>
</event>
<event>
 5    1  0.1590180E+000  0.6714648E+02  0.7546771E-02  0.1370074E+00
         21   -1    0    0  503  502  0.00000000000E+00  0.00000000000E+00  0.15309641884E+03  0.15309641884E+03  0.00000000000E+00 0.  1.
         21   -1    0    0  501  503 -0.00000000000E+00 -0.00000000000E+00 -0.95641913814E+02  0.95641913814E+02  0.00000000000E+00 0.  1.
         24    1    1    2    0    0  0.56975733603E+01 -0.28998465515E+02  0.12513664862E+03  0.15165675101E+03  0.80419002446E+02 0.  1.
          1    1    1    2  501    0 -0.20924913342E+02  0.74118824660E+01 -0.67080103358E+02  0.70657825232E+02  0.00000000000E+00 0. -1.
         -2    1    1    2    0  502  0.15227339982E+02  0.21586583049E+02 -0.60204023309E+00  0.26423756415E+02  0.00000000000E+00 0.  1.
<mgrwt>
<rscale>  2 0.67146482E+02</rscale>
<asrwt>0</asrwt>
<pdfrwt beam="1">  1       21 0.23553295E-01 0.67146482E+02</pdfrwt>
<pdfrwt beam="2">  1       21 0.14714141E-01 0.67146482E+02</pdfrwt>
<totfact> 0.68876595E+05</totfact>
</mgrwt>
</event>
<event>
 5    1  0.1590180E+000  0.8778516E+02  0.7546771E-02  0.1308306E+00
         21   -1    0    0  501  502  0.00000000000E+00  0.00000000000E+00  0.16385999350E+03  0.16385999350E+03  0.00000000000E+00 0. -1.
         21   -1    0    0  502  503 -0.00000000000E+00 -0.00000000000E+00 -0.23576400336E+03  0.23576400336E+03  0.00000000000E+00 0.  1.
         24    1    1    2    0    0  0.36010035277E+02  0.11439005252E+02  0.18655500500E+02  0.90789961643E+02  0.80419002446E+02 0. -1.
          1    1    1    2  501    0 -0.13244885360E+02 -0.44582837451E+02  0.10200970972E+03  0.11211171776E+03  0.00000000000E+00 0. -1.
         -2    1    1    2    0  503 -0.22765149917E+02  0.33143832198E+02 -0.19256922008E+03  0.19672231745E+03  0.00000000000E+00 0.  1.
<mgrwt>
<rscale>  2 0.87785161E+02</rscale>
<asrwt>0</asrwt>
<pdfrwt beam="1">  1       21 0.25209230E-01 0.87785161E+02</pdfrwt>
<pdfrwt beam="2">  1       21 0.36271385E-01 0.87785161E+02</pdfrwt>
<totfact> 0.11387604E+05</totfact>
</mgrwt>
</event>
<event>
 5    1  0.1590180E+000  0.1598773E+03  0.7546771E-02  0.1188835E+00
         21   -1    0    0  503  502  0.00000000000E+00  0.00000000000E+00  0.11424834116E+04  0.11424834116E+04  0.00000000000E+00 0. -1.
         21   -1    0    0  501  503 -0.00000000000E+00 -0.00000000000E+00 -0.40866972946E+02  0.40866972946E+02  0.00000000000E+00 0.  1.
         24    1    1    2    0    0 -0.39346614935E+02 -0.13883630596E+03  0.18811416416E+03  0.25035540872E+03  0.80419002446E+02 0.  1.
          1    1    1    2  501    0  0.53606498596E+02  0.11186793063E+03  0.40484259721E+03  0.42342132576E+03  0.00000000000E+00 0. -1.
         -2    1    1    2    0  502 -0.14259883661E+02  0.26968375329E+02  0.50865967726E+03  0.50957365005E+03  0.00000000000E+00 0.  1.
<mgrwt>
<rscale>  2 0.15987732E+03</rscale>
<asrwt>0</asrwt>
<pdfrwt beam="1">  1       21 0.17576665E+00 0.15987732E+03</pdfrwt>
<pdfrwt beam="2">  1       21 0.62872275E-02 0.15987732E+03</pdfrwt>
<totfact> 0.36199466E+04</totfact>
</mgrwt>
</event>
<event>
 5    1  0.1590180E+000  0.1054788E+03  0.7546771E-02  0.1269179E+00
         21   -1    0    0  501  502  0.00000000000E+00  0.00000000000E+00  0.15035703728E+04  0.15035703728E+04  0.00000000000E+00 0. -1.
         21   -1    0    0  502  503 -0.00000000000E+00 -0.00000000000E+00 -0.46708648531E+03  0.46708648531E+03  0.00000000000E+00 0.  1.
         24    1    1    2    0    0  0.51701696858E+02 -0.31593931799E+02  0.41085988611E+03  0.42301808939E+03  0.80419002446E+02 0.  1.
          1    1    1    2  501    0 -0.29715678979E+02 -0.31588759580E+02  0.10837684123E+04  0.10846358111E+04  0.00000000000E+00 0. -1.
         -2    1    1    2    0  503 -0.21986017879E+02  0.63182691378E+02 -0.45814441091E+03  0.46300295758E+03  0.00000000000E+00 0.  1.
<mgrwt>
<rscale>  2 0.10547882E+03</rscale>
<asrwt>0</asrwt>
<pdfrwt beam="1">  1       21 0.23131852E+00 0.10547882E+03</pdfrwt>
<pdfrwt beam="2">  1       21 0.71859460E-01 0.10547882E+03</pdfrwt>
<totfact> 0.17692545E+02</totfact>
</mgrwt>
</event>
<event>
 5    1  0.1590180E+000  0.7984100E+02  0.7546771E-02  0.1329503E+00
         21   -1    0    0  503  502  0.00000000000E+00  0.00000000000E+00  0.53300856392E+02  0.53300856392E+02  0.00000000000E+00 0. -1.
         21   -1    0    0  501  503 -0.00000000000E+00 -0.00000000000E+00 -0.14718210258E+03  0.14718210258E+03  0.00000000000E+00 0.  1.
         24    1    1    2    0    0  0.47663466204E+01 -0.57312168609E+01 -0.59796483677E+02  0.10049079720E+03  0.80419002446E+02 0.  1.
          1    1    1    2  501    0 -0.60869996092E+01  0.42093837144E+02 -0.45083527455E+02  0.61979570324E+02  0.00000000000E+00 0. -1.
         -2    1    1    2    0  502  0.13206529888E+01 -0.36362620283E+02  0.10998764947E+02  0.38012591447E+02  0.00000000000E+00 0.  1.
<mgrwt>
<rscale>  2 0.79840998E+02</rscale>
<asrwt>0</asrwt>
<pdfrwt beam="1">  1       21 0.82001318E-02 0.79840998E+02</pdfrwt>
<pdfrwt beam="2">  1       21 0.22643400E-01 0.79840998E+02</pdfrwt>
<totfact> 0.20529471E+06</totfact>
</mgrwt>
</event>
<event>
 5    1  0.1590180E+000  0.1174518E+03  0.7546771E-02  0.1247361E+00
         21   -1    0    0  503  502  0.00000000000E+00  0.00000000000E+00  0.25792309099E+02  0.25792309099E+02  0.00000000000E+00 0.  1.
         21   -1    0    0  501  503 -0.00000000000E+00 -0.00000000000E+00 -0.96289313311E+03  0.96289313311E+03  0.00000000000E+00 0. -1.
         24    1    1    2    0    0  0.25692173629E+02  0.15922482047E+02 -0.42366628136E+03  0.43228919387E+03  0.80419002446E+02 0.  1.
          1    1    1    2  501    0  0.60715923712E+02  0.19820464472E+01 -0.43222007954E+03  0.43646826810E+03  0.00000000000E+00 0. -1.
         -2    1    1    2    0  502 -0.86408097341E+02 -0.17904528494E+02 -0.81214463118E+02  0.11992798025E+03  0.00000000000E+00 0.  1.
<mgrwt>
<rscale>  2 0.11745181E+03</rscale>
<asrwt>0</asrwt>
<pdfrwt beam="1">  1       21 0.39680475E-02 0.11745181E+03</pdfrwt>
<pdfrwt beam="2">  1       21 0.14813741E+00 0.11745181E+03</pdfrwt>
<totfact> 0.12710496E+05</totfact>
</mgrwt>
</event>
<event>
 5    1  0.1590180E+000  0.7214383E+02  0.7546771E-02  0.1352951E+00
         21   -1    0    0  501  502  0.00000000000E+00  0.00000000000E+00  0.26670232579E+02  0.26670232579E+02  0.00000000000E+00 0. -1.
         21   -1    0    0  502  503 -0.00000000000E+00 -0.00000000000E+00 -0.64574552175E+03  0.64574552175E+03  0.00000000000E+00 0.  1.
         24    1    1    2    0    0 -0.14159765839E+02 -0.45876160577E+01 -0.20327491799E+03  0.21911059634E+03  0.80419002446E+02 0.  0.
          1    1    1    2  501    0  0.38132737712E+02  0.20933345432E+00 -0.13689627335E+01  0.38157876839E+02  0.00000000000E+00 0. -1.
         -2    1    1    2    0  503 -0.23972971872E+02  0.43782826034E+01 -0.41443140845E+03  0.41514728115E+03  0.00000000000E+00 0.  1.
<mgrwt>
<rscale>  2 0.72143832E+02</rscale>
<asrwt>0</asrwt>
<pdfrwt beam="1">  1       21 0.41031132E-02 0.72143832E+02</pdfrwt>
<pdfrwt beam="2">  1       21 0.99345453E-01 0.72143832E+02</pdfrwt>
<totfact> 0.32244663E+05</totfact>
</mgrwt>
</event>
<event>
 5    1  0.1590180E+000  0.7191361E+02  0.7546771E-02  0.1353704E+00
         21   -1    0    0  501  502  0.00000000000E+00  0.00000000000E+00  0.35364410639E+03  0.35364410639E+03  0.00000000000E+00 0.  1.
         21   -1    0    0  502  503 -0.00000000000E+00 -0.00000000000E+00 -0.32604903892E+02  0.32604903892E+02  0.00000000000E+00 0.  1.
         24    1    1    2    0    0 -0.35063907098E+02  0.34834298971E+02  0.19505316399E+03  0.21669300566E+03  0.80419002446E+02 0.  1.
          1    1    1    2  501    0  0.14588394272E+02 -0.13876717472E+02  0.13683797669E+03  0.13831130251E+03  0.00000000000E+00 0. -1.
         -2    1    1    2    0  503  0.20475512826E+02 -0.20957581500E+02 -0.10851938187E+02  0.31244702114E+02  0.00000000000E+00 0.  1.
<mgrwt>
<rscale>  2 0.71913605E+02</rscale>
<asrwt>0</asrwt>
<pdfrwt beam="1">  1       21 0.54406783E-01 0.71913605E+02</pdfrwt>
<pdfrwt beam="2">  1       21 0.50161393E-02 0.71913605E+02</pdfrwt>
<totfact> 0.85221941E+05</totfact>
</mgrwt>
</event>
<event>
 5    1  0.1590180E+000  0.7548756E+02  0.7546771E-02  0.1342368E+00
         21   -1    0    0  501  502  0.00000000000E+00  0.00000000000E+00  0.17830130328E+03  0.17830130328E+03  0.00000000000E+00 0. -1.
         21   -1    0    0  502  503 -0.00000000000E+00 -0.00000000000E+00 -0.20153677086E+03  0.20153677086E+03  0.00000000000E+00 0. -1.
         24    1    1    2    0    0  0.16964739626E+02 -0.30049219920E+02 -0.17457178463E+03  0.19527744865E+03  0.80419002446E+02 0. -1.
          1    1    1    2  501    0  0.88391744428E+01  0.35928677014E+02  0.15360490192E+03  0.15799831243E+03  0.00000000000E+00 0. -1.
         -2    1    1    2    0  503 -0.25803914068E+02 -0.58794570937E+01 -0.22685848724E+01  0.26562313045E+02  0.00000000000E+00 0.  1.
<mgrwt>
<rscale>  2 0.75487561E+02</rscale>
<asrwt>0</asrwt>
<pdfrwt beam="1">  1       21 0.27430970E-01 0.75487561E+02</pdfrwt>
<pdfrwt beam="2">  1       21 0.31005657E-01 0.75487561E+02</pdfrwt>
<totfact> 0.13232251E+05</totfact>
</mgrwt>
</event>
<event>
 5    1  0.1590180E+000  0.7813905E+02  0.7546771E-02  0.1334417E+00
         21   -1    0    0  503  502  0.00000000000E+00  0.00000000000E+00  0.56342139442E+02  0.56342139442E+02  0.00000000000E+00 0.  1.
         21   -1    0    0  501  503 -0.00000000000E+00 -0.00000000000E+00 -0.55828516597E+03  0.55828516597E+03  0.00000000000E+00 0.  1.
         24    1    1    2    0    0  0.12769559974E+02  0.55617800742E+02 -0.34971897070E+03  0.36335516488E+03  0.80419002446E+02 0.  1.
          1    1    1    2  501    0 -0.40072372117E+01 -0.35513414296E+02 -0.19763628942E+03  0.20084163771E+03  0.00000000000E+00 0. -1.
         -2    1    1    2    0  502 -0.87623227623E+01 -0.20104386446E+02  0.45412233593E+02  0.50430502818E+02  0.00000000000E+00 0.  1.
<mgrwt>
<rscale>  2 0.78139046E+02</rscale>
<asrwt>0</asrwt>
<pdfrwt beam="1">  1       21 0.86680214E-02 0.78139046E+02</pdfrwt>
<pdfrwt beam="2">  1       21 0.85890026E-01 0.78139046E+02</pdfrwt>
<totfact> 0.12796857E+05</totfact>
</mgrwt>
</event>
<event>
 5    1  0.1590180E+000  0.7550670E+02  0.7546771E-02  0.1342309E+00
         21   -1    0    0  501  502  0.00000000000E+00  0.00000000000E+00  0.22080681294E+03  0.22080681294E+03  0.00000000000E+00 0.  1.
         21   -1    0    0  502  503 -0.00000000000E+00 -0.00000000000E+00 -0.71422777615E+02  0.71422777615E+02  0.00000000000E+00 0.  1.
         24    1    1    2    0    0 -0.18152054741E+02 -0.29751818840E+02  0.25068564469E+02  0.91160938425E+02  0.80419002446E+02 0.  0.
          1    1    1    2  501    0  0.30601319837E+02 -0.55136504547E+00  0.15390778875E+03  0.15692148424E+03  0.00000000000E+00 0. -1.
         -2    1    1    2    0  503 -0.12449265095E+02  0.30303183885E+02 -0.29592317887E+02  0.44147167893E+02  0.00000000000E+00 0.  1.
<mgrwt>
<rscale>  2 0.75506700E+02</rscale>
<asrwt>0</asrwt>
<pdfrwt beam="1">  1       21 0.33970279E-01 0.75506700E+02</pdfrwt>
<pdfrwt beam="2">  1       21 0.10988120E-01 0.75506700E+02</pdfrwt>
<totfact> 0.57701583E+05</totfact>
</mgrwt>
</event>
<event>
 5    1  0.1590180E+000  0.9576108E+02  0.7546771E-02  0.1289471E+00
         21   -1    0    0  503  502  0.00000000000E+00  0.00000000000E+00  0.41824538176E+03  0.41824538176E+03  0.00000000000E+00 0.  1.
         21   -1    0    0  501  503 -0.00000000000E+00 -0.00000000000E+00 -0.22038235827E+02  0.22038235827E+02  0.00000000000E+00 0.  1.
         24    1    1    2    0    0  0.56359245440E+02 -0.53100198105E+02  0.22943634567E+03  0.25515534142E+03  0.80419002446E+02 0.  1.
          1    1    1    2  501    0 -0.20471452511E+02  0.73812596902E+01  0.36786035366E+02  0.42740797378E+02  0.00000000000E+00 0. -1.
         -2    1    1    2    0  502 -0.35887792928E+02  0.45718938415E+02  0.12998476490E+03  0.14238747880E+03  0.00000000000E+00 0.  1.
<mgrwt>
<rscale>  2 0.95761082E+02</rscale>
<asrwt>0</asrwt>
<pdfrwt beam="1">  1       21 0.64345438E-01 0.95761082E+02</pdfrwt>
<pdfrwt beam="2">  1       21 0.33904981E-02 0.95761082E+02</pdfrwt>
<totfact> 0.11486900E+06</totfact>
</mgrwt>
</event>
<event>
 5    1  0.1590180E+000  0.1153140E+03  0.7546771E-02  0.1251034E+00
         21   -1    0    0  501  502  0.00000000000E+00  0.00000000000E+00  0.59377406014E+02  0.59377406014E+02  0.00000000000E+00 0.  1.
         21   -1    0    0  502  503 -0.00000000000E+00 -0.00000000000E+00 -0.23344320118E+03  0.23344320118E+03  0.00000000000E+00 0. -1.
         24    1    1    2    0    0  0.74679860132E+02 -0.49643448834E+02 -0.11868277532E+03  0.16909870086E+03  0.80419002446E+02 0. -1.
          1    1    1    2  501    0  0.26931302596E+00  0.33508330950E+02 -0.11756193035E+02  0.35511812784E+02  0.00000000000E+00 0. -1.
         -2    1    1    2    0  503 -0.74949173158E+02  0.16135117884E+02 -0.43626826818E+02  0.88210093551E+02  0.00000000000E+00 0.  1.
<mgrwt>
<rscale>  2 0.11531403E+03</rscale>
<asrwt>0</asrwt>
<pdfrwt beam="1">  1       21 0.91349856E-02 0.11531403E+03</pdfrwt>
<pdfrwt beam="2">  1       21 0.35914339E-01 0.11531403E+03</pdfrwt>
<totfact> 0.71478284E+05</totfact>
</mgrwt>
</event>
<event>
 5    1  0.1590180E+000  0.1205943E+03  0.7546771E-02  0.1242120E+00
         21   -1    0    0  501  502  0.00000000000E+00  0.00000000000E+00  0.59096251531E+02  0.59096251531E+02  0.00000000000E+00 0. -1.
         21   -1    0    0  502  503 -0.00000000000E+00 -0.00000000000E+00 -0.44665999184E+03  0.44665999184E+03  0.00000000000E+00 0.  1.
         24    1    1    2    0    0  0.45498184853E+02 -0.24138323522E+01 -0.48710983850E+02  0.10447912382E+03  0.80419002446E+02 0. -1.
          1    1    1    2  501    0 -0.94884204087E+02  0.18794548143E+02 -0.52148237020E+02  0.10988942556E+03  0.00000000000E+00 0. -1.
         -2    1    1    2    0  503  0.49386019234E+02 -0.16380715791E+02 -0.28670451944E+03  0.29138769399E+03  0.00000000000E+00 0.  1.
<mgrwt>
<rscale>  2 0.12059426E+03</rscale>
<asrwt>0</asrwt>
<pdfrwt beam="1">  1       21 0.90917308E-02 0.12059426E+03</pdfrwt>
<pdfrwt beam="2">  1       21 0.68716923E-01 0.12059426E+03</pdfrwt>
<totfact> 0.18923520E+05</totfact>
</mgrwt>
</event>
<event>
 5    1  0.1590180E+000  0.1069794E+03  0.7546771E-02  0.1266268E+00
         21   -1    0    0  501  502  0.00000000000E+00  0.00000000000E+00  0.43277858944E+03  0.43277858944E+03  0.00000000000E+00 0.  1.
         21   -1    0    0  502  503 -0.00000000000E+00 -0.00000000000E+00 -0.27169508953E+02  0.27169508953E+02  0.00000000000E+00 0.  1.
         24    1    1    2    0    0 -0.12660407031E+02  0.37322260948E+02  0.14888635077E+03  0.17374578691E+03  0.80419002446E+02 0.  0.
          1    1    1    2  501    0 -0.52463634650E+02 -0.25027207690E+02  0.14620411354E+03  0.15733542799E+03  0.00000000000E+00 0. -1.
         -2    1    1    2    0  503  0.65124041681E+02 -0.12295053257E+02  0.11051861618E+03  0.12886688350E+03  0.00000000000E+00 0.  1.
<mgrwt>
<rscale>  2 0.10697944E+03</rscale>
<asrwt>0</asrwt>
<pdfrwt beam="1">  1       21 0.66581317E-01 0.10697944E+03</pdfrwt>
<pdfrwt beam="2">  1       21 0.41799248E-02 0.10697944E+03</pdfrwt>
<totfact> 0.75718534E+05</totfact>
</mgrwt>
</event>
<event>
 5    1  0.1590180E+000  0.4584056E+03  0.7546771E-02  0.1025245E+00
         21   -1    0    0  501  502  0.00000000000E+00  0.00000000000E+00  0.11168849049E+04  0.11168849049E+04  0.00000000000E+00 0. -1.
         21   -1    0    0  502  503 -0.00000000000E+00 -0.00000000000E+00 -0.66738926622E+03  0.66738926622E+03  0.00000000000E+00 0.  1.
         24    1    1    2    0    0 -0.36139649063E+03  0.27409884540E+03  0.10898481137E+03  0.47337353703E+03  0.80419002446E+02 0.  1.
          1    1    1    2  501    0  0.22227157400E+02 -0.33929404317E+02  0.73605108808E+03  0.73716786098E+03  0.00000000000E+00 0. -1.
         -2    1    1    2    0  503  0.33916933323E+03 -0.24016944109E+03 -0.39554026078E+03  0.57373277311E+03  0.00000000000E+00 0.  1.
<mgrwt>
<rscale>  2 0.45840561E+03</rscale>
<asrwt>0</asrwt>
<pdfrwt beam="1">  1       21 0.17182845E+00 0.45840561E+03</pdfrwt>
<pdfrwt beam="2">  1       21 0.10267527E+00 0.45840561E+03</pdfrwt>
<totfact> 0.12800409E+02</totfact>
</mgrwt>
</event>
<event>
 5    1  0.1590180E+000  0.7742379E+02  0.7546771E-02  0.1336525E+00
         21   -1    0    0  501  502  0.00000000000E+00  0.00000000000E+00  0.51996926403E+02  0.51996926403E+02  0.00000000000E+00 0.  1.
         21   -1    0    0  502  503 -0.00000000000E+00 -0.00000000000E+00 -0.12304928368E+03  0.12304928368E+03  0.00000000000E+00 0. -1.
         24    1    1    2    0    0 -0.74870677413E+01  0.52392161657E+01 -0.49301574082E+02  0.94770072970E+02  0.80419002446E+02 0.  0.
          1    1    1    2  501    0  0.40605948738E+02 -0.29914268440E+01 -0.23543231212E+02  0.47032706103E+02  0.00000000000E+00 0. -1.
         -2    1    1    2    0  503 -0.33118880996E+02 -0.22477893216E+01  0.17924480192E+01  0.33243431008E+02  0.00000000000E+00 0.  1.
<mgrwt>
<rscale>  2 0.77423794E+02</rscale>
<asrwt>0</asrwt>
<pdfrwt beam="1">  1       21 0.79995273E-02 0.77423794E+02</pdfrwt>
<pdfrwt beam="2">  1       21 0.18930659E-01 0.77423794E+02</pdfrwt>
<totfact> 0.29671038E+06</totfact>
</mgrwt>
</event>
<event>
 5    1  0.1590180E+000  0.1097162E+03  0.7546771E-02  0.1261096E+00
         21   -1    0    0  503  502  0.00000000000E+00  0.00000000000E+00  0.67671155559E+02  0.67671155559E+02  0.00000000000E+00 0. -1.
         21   -1    0    0  501  503 -0.00000000000E+00 -0.00000000000E+00 -0.19190000457E+03  0.19190000457E+03  0.00000000000E+00 0.  1.
         24    1    1    2    0    0  0.55374349918E+02  0.79946907591E+01 -0.55635278425E+02  0.11266203384E+03  0.80419002446E+02 0.  1.
          1    1    1    2  501    0  0.64913885524E+01 -0.47579179444E+02 -0.53570620259E+02  0.71942531210E+02  0.00000000000E+00 0. -1.
         -2    1    1    2    0  502 -0.61865738471E+02  0.39584488685E+02 -0.15022950326E+02  0.74966595077E+02  0.00000000000E+00 0.  1.
<mgrwt>
<rscale>  2 0.10971622E+03</rscale>
<asrwt>0</asrwt>
<pdfrwt beam="1">  1       21 0.10410947E-01 0.10971622E+03</pdfrwt>
<pdfrwt beam="2">  1       21 0.29523077E-01 0.10971622E+03</pdfrwt>
<totfact> 0.83256601E+05</totfact>
</mgrwt>
</event>
<event>
 5    1  0.1590180E+000  0.1064448E+03  0.7546771E-02  0.1267299E+00
         21   -1    0    0  503  502  0.00000000000E+00  0.00000000000E+00  0.12578446035E+04  0.12578446035E+04  0.00000000000E+00 0.  1.
         21   -1    0    0  501  503 -0.00000000000E+00 -0.00000000000E+00 -0.98150896573E+01  0.98150896573E+01  0.00000000000E+00 0. -1.
         24    1    1    2    0    0  0.12579756301E+02 -0.26700258063E+02  0.34712502060E+03  0.35753901875E+03  0.80419002446E+02 0.  0.
          1    1    1    2  501    0  0.21038855735E+02 -0.44092994324E+02  0.27209157809E+03  0.27644285570E+03  0.00000000000E+00 0. -1.
         -2    1    1    2    0  502 -0.33618612036E+02  0.70793252386E+02  0.62881291517E+03  0.63367781872E+03  0.00000000000E+00 0.  1.
<mgrwt>
<rscale>  2 0.10644484E+03</rscale>
<asrwt>0</asrwt>
<pdfrwt beam="1">  1       21 0.19351443E+00 0.10644484E+03</pdfrwt>
<pdfrwt beam="2">  1       21 0.15100148E-02 0.10644484E+03</pdfrwt>
<totfact> 0.29873871E+05</totfact>
</mgrwt>
</event>
<event>
 5    1  0.1590180E+000  0.1033517E+03  0.7546771E-02  0.1273402E+00
         21   -1    0    0  501  502  0.00000000000E+00  0.00000000000E+00  0.16287158736E+03  0.16287158736E+03  0.00000000000E+00 0.  1.
         21   -1    0    0  502  503 -0.00000000000E+00 -0.00000000000E+00 -0.93389183491E+02  0.93389183491E+02  0.00000000000E+00 0.  1.
         24    1    1    2    0    0 -0.71194301388E+02  0.50185579986E+02  0.10453683631E+03  0.15805817628E+03  0.80419002446E+02 0.  1.
          1    1    1    2  501    0  0.24647470553E+02 -0.25498240615E+02 -0.10208949019E+01  0.35478166603E+02  0.00000000000E+00 0. -1.
         -2    1    1    2    0  503  0.46546830835E+02 -0.24687339372E+02 -0.34033537542E+02  0.62724427966E+02  0.00000000000E+00 0.  1.
<mgrwt>
<rscale>  2 0.10335167E+03</rscale>
<asrwt>0</asrwt>
<pdfrwt beam="1">  1       21 0.25057167E-01 0.10335167E+03</pdfrwt>
<pdfrwt beam="2">  1       21 0.14367567E-01 0.10335167E+03</pdfrwt>
<totfact> 0.64328054E+05</totfact>
</mgrwt>
</event>
<event>
 5    1  0.1590180E+000  0.1022045E+03  0.7546771E-02  0.1275727E+00
         21   -1    0    0  501  502  0.00000000000E+00  0.00000000000E+00  0.53719743403E+03  0.53719743403E+03  0.00000000000E+00 0.  1.
         21   -1    0    0  502  503 -0.00000000000E+00 -0.00000000000E+00 -0.29792932110E+02  0.29792932110E+02  0.00000000000E+00 0.  1.
         24    1    1    2    0    0 -0.20023898563E+02 -0.30257765662E+01  0.38613693515E+03  0.39494184443E+03  0.80419002446E+02 0.  1.
          1    1    1    2  501    0  0.60893408022E+02 -0.30972119200E+02  0.76334553444E+02  0.10244141427E+03  0.00000000000E+00 0. -1.
         -2    1    1    2    0  503 -0.40869509460E+02  0.33997895766E+02  0.44933013324E+02  0.69607107442E+02  0.00000000000E+00 0.  1.
<mgrwt>
<rscale>  2 0.10220446E+03</rscale>
<asrwt>0</asrwt>
<pdfrwt beam="1">  1       21 0.82645752E-01 0.10220446E+03</pdfrwt>
<pdfrwt beam="2">  1       21 0.45835284E-02 0.10220446E+03</pdfrwt>
<totfact> 0.40488932E+05</totfact>
</mgrwt>
</event>
<event>
 5    1  0.1590180E+000  0.8805280E+02  0.7546771E-02  0.1307637E+00
         21   -1    0    0  501  502  0.00000000000E+00  0.00000000000E+00  0.15191353349E+04  0.15191353349E+04  0.00000000000E+00 0.  1.
         21   -1    0    0  502  503 -0.00000000000E+00 -0.00000000000E+00 -0.11042728608E+02  0.11042728608E+02  0.00000000000E+00 0.  1.
         24    1    1    2    0    0 -0.51190067173E+02  0.67353908942E+01  0.82771963162E+03  0.83321833453E+03  0.80419002446E+02 0.  1.
          1    1    1    2  501    0  0.29104020627E+02  0.27340293280E+02  0.63426029554E+03  0.63551605656E+03  0.00000000000E+00 0. -1.
         -2    1    1    2    0  503  0.22086046546E+02 -0.34075684174E+02  0.46112679152E+02  0.61443672437E+02  0.00000000000E+00 0.  1.
<mgrwt>
<rscale>  2 0.88052802E+02</rscale>
<asrwt>0</asrwt>
<pdfrwt beam="1">  1       21 0.23371296E+00 0.88052802E+02</pdfrwt>
<pdfrwt beam="2">  1       21 0.16988825E-02 0.88052802E+02</pdfrwt>
<totfact> 0.14427672E+05</totfact>
</mgrwt>
</event>
<event>
 5    1  0.1590180E+000  0.8295946E+02  0.7546771E-02  0.1320857E+00
         21   -1    0    0  503  502  0.00000000000E+00  0.00000000000E+00  0.54712113725E+02  0.54712113725E+02  0.00000000000E+00 0.  1.
         21   -1    0    0  501  503 -0.00000000000E+00 -0.00000000000E+00 -0.13249268132E+04  0.13249268132E+04  0.00000000000E+00 0. -1.
         24    1    1    2    0    0  0.40713204438E+01 -0.11739819095E+02 -0.20663373292E+03  0.22207907271E+03  0.80419002446E+02 0.  1.
          1    1    1    2  501    0 -0.29966890221E+02  0.37511174068E+02 -0.11028670229E+04  0.11039115784E+04  0.00000000000E+00 0. -1.
         -2    1    1    2    0  502  0.25895569777E+02 -0.25771354973E+02  0.39286056371E+02  0.53648275801E+02  0.00000000000E+00 0.  1.
<mgrwt>
<rscale>  2 0.82959465E+02</rscale>
<asrwt>0</asrwt>
<pdfrwt beam="1">  1       21 0.84172496E-02 0.82959465E+02</pdfrwt>
<pdfrwt beam="2">  1       21 0.20383486E+00 0.82959465E+02</pdfrwt>
<totfact> 0.15696849E+04</totfact>
</mgrwt>
</event>
<event>
 5    1  0.1590180E+000  0.8054785E+02  0.7546771E-02  0.1327504E+00
         21   -1    0    0  501  502  0.00000000000E+00  0.00000000000E+00  0.17762035747E+03  0.17762035747E+03  0.00000000000E+00 0.  1.
         21   -1    0    0  502  503 -0.00000000000E+00 -0.00000000000E+00 -0.44851133200E+02  0.44851133200E+02  0.00000000000E+00 0. -1.
         24    1    1    2    0    0  0.23597336917E+02  0.17893114882E+02  0.86053323398E+02  0.12144705963E+03  0.80419002446E+02 0.  1.
          1    1    1    2  501    0 -0.40030307915E+02  0.11563470054E+02  0.52264315041E+02  0.66840840945E+02  0.00000000000E+00 0. -1.
         -2    1    1    2    0  503  0.16432970998E+02 -0.29456584936E+02 -0.55484141739E+01  0.34183590094E+02  0.00000000000E+00 0.  1.
<mgrwt>
<rscale>  2 0.80547846E+02</rscale>
<asrwt>0</asrwt>
<pdfrwt beam="1">  1       21 0.27326208E-01 0.80547846E+02</pdfrwt>
<pdfrwt beam="2">  1       21 0.69001744E-02 0.80547846E+02</pdfrwt>
<totfact> 0.19388121E+06</totfact>
</mgrwt>
</event>
<event>
 5    1  0.1590180E+000  0.1227068E+03  0.7546771E-02  0.1238697E+00
         21   -1    0    0  503  502  0.00000000000E+00  0.00000000000E+00  0.90425965500E+02  0.90425965500E+02  0.00000000000E+00 0. -1.
         21   -1    0    0  501  503 -0.00000000000E+00 -0.00000000000E+00 -0.23866947221E+03  0.23866947221E+03  0.00000000000E+00 0.  1.
         24    1    1    2    0    0 -0.75222465586E+02  0.44715631910E+02 -0.16119494626E+02  0.11993732166E+03  0.80419002446E+02 0. -1.
          1    1    1    2  501    0 -0.21539605413E+02 -0.10179206295E+02 -0.98067673269E+02  0.10091996523E+03  0.00000000000E+00 0. -1.
         -2    1    1    2    0  502  0.96762070999E+02 -0.34536425615E+02 -0.34056338813E+02  0.10823815081E+03  0.00000000000E+00 0.  1.
<mgrwt>
<rscale>  2 0.12270683E+03</rscale>
<asrwt>0</asrwt>
<pdfrwt beam="1">  1       21 0.13911687E-01 0.12270683E+03</pdfrwt>
<pdfrwt beam="2">  1       21 0.36718380E-01 0.12270683E+03</pdfrwt>
<totfact> 0.32611260E+05</totfact>
</mgrwt>
</event>
<event>
 5    1  0.1590180E+000  0.7375507E+02  0.7546771E-02  0.1347770E+00
         21   -1    0    0  503  502  0.00000000000E+00  0.00000000000E+00  0.10793789551E+02  0.10793789551E+02  0.00000000000E+00 0. -1.
         21   -1    0    0  501  503 -0.00000000000E+00 -0.00000000000E+00 -0.93011251557E+03  0.93011251557E+03  0.00000000000E+00 0. -1.
         24    1    1    2    0    0 -0.39970959085E+02 -0.29160943525E+02 -0.30113175147E+03  0.31558768337E+03  0.80419002446E+02 0. -1.
          1    1    1    2  501    0  0.13398631143E+02  0.21676592867E+02 -0.56333818986E+03  0.56391427908E+03  0.00000000000E+00 0. -1.
         -2    1    1    2    0  502  0.26572327942E+02  0.74843506575E+01 -0.54848784685E+02  0.61404342668E+02  0.00000000000E+00 0.  1.
<mgrwt>
<rscale>  2 0.73755073E+02</rscale>
<asrwt>0</asrwt>
<pdfrwt beam="1">  1       21 0.16605826E-02 0.73755073E+02</pdfrwt>
<pdfrwt beam="2">  1       21 0.14309427E+00 0.73755073E+02</pdfrwt>
<totfact> 0.57786159E+05</totfact>
</mgrwt>
</event>
<event>
 5    1  0.1590180E+000  0.1038510E+03  0.7546771E-02  0.1272400E+00
         21   -1    0    0  501  502  0.00000000000E+00  0.00000000000E+00  0.95401368729E+02  0.95401368729E+02  0.00000000000E+00 0. -1.
         21   -1    0    0  502  503 -0.00000000000E+00 -0.00000000000E+00 -0.17088153979E+03  0.17088153979E+03  0.00000000000E+00 0.  1.
         24    1    1    2    0    0 -0.51673874602E+02  0.59662718064E+02 -0.31035521474E+01  0.11272389824E+03  0.80419002446E+02 0. -1.
          1    1    1    2  501    0  0.61538333924E+02 -0.41104146031E+02  0.42273666980E+01  0.74124139066E+02  0.00000000000E+00 0. -1.
         -2    1    1    2    0  503 -0.98644593215E+01 -0.18558572033E+02 -0.76603985614E+02  0.79434871219E+02  0.00000000000E+00 0.  1.
<mgrwt>
<rscale>  2 0.10385100E+03</rscale>
<asrwt>0</asrwt>
<pdfrwt beam="1">  1       21 0.14677134E-01 0.10385100E+03</pdfrwt>
<pdfrwt beam="2">  1       21 0.26289468E-01 0.10385100E+03</pdfrwt>
<totfact> 0.56569603E+05</totfact>
</mgrwt>
</event>
<event>
 5    1  0.1590180E+000  0.1273791E+03  0.7546771E-02  0.1231397E+00
         21   -1    0    0  503  502  0.00000000000E+00  0.00000000000E+00  0.28502537901E+03  0.28502537901E+03  0.00000000000E+00 0.  1.
         21   -1    0    0  501  503 -0.00000000000E+00 -0.00000000000E+00 -0.15851452746E+03  0.15851452746E+03  0.00000000000E+00 0.  1.
         24    1    1    2    0    0  0.87108647231E+02 -0.41267790575E+02 -0.28931240845E+02  0.12882227918E+03  0.80419002446E+02 0.  1.
          1    1    1    2  501    0  0.15002142966E+02  0.19871031782E+02 -0.65668274636E+02  0.70229940134E+02  0.00000000000E+00 0. -1.
         -2    1    1    2    0  502 -0.10211079020E+03  0.21396758793E+02  0.22111036703E+03  0.24448768716E+03  0.00000000000E+00 0.  1.
<mgrwt>
<rscale>  2 0.12737913E+03</rscale>
<asrwt>0</asrwt>
<pdfrwt beam="1">  1       21 0.43850058E-01 0.12737913E+03</pdfrwt>
<pdfrwt beam="2">  1       21 0.24386850E-01 0.12737913E+03</pdfrwt>
<totfact> 0.81566672E+04</totfact>
</mgrwt>
</event>
<event>
 5    1  0.1590180E+000  0.7617056E+02  0.7546771E-02  0.1340284E+00
         21   -1    0    0  501  502  0.00000000000E+00  0.00000000000E+00  0.36544625676E+03  0.36544625676E+03  0.00000000000E+00 0.  1.
         21   -1    0    0  502  503 -0.00000000000E+00 -0.00000000000E+00 -0.51697538367E+02  0.51697538367E+02  0.00000000000E+00 0.  1.
         24    1    1    2    0    0  0.15317558190E+02 -0.44621076614E+02  0.89713348204E+02  0.12938844178E+03  0.80419002446E+02 0.  1.
          1    1    1    2  501    0 -0.25016050431E+02  0.18130262793E+02  0.24850078066E+03  0.25041395168E+03  0.00000000000E+00 0. -1.
         -2    1    1    2    0  503  0.96984922409E+01  0.26490813821E+02 -0.24465410469E+02  0.37341401662E+02  0.00000000000E+00 0.  1.
<mgrwt>
<rscale>  2 0.76170561E+02</rscale>
<asrwt>0</asrwt>
<pdfrwt beam="1">  1       21 0.56222499E-01 0.76170561E+02</pdfrwt>
<pdfrwt beam="2">  1       21 0.79534677E-02 0.76170561E+02</pdfrwt>
<totfact> 0.36799854E+05</totfact>
</mgrwt>
</event>
<event>
 5    1  0.1590180E+000  0.6941530E+02  0.7546771E-02  0.1362093E+00
         21   -1    0    0  501  502  0.00000000000E+00  0.00000000000E+00  0.25051852754E+03  0.25051852754E+03  0.00000000000E+00 0.  1.
         21   -1    0    0  502  503 -0.00000000000E+00 -0.00000000000E+00 -0.33389317381E+02  0.33389317381E+02  0.00000000000E+00 0. -1.
         24    1    1    2    0    0  0.38113891472E+02 -0.25891399040E+02  0.12486939856E+03  0.15550760727E+03  0.80419002446E+02 0.  0.
          1    1    1    2  501    0 -0.21694093877E+02  0.13202515308E+02  0.10225912007E+03  0.10536540114E+03  0.00000000000E+00 0. -1.
         -2    1    1    2    0  503 -0.16419797595E+02  0.12688883732E+02 -0.99993084693E+01  0.23034836515E+02  0.00000000000E+00 0.  1.
<mgrwt>
<rscale>  2 0.69415297E+02</rscale>
<asrwt>0</asrwt>
<pdfrwt beam="1">  1       21 0.38541311E-01 0.69415297E+02</pdfrwt>
<pdfrwt beam="2">  1       21 0.51368182E-02 0.69415297E+02</pdfrwt>
<totfact> 0.16319684E+06</totfact>
</mgrwt>
</event>
<event>
 5    1  0.1590180E+000  0.6228703E+02  0.7546771E-02  0.1388477E+00
         21   -1    0    0  503  502  0.00000000000E+00  0.00000000000E+00  0.18976596567E+03  0.18976596567E+03  0.00000000000E+00 0. -1.
         21   -1    0    0  501  503 -0.00000000000E+00 -0.00000000000E+00 -0.21627698773E+02  0.21627698773E+02  0.00000000000E+00 0.  1.
         24    1    1    2    0    0 -0.67026924560E+01  0.81356528802E+00  0.12681150801E+03  0.15031288199E+03  0.80419002446E+02 0. -1.
          1    1    1    2  501    0 -0.30182113620E+01 -0.21132834891E+02  0.13409281035E+02  0.25209425385E+02  0.00000000000E+00 0. -1.
         -2    1    1    2    0  502  0.97209038180E+01  0.20319269603E+02  0.27917477854E+02  0.35871357069E+02  0.00000000000E+00 0.  1.
<mgrwt>
<rscale>  2 0.62287035E+02</rscale>
<asrwt>0</asrwt>
<pdfrwt beam="1">  1       21 0.29194763E-01 0.62287035E+02</pdfrwt>
<pdfrwt beam="2">  1       21 0.33273384E-02 0.62287035E+02</pdfrwt>
<totfact> 0.56148591E+06</totfact>
</mgrwt>
</event>
<event>
 5    1  0.1590180E+000  0.9024951E+02  0.7546771E-02  0.1302249E+00
         21   -1    0    0  503  502  0.00000000000E+00  0.00000000000E+00  0.27832649191E+02  0.27832649191E+02  0.00000000000E+00 0.  1.
         21   -1    0    0  501  503 -0.00000000000E+00 -0.00000000000E+00 -0.39146410334E+03  0.39146410334E+03  0.00000000000E+00 0. -1.
         24    1    1    2    0    0 -0.32025153518E+02 -0.13557296191E+02 -0.28264948828E+03  0.29591782629E+03  0.80419002446E+02 0. -1.
          1    1    1    2  501    0 -0.29831293102E+02  0.15496509056E+01 -0.22334145635E+02  0.37297741584E+02  0.00000000000E+00 0. -1.
         -2    1    1    2    0  502  0.61856446620E+02  0.12007645285E+02 -0.58647820243E+02  0.86081184663E+02  0.00000000000E+00 0.  1.
<mgrwt>
<rscale>  2 0.90249508E+02</rscale>
<asrwt>0</asrwt>
<pdfrwt beam="1">  1       21 0.42819462E-02 0.90249508E+02</pdfrwt>
<pdfrwt beam="2">  1       21 0.60225244E-01 0.90249508E+02</pdfrwt>
<totfact> 0.89957496E+05</totfact>
</mgrwt>
</event>
<event>
 5    1  0.1590180E+000  0.8694587E+02  0.7546771E-02  0.1310421E+00
         21   -1    0    0  501  502  0.00000000000E+00  0.00000000000E+00  0.89734153296E+02  0.89734153296E+02  0.00000000000E+00 0. -1.
         21   -1    0    0  502  503 -0.00000000000E+00 -0.00000000000E+00 -0.15709911052E+03  0.15709911052E+03  0.00000000000E+00 0. -1.
         24    1    1    2    0    0 -0.14879732368E+02 -0.53976518708E+02 -0.10338354446E+03  0.14244382832E+03  0.80419002446E+02 0. -1.
          1    1    1    2  501    0 -0.18387215268E+02  0.28852073461E+02  0.49854555997E+02  0.60464936797E+02  0.00000000000E+00 0. -1.
         -2    1    1    2    0  503  0.33266947636E+02  0.25124445247E+02 -0.13835968752E+02  0.43924498692E+02  0.00000000000E+00 0.  1.
<mgrwt>
<rscale>  2 0.86945867E+02</rscale>
<asrwt>0</asrwt>
<pdfrwt beam="1">  1       21 0.13805254E-01 0.86945867E+02</pdfrwt>
<pdfrwt beam="2">  1       21 0.24169094E-01 0.86945867E+02</pdfrwt>
<totfact> 0.73794809E+05</totfact>
</mgrwt>
</event>
<event>
 5    1  0.1590180E+000  0.7836040E+02  0.7546771E-02  0.1333770E+00
         21   -1    0    0  503  502  0.00000000000E+00  0.00000000000E+00  0.19894411296E+02  0.19894411296E+02  0.00000000000E+00 0.  1.
         21   -1    0    0  501  503 -0.00000000000E+00 -0.00000000000E+00 -0.62439272111E+03  0.62439272111E+03  0.00000000000E+00 0. -1.
         24    1    1    2    0    0  0.37112531071E+02  0.25710299940E+02 -0.50744360577E+03  0.51575632665E+03  0.80419002446E+02 0. -1.
          1    1    1    2  501    0 -0.17974393224E+02  0.12408685220E+02 -0.79431881211E+02  0.82380082747E+02  0.00000000000E+00 0. -1.
         -2    1    1    2    0  502 -0.19138137847E+02 -0.38118985160E+02 -0.17622822833E+02  0.46150723011E+02  0.00000000000E+00 0.  1.
<mgrwt>
<rscale>  2 0.78360400E+02</rscale>
<asrwt>0</asrwt>
<pdfrwt beam="1">  1       21 0.30606790E-02 0.78360400E+02</pdfrwt>
<pdfrwt beam="2">  1       21 0.96060408E-01 0.78360400E+02</pdfrwt>
<totfact> 0.56093805E+05</totfact>
</mgrwt>
</event>
<event>
 5    1  0.1590180E+000  0.8405994E+02  0.7546771E-02  0.1317909E+00
         21   -1    0    0  503  502  0.00000000000E+00  0.00000000000E+00  0.47142714818E+02  0.47142714818E+02  0.00000000000E+00 0. -1.
         21   -1    0    0  501  503 -0.00000000000E+00 -0.00000000000E+00 -0.18471834577E+03  0.18471834577E+03  0.00000000000E+00 0. -1.
         24    1    1    2    0    0  0.56972010457E+02 -0.66522756690E+01 -0.11506678599E+03  0.15164974098E+03  0.80419002446E+02 0. -1.
          1    1    1    2  501    0 -0.38453199179E+02  0.22856716152E+02 -0.30724528306E+02  0.54268541900E+02  0.00000000000E+00 0. -1.
         -2    1    1    2    0  502 -0.18518811278E+02 -0.16204440483E+02  0.82156833419E+01  0.25942777710E+02  0.00000000000E+00 0.  1.
<mgrwt>
<rscale>  2 0.84059937E+02</rscale>
<asrwt>0</asrwt>
<pdfrwt beam="1">  1       21 0.72527253E-02 0.84059937E+02</pdfrwt>
<pdfrwt beam="2">  1       21 0.28418207E-01 0.84059937E+02</pdfrwt>
<totfact> 0.16576710E+06</totfact>
</mgrwt>
</event>
<event>
 5    1  0.1590180E+000  0.8290740E+02  0.7546771E-02  0.1320997E+00
         21   -1    0    0  501  502  0.00000000000E+00  0.00000000000E+00  0.67044457439E+03  0.67044457439E+03  0.00000000000E+00 0.  1.
         21   -1    0    0  502  503 -0.00000000000E+00 -0.00000000000E+00 -0.14296827362E+02  0.14296827362E+02  0.00000000000E+00 0. -1.
         24    1    1    2    0    0 -0.50957441779E+02  0.33810313442E+01  0.53735933798E+03  0.54573836801E+03  0.80419002446E+02 0.  0.
          1    1    1    2  501    0  0.40867372942E+02 -0.24143269972E+02  0.92856022942E+02  0.10428461369E+03  0.00000000000E+00 0. -1.
         -2    1    1    2    0  503  0.10090068838E+02  0.20762238627E+02  0.25932386106E+02  0.34718420055E+02  0.00000000000E+00 0.  1.
<mgrwt>
<rscale>  2 0.82907401E+02</rscale>
<asrwt>0</asrwt>
<pdfrwt beam="1">  1       21 0.10314529E+00 0.82907401E+02</pdfrwt>
<pdfrwt beam="2">  1       21 0.21995124E-02 0.82907401E+02</pdfrwt>
<totfact> 0.81090311E+05</totfact>
</mgrwt>
</event>
<event>
 5    1  0.1590180E+000  0.7341280E+02  0.7546771E-02  0.1348858E+00
         21   -1    0    0  501  502  0.00000000000E+00  0.00000000000E+00  0.25939196965E+03  0.25939196965E+03  0.00000000000E+00 0. -1.
         21   -1    0    0  502  503 -0.00000000000E+00 -0.00000000000E+00 -0.44658600749E+02  0.44658600749E+02  0.00000000000E+00 0. -1.
         24    1    1    2    0    0 -0.53762990319E+01  0.43960624717E+02  0.13235563831E+03  0.16107970717E+03  0.80419002446E+02 0. -1.
          1    1    1    2  501    0 -0.13828818360E+02 -0.19879055257E+02  0.10306173988E+03  0.10586848106E+03  0.00000000000E+00 0. -1.
         -2    1    1    2    0  503  0.19205117392E+02 -0.24081569460E+02 -0.20684009290E+02  0.37102382161E+02  0.00000000000E+00 0.  1.
<mgrwt>
<rscale>  2 0.73412804E+02</rscale>
<asrwt>0</asrwt>
<pdfrwt beam="1">  1       21 0.39906456E-01 0.73412804E+02</pdfrwt>
<pdfrwt beam="2">  1       21 0.68705541E-02 0.73412804E+02</pdfrwt>
<totfact> 0.94013132E+05</totfact>
</mgrwt>
</event>
<event>
 5    1  0.1590180E+000  0.1007912E+03  0.7546771E-02  0.1278641E+00
         21   -1    0    0  501  502  0.00000000000E+00  0.00000000000E+00  0.19571282011E+03  0.19571282011E+03  0.00000000000E+00 0. -1.
         21   -1    0    0  502  503 -0.00000000000E+00 -0.00000000000E+00 -0.19288291465E+03  0.19288291465E+03  0.00000000000E+00 0.  1.
         24    1    1    2    0    0  0.66591644894E+02 -0.17689184344E+02  0.13870375228E+03  0.17450874266E+03  0.80419002446E+02 0. -1.
          1    1    1    2  501    0 -0.64958436539E+02  0.38033495960E+02  0.14172302731E+01  0.75287142556E+02  0.00000000000E+00 0. -1.
         -2    1    1    2    0  503 -0.16332083544E+01 -0.20344311615E+02 -0.13729107710E+03  0.13879984955E+03  0.00000000000E+00 0.  1.
<mgrwt>
<rscale>  2 0.10079122E+03</rscale>
<asrwt>0</asrwt>
<pdfrwt beam="1">  1       21 0.30109665E-01 0.10079122E+03</pdfrwt>
<pdfrwt beam="2">  1       21 0.29674295E-01 0.10079122E+03</pdfrwt>
<totfact> 0.11917454E+05</totfact>
</mgrwt>
</event>
<event>
 5    1  0.1590180E+000  0.7082536E+02  0.7546771E-02  0.1357309E+00
         21   -1    0    0  501  502  0.00000000000E+00  0.00000000000E+00  0.11032098405E+03  0.11032098405E+03  0.00000000000E+00 0. -1.
         21   -1    0    0  502  503 -0.00000000000E+00 -0.00000000000E+00 -0.46833489465E+02  0.46833489465E+02  0.00000000000E+00 0. -1.
         24    1    1    2    0    0  0.22883025516E+02 -0.17994808865E+02  0.38691548179E+02  0.93870644281E+02  0.80419002446E+02 0. -1.
          1    1    1    2  501    0 -0.24225022069E+02 -0.11348149317E+02  0.20270248813E+02  0.33563598945E+02  0.00000000000E+00 0. -1.
         -2    1    1    2    0  503  0.13419965527E+01  0.29342958183E+02  0.45256975924E+01  0.29720230288E+02  0.00000000000E+00 0.  1.
<mgrwt>
<rscale>  2 0.70825365E+02</rscale>
<asrwt>0</asrwt>
<pdfrwt beam="1">  1       21 0.16972459E-01 0.70825365E+02</pdfrwt>
<pdfrwt beam="2">  1       21 0.72051522E-02 0.70825365E+02</pdfrwt>
<totfact> 0.42870442E+06</totfact>
</mgrwt>
</event>
<event>
 5    1  0.1590180E+000  0.8859377E+02  0.7546771E-02  0.1306293E+00
         21   -1    0    0  503  502  0.00000000000E+00  0.00000000000E+00  0.31706496884E+02  0.31706496884E+02  0.00000000000E+00 0.  1.
         21   -1    0    0  501  503 -0.00000000000E+00 -0.00000000000E+00 -0.24771597301E+03  0.24771597301E+03  0.00000000000E+00 0.  1.
         24    1    1    2    0    0 -0.75862578959E+01  0.30540097365E+01 -0.10175116446E+03  0.12995150522E+03  0.80419002446E+02 0.  0.
          1    1    1    2  501    0 -0.20777757245E+02  0.39838431100E+02 -0.52044516075E+02  0.68756435642E+02  0.00000000000E+00 0. -1.
         -2    1    1    2    0  502  0.28364015141E+02 -0.42892440837E+02 -0.62213795587E+02  0.80714529035E+02  0.00000000000E+00 0.  1.
<mgrwt>
<rscale>  2 0.88593765E+02</rscale>
<asrwt>0</asrwt>
<pdfrwt beam="1">  1       21 0.48779226E-02 0.88593765E+02</pdfrwt>
<pdfrwt beam="2">  1       21 0.38110150E-01 0.88593765E+02</pdfrwt>
<totfact> 0.18347807E+06</totfact>
</mgrwt>
</event>
<event>
 5    1  0.1590180E+000  0.7544269E+02  0.7546771E-02  0.1342506E+00
         21   -1    0    0  501  502  0.00000000000E+00  0.00000000000E+00  0.19418392885E+02  0.19418392885E+02  0.00000000000E+00 0. -1.
         21   -1    0    0  502  503 -0.00000000000E+00 -0.00000000000E+00 -0.43870634705E+03  0.43870634705E+03  0.00000000000E+00 0. -1.
         24    1    1    2    0    0 -0.34768855612E+02  0.18114654890E+01 -0.36130304502E+03  0.37177851071E+03  0.80419002446E+02 0. -1.
          1    1    1    2  501    0  0.32396599703E+02 -0.24389496380E+02 -0.30758692572E+02  0.50896801223E+02  0.00000000000E+00 0. -1.
         -2    1    1    2    0  503  0.23722559094E+01  0.22578030891E+02 -0.27226216572E+02  0.35449428005E+02  0.00000000000E+00 0.  1.
<mgrwt>
<rscale>  2 0.75442689E+02</rscale>
<asrwt>0</asrwt>
<pdfrwt beam="1">  1       21 0.29874452E-02 0.75442689E+02</pdfrwt>
<pdfrwt beam="2">  1       21 0.67493281E-01 0.75442689E+02</pdfrwt>
<totfact> 0.12685375E+06</totfact>
</mgrwt>
</event>
<event>
 5    1  0.1590180E+000  0.7122832E+02  0.7546771E-02  0.1355965E+00
         21   -1    0    0  503  502  0.00000000000E+00  0.00000000000E+00  0.37508496359E+03  0.37508496359E+03  0.00000000000E+00 0.  1.
         21   -1    0    0  501  503 -0.00000000000E+00 -0.00000000000E+00 -0.13878032805E+02  0.13878032805E+02  0.00000000000E+00 0. -1.
         24    1    1    2    0    0 -0.37906296436E+02 -0.19218886471E+02  0.23282756890E+03  0.24996428885E+03  0.80419002446E+02 0. -1.
          1    1    1    2  501    0  0.17093769844E+02  0.24642122979E+02  0.56441784061E+02  0.63914835371E+02  0.00000000000E+00 0. -1.
         -2    1    1    2    0  502  0.20812526592E+02 -0.54232365082E+01  0.71937577830E+02  0.75083872179E+02  0.00000000000E+00 0.  1.
<mgrwt>
<rscale>  2 0.71228317E+02</rscale>
<asrwt>0</asrwt>
<pdfrwt beam="1">  1       21 0.57705371E-01 0.71228317E+02</pdfrwt>
<pdfrwt beam="2">  1       21 0.21350823E-02 0.71228317E+02</pdfrwt>
<totfact> 0.30162754E+06</totfact>
</mgrwt>
</event>
<event>
 5    1  0.1590180E+000  0.1019697E+03  0.7546771E-02  0.1276208E+00
         21   -1    0    0  501  502  0.00000000000E+00  0.00000000000E+00  0.50173879933E+03  0.50173879933E+03  0.00000000000E+00 0. -1.
         21   -1    0    0  502  503 -0.00000000000E+00 -0.00000000000E+00 -0.22502864639E+02  0.22502864639E+02  0.00000000000E+00 0. -1.
         24    1    1    2    0    0  0.20687016906E+02  0.20509471980E+02  0.20775923386E+03  0.22467689316E+03  0.80419002446E+02 0. -1.
          1    1    1    2  501    0 -0.36403613445E+02 -0.63189231620E+02  0.21512061687E+03  0.22714528802E+03  0.00000000000E+00 0. -1.
         -2    1    1    2    0  503  0.15716596539E+02  0.42679759640E+02  0.56356083962E+02  0.72419482801E+02  0.00000000000E+00 0.  1.
<mgrwt>
<rscale>  2 0.10196969E+03</rscale>
<asrwt>0</asrwt>
<pdfrwt beam="1">  1       21 0.77190576E-01 0.10196969E+03</pdfrwt>
<pdfrwt beam="2">  1       21 0.34619795E-02 0.10196969E+03</pdfrwt>
<totfact> 0.74880230E+05</totfact>
</mgrwt>
</event>
<event>
 5    1  0.1590180E+000  0.7879419E+02  0.7546771E-02  0.1332509E+00
         21   -1    0    0  501  502  0.00000000000E+00  0.00000000000E+00  0.22947152338E+01  0.22947152338E+01  0.00000000000E+00 0. -1.
         21   -1    0    0  502  503 -0.00000000000E+00 -0.00000000000E+00 -0.27377472956E+04  0.27377472956E+04  0.00000000000E+00 0.  1.
         24    1    1    2    0    0  0.15112676723E+02  0.21210952556E+01 -0.12903199188E+04  0.12929136092E+04  0.80419002446E+02 0.  0.
          1    1    1    2  501    0 -0.26476182827E+02  0.30970971182E+02 -0.83454045712E+03  0.83553453781E+03  0.00000000000E+00 0. -1.
         -2    1    1    2    0  503  0.11363506103E+02 -0.33092066437E+02 -0.61059220444E+03  0.61159386382E+03  0.00000000000E+00 0.  1.
<mgrwt>
<rscale>  2 0.78794190E+02</rscale>
<asrwt>0</asrwt>
<pdfrwt beam="1">  1       21 0.35303265E-03 0.78794190E+02</pdfrwt>
<pdfrwt beam="2">  1       21 0.42119245E+00 0.78794190E+02</pdfrwt>
<totfact> 0.14609457E+05</totfact>
</mgrwt>
</event>
<event>
 5    1  0.1590180E+000  0.1438922E+03  0.7546771E-02  0.1208186E+00
         21   -1    0    0  501  502  0.00000000000E+00  0.00000000000E+00  0.10218613181E+03  0.10218613181E+03  0.00000000000E+00 0. -1.
         21   -1    0    0  502  503 -0.00000000000E+00 -0.00000000000E+00 -0.34149750774E+03  0.34149750774E+03  0.00000000000E+00 0.  1.
         24    1    1    2    0    0  0.98850175547E+02 -0.82540447379E+01 -0.20338012091E+03  0.24014615549E+03  0.80419002446E+02 0.  1.
          1    1    1    2  501    0 -0.10906360011E+02  0.58021521124E+02  0.44871318691E+02  0.74154439134E+02  0.00000000000E+00 0. -1.
         -2    1    1    2    0  503 -0.87943815536E+02 -0.49767476387E+02 -0.80802573707E+02  0.12938304493E+03  0.00000000000E+00 0.  1.
<mgrwt>
<rscale>  2 0.14389222E+03</rscale>
<asrwt>0</asrwt>
<pdfrwt beam="1">  1       21 0.15720944E-01 0.14389222E+03</pdfrwt>
<pdfrwt beam="2">  1       21 0.52538077E-01 0.14389222E+03</pdfrwt>
<totfact> 0.12584760E+05</totfact>
</mgrwt>
</event>
<event>
 5    1  0.1590180E+000  0.1057562E+03  0.7546771E-02  0.1268637E+00
         21   -1    0    0  501  502  0.00000000000E+00  0.00000000000E+00  0.50496990759E+02  0.50496990759E+02  0.00000000000E+00 0.  1.
         21   -1    0    0  502  503 -0.00000000000E+00 -0.00000000000E+00 -0.35187097168E+03  0.35187097168E+03  0.00000000000E+00 0.  1.
         24    1    1    2    0    0 -0.18907222690E+02 -0.60758196619E+02 -0.12516767056E+03  0.16181224686E+03  0.80419002446E+02 0.  1.
          1    1    1    2  501    0  0.30326700215E+02 -0.13954591393E+02  0.13758739597E+02  0.36107371577E+02  0.00000000000E+00 0. -1.
         -2    1    1    2    0  503 -0.11419477525E+02  0.74712788012E+02 -0.18996504996E+03  0.20444834400E+03  0.00000000000E+00 0.  1.
<mgrwt>
<rscale>  2 0.10575624E+03</rscale>
<asrwt>0</asrwt>
<pdfrwt beam="1">  1       21 0.77687675E-02 0.10575624E+03</pdfrwt>
<pdfrwt beam="2">  1       21 0.54133997E-01 0.10575624E+03</pdfrwt>
<totfact> 0.41296912E+05</totfact>
</mgrwt>
</event>
<event>
 5    1  0.1590180E+000  0.7487807E+02  0.7546771E-02  0.1344249E+00
         21   -1    0    0  503  502  0.00000000000E+00  0.00000000000E+00  0.42828459437E+03  0.42828459437E+03  0.00000000000E+00 0.  1.
         21   -1    0    0  501  503 -0.00000000000E+00 -0.00000000000E+00 -0.14606237888E+02  0.14606237888E+02  0.00000000000E+00 0.  1.
         24    1    1    2    0    0  0.20444749727E+02 -0.21812524274E+01  0.29784842050E+03  0.30919838810E+03  0.80419002446E+02 0.  1.
          1    1    1    2  501    0  0.18576752399E+02  0.16832990524E+02  0.44688033718E+02  0.51239297978E+02  0.00000000000E+00 0. -1.
         -2    1    1    2    0  502 -0.39021502126E+02 -0.14651738097E+02  0.71141902256E+02  0.82453146174E+02  0.00000000000E+00 0.  1.
<mgrwt>
<rscale>  2 0.74878074E+02</rscale>
<asrwt>0</asrwt>
<pdfrwt beam="1">  1       21 0.65889928E-01 0.74878074E+02</pdfrwt>
<pdfrwt beam="2">  1       21 0.22471138E-02 0.74878074E+02</pdfrwt>
<totfact> 0.21099376E+06</totfact>
</mgrwt>
</event>
<event>
 5    1  0.1590180E+000  0.8600176E+02  0.7546771E-02  0.1312833E+00
         21   -1    0    0  501  502  0.00000000000E+00  0.00000000000E+00  0.16933099810E+03  0.16933099810E+03  0.00000000000E+00 0. -1.
         21   -1    0    0  502  503 -0.00000000000E+00 -0.00000000000E+00 -0.53142568282E+02  0.53142568282E+02  0.00000000000E+00 0.  1.
         24    1    1    2    0    0  0.11578980650E+02 -0.10164041249E+01  0.60205926736E+02  0.10112900394E+03  0.80419002446E+02 0.  0.
          1    1    1    2  501    0 -0.11894773814E+02 -0.44077281301E+02  0.60756623354E+02  0.75997760838E+02  0.00000000000E+00 0. -1.
         -2    1    1    2    0  503  0.31579316417E+00  0.45093685426E+02 -0.47741202758E+01  0.45346801597E+02  0.00000000000E+00 0.  1.
<mgrwt>
<rscale>  2 0.86001757E+02</rscale>
<asrwt>0</asrwt>
<pdfrwt beam="1">  1       21 0.26050923E-01 0.86001757E+02</pdfrwt>
<pdfrwt beam="2">  1       21 0.81757798E-02 0.86001757E+02</pdfrwt>
<totfact> 0.15942014E+06</totfact>
</mgrwt>
</event>
<event>
 5    1  0.1590180E+000  0.6898960E+02  0.7546771E-02  0.1363563E+00
         21   -1    0    0  501  502  0.00000000000E+00  0.00000000000E+00  0.21561227923E+03  0.21561227923E+03  0.00000000000E+00 0. -1.
         21   -1    0    0  502  503 -0.00000000000E+00 -0.00000000000E+00 -0.83861826899E+02  0.83861826899E+02  0.00000000000E+00 0.  1.
         24    1    1    2    0    0  0.43749061897E+02  0.17852043568E+01  0.32452530235E+02  0.97147053710E+02  0.80419002446E+02 0.  0.
          1    1    1    2  501    0 -0.21357246704E+02  0.68272458529E+01  0.14712304499E+03  0.14882181842E+03  0.00000000000E+00 0. -1.
         -2    1    1    2    0  503 -0.22391815193E+02 -0.86124502097E+01 -0.47825122887E+02  0.53505234000E+02  0.00000000000E+00 0.  1.
<mgrwt>
<rscale>  2 0.68989604E+02</rscale>
<asrwt>0</asrwt>
<pdfrwt beam="1">  1       21 0.33171120E-01 0.68989604E+02</pdfrwt>
<pdfrwt beam="2">  1       21 0.12901820E-01 0.68989604E+02</pdfrwt>
<totfact> 0.45629246E+05</totfact>
</mgrwt>
</event>
<event>
 5    1  0.1590180E+000  0.1012474E+03  0.7546771E-02  0.1277694E+00
         21   -1    0    0  501  502  0.00000000000E+00  0.00000000000E+00  0.57491794622E+03  0.57491794622E+03  0.00000000000E+00 0.  1.
         21   -1    0    0  502  503 -0.00000000000E+00 -0.00000000000E+00 -0.37763446709E+02  0.37763446709E+02  0.00000000000E+00 0. -1.
         24    1    1    2    0    0  0.36224087373E+02  0.50886132511E+02  0.11953712133E+03  0.15702841246E+03  0.80419002446E+02 0.  0.
          1    1    1    2  501    0  0.98092894020E+01 -0.53661413457E+02  0.40386032077E+03  0.40752782499E+03  0.00000000000E+00 0. -1.
         -2    1    1    2    0  503 -0.46033376775E+02  0.27752809457E+01  0.13757057417E+02  0.48125155485E+02  0.00000000000E+00 0.  1.
<mgrwt>
<rscale>  2 0.10124744E+03</rscale>
<asrwt>0</asrwt>
<pdfrwt beam="1">  1       21 0.88448909E-01 0.10124744E+03</pdfrwt>
<pdfrwt beam="2">  1       21 0.58097614E-02 0.10124744E+03</pdfrwt>
<totfact> 0.23391545E+05</totfact>
</mgrwt>
</event>
<event>
 5    1  0.1590180E+000  0.1280293E+03  0.7546771E-02  0.1230410E+00
         21   -1    0    0  503  502  0.00000000000E+00  0.00000000000E+00  0.47745610144E+03  0.47745610144E+03  0.00000000000E+00 0. -1.
         21   -1    0    0  501  503 -0.00000000000E+00 -0.00000000000E+00 -0.39102943775E+02  0.39102943775E+02  0.00000000000E+00 0. -1.
         24    1    1    2    0    0 -0.11279863119E+03 -0.18736583321E+02  0.19730948470E+03  0.24181157842E+03  0.80419002446E+02 0. -1.
          1    1    1    2  501    0  0.92877979877E+02  0.69902120589E+01  0.12206258233E+03  0.15353975451E+03  0.00000000000E+00 0. -1.
         -2    1    1    2    0  502  0.19920651316E+02  0.11746371262E+02  0.11898109064E+03  0.12120771228E+03  0.00000000000E+00 0.  1.
<mgrwt>
<rscale>  2 0.12802931E+03</rscale>
<asrwt>0</asrwt>
<pdfrwt beam="1">  1       21 0.73454780E-01 0.12802931E+03</pdfrwt>
<pdfrwt beam="2">  1       21 0.60158379E-02 0.12802931E+03</pdfrwt>
<totfact> 0.33153391E+05</totfact>
</mgrwt>
</event>
<event>
 5    1  0.1590180E+000  0.9272225E+02  0.7546771E-02  0.1296390E+00
         21   -1    0    0  501  502  0.00000000000E+00  0.00000000000E+00  0.10667447181E+03  0.10667447181E+03  0.00000000000E+00 0. -1.
         21   -1    0    0  502  503 -0.00000000000E+00 -0.00000000000E+00 -0.86156126319E+02  0.86156126319E+02  0.00000000000E+00 0. -1.
         24    1    1    2    0    0  0.64604397007E+02  0.35531608700E+02 -0.57320908702E+01  0.10925335761E+03  0.80419002446E+02 0. -1.
          1    1    1    2  501    0 -0.23111904646E+02 -0.23905577227E+02  0.22864909183E+02  0.40353944427E+02  0.00000000000E+00 0. -1.
         -2    1    1    2    0  503 -0.41492492362E+02 -0.11626031473E+02  0.33855271748E+01  0.43223296085E+02  0.00000000000E+00 0.  1.
<mgrwt>
<rscale>  2 0.92722252E+02</rscale>
<asrwt>0</asrwt>
<pdfrwt beam="1">  1       21 0.16411457E-01 0.92722252E+02</pdfrwt>
<pdfrwt beam="2">  1       21 0.13254789E-01 0.92722252E+02</pdfrwt>
<totfact> 0.16129700E+06</totfact>
</mgrwt>
</event>
<event>
 5    1  0.1590180E+000  0.1030119E+03  0.7546771E-02  0.1274087E+00
         21   -1    0    0  501  502  0.00000000000E+00  0.00000000000E+00  0.43205701777E+02  0.43205701777E+02  0.00000000000E+00 0. -1.
         21   -1    0    0  502  503 -0.00000000000E+00 -0.00000000000E+00 -0.86550160525E+03  0.86550160525E+03  0.00000000000E+00 0. -1.
         24    1    1    2    0    0  0.37742345150E+02 -0.56196975186E+02 -0.44273354106E+03  0.45504152445E+03  0.80419002446E+02 0. -1.
          1    1    1    2  501    0  0.23029814859E+02  0.16010684115E+02  0.28006072358E+02  0.39636529454E+02  0.00000000000E+00 0. -1.
         -2    1    1    2    0  503 -0.60772160008E+02  0.40186291071E+02 -0.40756843477E+03  0.41402925313E+03  0.00000000000E+00 0.  1.
<mgrwt>
<rscale>  2 0.10301191E+03</rscale>
<asrwt>0</asrwt>
<pdfrwt beam="1">  1       21 0.66470310E-02 0.10301191E+03</pdfrwt>
<pdfrwt beam="2">  1       21 0.13315409E+00 0.10301191E+03</pdfrwt>
<totfact> 0.70726631E+04</totfact>
</mgrwt>
</event>
<event>
 5    1  0.1590180E+000  0.8929598E+02  0.7546771E-02  0.1304566E+00
         21   -1    0    0  501  502  0.00000000000E+00  0.00000000000E+00  0.70429733510E+02  0.70429733510E+02  0.00000000000E+00 0.  1.
         21   -1    0    0  502  503 -0.00000000000E+00 -0.00000000000E+00 -0.12728570803E+03  0.12728570803E+03  0.00000000000E+00 0. -1.
         24    1    1    2    0    0  0.62510273469E+02 -0.47285361081E+01 -0.24820123795E+02  0.10494354598E+03  0.80419002446E+02 0.  0.
          1    1    1    2  501    0 -0.13848978844E+02  0.21139239353E+02  0.92175055984E+01  0.26900261428E+02  0.00000000000E+00 0. -1.
         -2    1    1    2    0  503 -0.48661294624E+02 -0.16410703244E+02 -0.41253356323E+02  0.65871634133E+02  0.00000000000E+00 0.  1.
<mgrwt>
<rscale>  2 0.89295984E+02</rscale>
<asrwt>0</asrwt>
<pdfrwt beam="1">  1       21 0.10835344E-01 0.89295984E+02</pdfrwt>
<pdfrwt beam="2">  1       21 0.19582416E-01 0.89295984E+02</pdfrwt>
<totfact> 0.16658236E+06</totfact>
</mgrwt>
</event>
<event>
 5    1  0.1590180E+000  0.1111095E+03  0.7546771E-02  0.1258529E+00
         21   -1    0    0  501  502  0.00000000000E+00  0.00000000000E+00  0.87694690426E+03  0.87694690426E+03  0.00000000000E+00 0. -1.
         21   -1    0    0  502  503 -0.00000000000E+00 -0.00000000000E+00 -0.72230894820E+02  0.72230894820E+02  0.00000000000E+00 0.  1.
         24    1    1    2    0    0  0.17397757512E+02 -0.28706697060E+02  0.27552589613E+02  0.91395391412E+02  0.80419002446E+02 0.  0.
          1    1    1    2  501    0  0.50149927468E+02  0.42966712037E+02  0.78547602429E+03  0.78824725709E+03  0.00000000000E+00 0. -1.
         -2    1    1    2    0  503 -0.67547684980E+02 -0.14260014976E+02 -0.83126044651E+01  0.69535150580E+02  0.00000000000E+00 0.  1.
<mgrwt>
<rscale>  2 0.11110946E+03</rscale>
<asrwt>0</asrwt>
<pdfrwt beam="1">  1       21 0.13491490E+00 0.11110946E+03</pdfrwt>
<pdfrwt beam="2">  1       21 0.11112446E-01 0.11110946E+03</pdfrwt>
<totfact> 0.28042065E+04</totfact>
</mgrwt>
</event>
<event>
 5    1  0.1590180E+000  0.1111599E+03  0.7546771E-02  0.1258437E+00
         21   -1    0    0  501  502  0.00000000000E+00  0.00000000000E+00  0.40705312320E+03  0.40705312320E+03  0.00000000000E+00 0. -1.
         21   -1    0    0  502  503 -0.00000000000E+00 -0.00000000000E+00 -0.63681509698E+02  0.63681509698E+02  0.00000000000E+00 0.  1.
         24    1    1    2    0    0 -0.49018626322E+02  0.77559966087E+02  0.17685903485E+03  0.21485974083E+03  0.80419002446E+02 0. -1.
          1    1    1    2  501    0  0.69297988261E+01 -0.48910749738E+02  0.19248220764E+03  0.19872011425E+03  0.00000000000E+00 0. -1.
         -2    1    1    2    0  503  0.42088827496E+02 -0.28649216349E+02 -0.25969628989E+02  0.57154777816E+02  0.00000000000E+00 0.  1.
<mgrwt>
<rscale>  2 0.11115993E+03</rscale>
<asrwt>0</asrwt>
<pdfrwt beam="1">  1       21 0.62623556E-01 0.11115993E+03</pdfrwt>
<pdfrwt beam="2">  1       21 0.97971556E-02 0.11115993E+03</pdfrwt>
<totfact> 0.20348255E+05</totfact>
</mgrwt>
</event>
<event>
 5    1  0.1590180E+000  0.7524851E+02  0.7546771E-02  0.1343103E+00
         21   -1    0    0  501  502  0.00000000000E+00  0.00000000000E+00  0.10003566641E+04  0.10003566641E+04  0.00000000000E+00 0.  1.
         21   -1    0    0  502  503 -0.00000000000E+00 -0.00000000000E+00 -0.11041438465E+02  0.11041438465E+02  0.00000000000E+00 0. -1.
         24    1    1    2    0    0  0.46251920187E+02  0.93293144320E+01  0.54968396196E+03  0.55753560444E+03  0.80419002446E+02 0.  0.
          1    1    1    2  501    0 -0.22472441201E+02 -0.21010505369E+02  0.41940188698E+03  0.42052870860E+03  0.00000000000E+00 0. -1.
         -2    1    1    2    0  503 -0.23779478986E+02  0.11681190937E+02  0.20229376681E+02  0.33333789516E+02  0.00000000000E+00 0.  1.
<mgrwt>
<rscale>  2 0.75248507E+02</rscale>
<asrwt>0</asrwt>
<pdfrwt beam="1">  1       21 0.15390095E+00 0.75248507E+02</pdfrwt>
<pdfrwt beam="2">  1       21 0.16986836E-02 0.75248507E+02</pdfrwt>
<totfact> 0.46389787E+05</totfact>
</mgrwt>
</event>
<event>
 5    1  0.1590180E+000  0.1282572E+03  0.7546771E-02  0.1230065E+00
         21   -1    0    0  503  502  0.00000000000E+00  0.00000000000E+00  0.23823273984E+03  0.23823273984E+03  0.00000000000E+00 0.  1.
         21   -1    0    0  501  503 -0.00000000000E+00 -0.00000000000E+00 -0.18746693658E+03  0.18746693658E+03  0.00000000000E+00 0. -1.
         24    1    1    2    0    0  0.39297524854E+02 -0.18149782815E+02 -0.12285405471E+03  0.15308182384E+03  0.80419002446E+02 0. -1.
          1    1    1    2  501    0 -0.87374199465E+02  0.56187646564E+02  0.18093410124E+02  0.10544512245E+03  0.00000000000E+00 0. -1.
         -2    1    1    2    0  502  0.48076674611E+02 -0.38037863748E+02  0.15552644785E+03  0.16717273014E+03  0.00000000000E+00 0.  1.
<mgrwt>
<rscale>  2 0.12825720E+03</rscale>
<asrwt>0</asrwt>
<pdfrwt beam="1">  1       21 0.36651191E-01 0.12825720E+03</pdfrwt>
<pdfrwt beam="2">  1       21 0.28841067E-01 0.12825720E+03</pdfrwt>
<totfact> 0.84821656E+04</totfact>
</mgrwt>
</event>
<event>
 5    1  0.1590180E+000  0.8366406E+02  0.7546771E-02  0.1318964E+00
         21   -1    0    0  501  502  0.00000000000E+00  0.00000000000E+00  0.12827280607E+04  0.12827280607E+04  0.00000000000E+00 0.  1.
         21   -1    0    0  502  503 -0.00000000000E+00 -0.00000000000E+00 -0.10072037693E+02  0.10072037693E+02  0.00000000000E+00 0.  1.
         24    1    1    2    0    0 -0.32699007629E+02  0.42131533821E+01  0.71786309975E+03  0.72310553981E+03  0.80419002446E+02 0.  1.
          1    1    1    2  501    0 -0.14679765302E+02  0.21861875762E+02  0.45849233070E+03  0.45924792262E+03  0.00000000000E+00 0. -1.
         -2    1    1    2    0  503  0.47378772931E+02 -0.26075029144E+02  0.96300592558E+02  0.11044663597E+03  0.00000000000E+00 0.  1.
<mgrwt>
<rscale>  2 0.83664065E+02</rscale>
<asrwt>0</asrwt>
<pdfrwt beam="1">  1       21 0.19734265E+00 0.83664065E+02</pdfrwt>
<pdfrwt beam="2">  1       21 0.15495453E-02 0.83664065E+02</pdfrwt>
<totfact> 0.27516647E+05</totfact>
</mgrwt>
</event>
<event>
 5    1  0.1590180E+000  0.9673333E+02  0.7546771E-02  0.1287319E+00
         21   -1    0    0  503  502  0.00000000000E+00  0.00000000000E+00  0.81789784326E+03  0.81789784326E+03  0.00000000000E+00 0.  1.
         21   -1    0    0  501  503 -0.00000000000E+00 -0.00000000000E+00 -0.40936746875E+02  0.40936746875E+02  0.00000000000E+00 0.  1.
         24    1    1    2    0    0  0.10659730396E+02  0.61217405885E+02  0.74328103754E+02  0.12590902905E+03  0.80419002446E+02 0.  1.
          1    1    1    2  501    0  0.22824182956E+02 -0.52486430616E+02  0.41038502276E+02  0.70426751987E+02  0.00000000000E+00 0. -1.
         -2    1    1    2    0  502 -0.33483913352E+02 -0.87309752684E+01  0.66159449035E+03  0.66249880909E+03  0.00000000000E+00 0.  1.
<mgrwt>
<rscale>  2 0.96733326E+02</rscale>
<asrwt>0</asrwt>
<pdfrwt beam="1">  1       21 0.12583042E+00 0.96733326E+02</pdfrwt>
<pdfrwt beam="2">  1       21 0.62979617E-02 0.96733326E+02</pdfrwt>
<totfact> 0.89431928E+04</totfact>
</mgrwt>
</event>
<event>
 5    1  0.1590180E+000  0.7721511E+02  0.7546771E-02  0.1337146E+00
         21   -1    0    0  503  502  0.00000000000E+00  0.00000000000E+00  0.31175520197E+03  0.31175520197E+03  0.00000000000E+00 0. -1.
         21   -1    0    0  501  503 -0.00000000000E+00 -0.00000000000E+00 -0.23434886971E+02  0.23434886971E+02  0.00000000000E+00 0.  1.
         24    1    1    2    0    0 -0.22648775941E+02 -0.11832863727E+02  0.16615888049E+03  0.18635711212E+03  0.80419002446E+02 0. -1.
          1    1    1    2  501    0 -0.21572609197E+02 -0.59622517942E+01  0.58507797261E+01  0.23133472230E+02  0.00000000000E+00 0. -1.
         -2    1    1    2    0  502  0.44221385138E+02  0.17795115521E+02  0.11631065478E+03  0.12569950459E+03  0.00000000000E+00 0.  1.
<mgrwt>
<rscale>  2 0.77215109E+02</rscale>
<asrwt>0</asrwt>
<pdfrwt beam="1">  1       21 0.47962336E-01 0.77215109E+02</pdfrwt>
<pdfrwt beam="2">  1       21 0.36053675E-02 0.77215109E+02</pdfrwt>
<totfact> 0.18992385E+06</totfact>
</mgrwt>
</event>
<event>
 5    1  0.1590180E+000  0.1266908E+03  0.7546771E-02  0.1232450E+00
         21   -1    0    0  501  502  0.00000000000E+00  0.00000000000E+00  0.39036840435E+03  0.39036840435E+03  0.00000000000E+00 0.  1.
         21   -1    0    0  502  503 -0.00000000000E+00 -0.00000000000E+00 -0.69075958777E+02  0.69075958777E+02  0.00000000000E+00 0.  1.
         24    1    1    2    0    0 -0.22747187280E+02 -0.84237474675E+02  0.23524449646E+03  0.26347784676E+03  0.80419002446E+02 0.  1.
          1    1    1    2  501    0 -0.27635241683E+02 -0.87272084858E+01  0.85444428358E+02  0.90225390486E+02  0.00000000000E+00 0. -1.
         -2    1    1    2    0  503  0.50382428963E+02  0.92964683160E+02  0.60352075408E+00  0.10574112587E+03  0.00000000000E+00 0.  1.
<mgrwt>
<rscale>  2 0.12669082E+03</rscale>
<asrwt>0</asrwt>
<pdfrwt beam="1">  1       21 0.60056676E-01 0.12669082E+03</pdfrwt>
<pdfrwt beam="2">  1       21 0.10627071E-01 0.12669082E+03</pdfrwt>
<totfact> 0.19207113E+05</totfact>
</mgrwt>
</event>
<event>
 5    1  0.1590180E+000  0.6917436E+02  0.7546771E-02  0.1362923E+00
         21   -1    0    0  501  502  0.00000000000E+00  0.00000000000E+00  0.34445686577E+03  0.34445686577E+03  0.00000000000E+00 0. -1.
         21   -1    0    0  502  503 -0.00000000000E+00 -0.00000000000E+00 -0.45551786499E+02  0.45551786499E+02  0.00000000000E+00 0. -1.
         24    1    1    2    0    0  0.10892319015E+01  0.31544674518E+01  0.18658567623E+02  0.82622607022E+02  0.80419002446E+02 0. -1.
          1    1    1    2  501    0 -0.26186213339E+02  0.11717211029E+02  0.27648827484E+03  0.27797261903E+03  0.00000000000E+00 0. -1.
         -2    1    1    2    0  503  0.25096981437E+02 -0.14871678481E+02  0.37582368051E+01  0.29413426220E+02  0.00000000000E+00 0.  1.
<mgrwt>
<rscale>  2 0.69174360E+02</rscale>
<asrwt>0</asrwt>
<pdfrwt beam="1">  1       21 0.52993362E-01 0.69174360E+02</pdfrwt>
<pdfrwt beam="2">  1       21 0.70079674E-02 0.69174360E+02</pdfrwt>
<totfact> 0.51467945E+05</totfact>
</mgrwt>
</event>
<event>
 5    1  0.1590180E+000  0.1263627E+03  0.7546771E-02  0.1232955E+00
         21   -1    0    0  503  502  0.00000000000E+00  0.00000000000E+00  0.96848959818E+02  0.96848959818E+02  0.00000000000E+00 0.  1.
         21   -1    0    0  501  503 -0.00000000000E+00 -0.00000000000E+00 -0.17980165237E+03  0.17980165237E+03  0.00000000000E+00 0. -1.
         24    1    1    2    0    0 -0.90040750159E+02  0.39185021350E+02 -0.51958192279E+02  0.13714835867E+03  0.80419002446E+02 0.  0.
          1    1    1    2  501    0  0.88999660063E+02 -0.24324744572E+01 -0.45489659957E+02  0.99980826093E+02  0.00000000000E+00 0. -1.
         -2    1    1    2    0  502  0.10410900967E+01 -0.36752546893E+02  0.14495159679E+02  0.39521427426E+02  0.00000000000E+00 0.  1.
<mgrwt>
<rscale>  2 0.12636272E+03</rscale>
<asrwt>0</asrwt>
<pdfrwt beam="1">  1       21 0.14899840E-01 0.12636272E+03</pdfrwt>
<pdfrwt beam="2">  1       21 0.27661792E-01 0.12636272E+03</pdfrwt>
<totfact> 0.49938497E+05</totfact>
</mgrwt>
</event>
<event>
 5    1  0.1590180E+000  0.6775379E+02  0.7546771E-02  0.1367902E+00
         21   -1    0    0  503  502  0.00000000000E+00  0.00000000000E+00  0.11801995696E+02  0.11801995696E+02  0.00000000000E+00 0.  1.
         21   -1    0    0  501  503 -0.00000000000E+00 -0.00000000000E+00 -0.78418770155E+03  0.78418770155E+03  0.00000000000E+00 0.  1.
         24    1    1    2    0    0  0.17172393554E+02 -0.80274587830E+01 -0.57906399278E+03  0.58492876052E+03  0.80419002446E+02 0.  1.
          1    1    1    2  501    0 -0.11411277554E+02 -0.20672106597E+02 -0.17487352694E+03  0.17646048756E+03  0.00000000000E+00 0. -1.
         -2    1    1    2    0  502 -0.57611160004E+01  0.28699565380E+02 -0.18448186132E+02  0.34600449160E+02  0.00000000000E+00 0.  1.
<mgrwt>
<rscale>  2 0.67753791E+02</rscale>
<asrwt>0</asrwt>
<pdfrwt beam="1">  1       21 0.18156917E-02 0.67753791E+02</pdfrwt>
<pdfrwt beam="2">  1       21 0.12064426E+00 0.67753791E+02</pdfrwt>
<totfact> 0.76071213E+05</totfact>
</mgrwt>
</event>
<event>
 5    1  0.1590180E+000  0.8551965E+02  0.7546771E-02  0.1314079E+00
         21   -1    0    0  503  502  0.00000000000E+00  0.00000000000E+00  0.86282545100E+03  0.86282545100E+03  0.00000000000E+00 0. -1.
         21   -1    0    0  501  503 -0.00000000000E+00 -0.00000000000E+00 -0.10302422397E+02  0.10302422397E+02  0.00000000000E+00 0. -1.
         24    1    1    2    0    0  0.31447547745E+02 -0.19077631215E+02  0.61955072179E+03  0.62583002253E+03  0.80419002446E+02 0. -1.
          1    1    1    2  501    0 -0.55763309750E+02  0.99997876116E+01  0.14905044732E+03  0.15945400062E+03  0.00000000000E+00 0. -1.
         -2    1    1    2    0  502  0.24315762005E+02  0.90778436037E+01  0.83921859495E+02  0.87843850254E+02  0.00000000000E+00 0.  1.
<mgrwt>
<rscale>  2 0.85519648E+02</rscale>
<asrwt>0</asrwt>
<pdfrwt beam="1">  1       21 0.13274232E+00 0.85519648E+02</pdfrwt>
<pdfrwt beam="2">  1       21 0.15849887E-02 0.85519648E+02</pdfrwt>
<totfact> 0.74825550E+05</totfact>
</mgrwt>
</event>
<event>
 5    1  0.1590180E+000  0.1103531E+03  0.7546771E-02  0.1259917E+00
         21   -1    0    0  503  502  0.00000000000E+00  0.00000000000E+00  0.27303680317E+03  0.27303680317E+03  0.00000000000E+00 0. -1.
         21   -1    0    0  501  503 -0.00000000000E+00 -0.00000000000E+00 -0.60865247183E+02  0.60865247183E+02  0.00000000000E+00 0.  1.
         24    1    1    2    0    0 -0.28260188372E+02 -0.85115002394E+02  0.46046445669E+02  0.12896004417E+03  0.80419002446E+02 0.  1.
          1    1    1    2  501    0  0.19440699205E+02  0.55815454505E+01 -0.35452903148E+00  0.20229189950E+02  0.00000000000E+00 0. -1.
         -2    1    1    2    0  502  0.88194891665E+01  0.79533456944E+02  0.16647963935E+03  0.18471281623E+03  0.00000000000E+00 0.  1.
<mgrwt>
<rscale>  2 0.11035312E+03</rscale>
<asrwt>0</asrwt>
<pdfrwt beam="1">  1       21 0.42005661E-01 0.11035312E+03</pdfrwt>
<pdfrwt beam="2">  1       21 0.93638843E-02 0.11035312E+03</pdfrwt>
<totfact> 0.50192166E+05</totfact>
</mgrwt>
</event>
<event>
 5    1  0.1590180E+000  0.8350561E+02  0.7546771E-02  0.1319387E+00
         21   -1    0    0  501  502  0.00000000000E+00  0.00000000000E+00  0.56052418967E+02  0.56052418967E+02  0.00000000000E+00 0.  1.
         21   -1    0    0  502  503 -0.00000000000E+00 -0.00000000000E+00 -0.19418280008E+03  0.19418280008E+03  0.00000000000E+00 0.  1.
         24    1    1    2    0    0 -0.94994982109E+01  0.33054215968E+02 -0.35105307009E+02  0.94246592480E+02  0.80419002446E+02 0.  1.
          1    1    1    2  501    0 -0.21865257005E+02 -0.41636848471E+02  0.95898274616E+00  0.47038667736E+02  0.00000000000E+00 0. -1.
         -2    1    1    2    0  503  0.31364755215E+02  0.85826325025E+01 -0.10398405685E+03  0.10894995883E+03  0.00000000000E+00 0.  1.
<mgrwt>
<rscale>  2 0.83505609E+02</rscale>
<asrwt>0</asrwt>
<pdfrwt beam="1">  1       21 0.86234491E-02 0.83505609E+02</pdfrwt>
<pdfrwt beam="2">  1       21 0.29874277E-01 0.83505609E+02</pdfrwt>
<totfact> 0.11223851E+06</totfact>
</mgrwt>
</event>
<event>
 5    1  0.1927021E+000  0.7989128E+02  0.7546771E-02  0.1329360E+00
         21   -1    0    0  503  502  0.00000000000E+00  0.00000000000E+00  0.27710430586E+03  0.27710430586E+03  0.00000000000E+00 0.  1.
         21   -1    0    0  501  503 -0.00000000000E+00 -0.00000000000E+00 -0.14174148811E+03  0.14174148811E+03  0.00000000000E+00 0. -1.
         24    1    1    2    0    0  0.40650049048E+01 -0.31870388330E+02  0.78372416105E+02  0.11679767754E+03  0.80419002446E+02 0. -1.
          1    1    1    2  501    0  0.34167620977E+01  0.51791138764E+02 -0.11635223915E+03  0.12740423805E+03  0.00000000000E+00 0. -1.
         -2    1    1    2    0  502 -0.74817670026E+01 -0.19920750434E+02  0.17334264080E+03  0.17464387838E+03  0.00000000000E+00 0.  1.
<mgrwt>
<rscale>  2 0.79891281E+02</rscale>
<asrwt>0</asrwt>
<pdfrwt beam="1">  1       21 0.42631432E-01 0.79891281E+02</pdfrwt>
<pdfrwt beam="2">  1       21 0.21806383E-01 0.79891281E+02</pdfrwt>
<totfact> 0.10883648E+05</totfact>
</mgrwt>
</event>
<event>
 5    1  0.1590180E+000  0.8025172E+02  0.7546771E-02  0.1328339E+00
         21   -1    0    0  501  502  0.00000000000E+00  0.00000000000E+00  0.38052103447E+01  0.38052103447E+01  0.00000000000E+00 0. -1.
         21   -1    0    0  502  503 -0.00000000000E+00 -0.00000000000E+00 -0.27431290340E+04  0.27431290340E+04  0.00000000000E+00 0.  1.
         24    1    1    2    0    0 -0.22935295833E+02 -0.54174904541E+02 -0.11469462818E+04  0.11512662322E+04  0.80419002446E+02 0. -1.
          1    1    1    2  501    0  0.20480774613E+02  0.28633835932E+02 -0.20139154289E+03  0.20444537715E+03  0.00000000000E+00 0. -1.
         -2    1    1    2    0  503  0.24545212201E+01  0.25541068609E+02 -0.13909859990E+04  0.13912226350E+04  0.00000000000E+00 0.  1.
<mgrwt>
<rscale>  2 0.80251719E+02</rscale>
<asrwt>0</asrwt>
<pdfrwt beam="1">  1       21 0.58541656E-03 0.80251719E+02</pdfrwt>
<pdfrwt beam="2">  1       21 0.42202015E+00 0.80251719E+02</pdfrwt>
<totfact> 0.66553916E+04</totfact>
</mgrwt>
</event>
<event>
 5    1  0.1590180E+000  0.1066727E+03  0.7546771E-02  0.1266859E+00
         21   -1    0    0  501  502  0.00000000000E+00  0.00000000000E+00  0.10245538188E+03  0.10245538188E+03  0.00000000000E+00 0. -1.
         21   -1    0    0  502  503 -0.00000000000E+00 -0.00000000000E+00 -0.35306694675E+03  0.35306694675E+03  0.00000000000E+00 0.  1.
         24    1    1    2    0    0  0.31349785049E+02  0.41585901589E+01 -0.12910071264E+03  0.15535222191E+03  0.80419002446E+02 0.  0.
          1    1    1    2  501    0 -0.77391266970E+02  0.11626212684E+02  0.68512606933E+02  0.10401227972E+03  0.00000000000E+00 0. -1.
         -2    1    1    2    0  503  0.46041481921E+02 -0.15784802843E+02 -0.19002345916E+03  0.19615782699E+03  0.00000000000E+00 0.  1.
<mgrwt>
<rscale>  2 0.10667274E+03</rscale>
<asrwt>0</asrwt>
<pdfrwt beam="1">  1       21 0.15762366E-01 0.10667274E+03</pdfrwt>
<pdfrwt beam="2">  1       21 0.54317992E-01 0.10667274E+03</pdfrwt>
<totfact> 0.11853323E+05</totfact>
</mgrwt>
</event>
<event>
 5    1  0.1590180E+000  0.7895704E+02  0.7546771E-02  0.1332038E+00
         21   -1    0    0  501  502  0.00000000000E+00  0.00000000000E+00  0.68757229117E+03  0.68757229117E+03  0.00000000000E+00 0. -1.
         21   -1    0    0  502  503 -0.00000000000E+00 -0.00000000000E+00 -0.10818896349E+02  0.10818896349E+02  0.00000000000E+00 0.  1.
         24    1    1    2    0    0  0.23200751343E+02  0.91802595136E+01  0.23846357926E+03  0.25289255943E+03  0.80419002446E+02 0.  1.
          1    1    1    2  501    0 -0.19340481270E+02 -0.39059608308E+02  0.33748729338E+03  0.34029014151E+03  0.00000000000E+00 0. -1.
         -2    1    1    2    0  503 -0.38602700733E+01  0.29879348795E+02  0.10080252218E+03  0.10520848658E+03  0.00000000000E+00 0.  1.
<mgrwt>
<rscale>  2 0.78957036E+02</rscale>
<asrwt>0</asrwt>
<pdfrwt beam="1">  1       21 0.10578032E+00 0.78957036E+02</pdfrwt>
<pdfrwt beam="2">  1       21 0.16644461E-02 0.78957036E+02</pdfrwt>
<totfact> 0.11914088E+06</totfact>
</mgrwt>
</event>
<event>
 5    1  0.1590180E+000  0.6882744E+02  0.7546771E-02  0.1364126E+00
         21   -1    0    0  503  502  0.00000000000E+00  0.00000000000E+00  0.14202761762E+03  0.14202761762E+03  0.00000000000E+00 0. -1.
         21   -1    0    0  501  503 -0.00000000000E+00 -0.00000000000E+00 -0.70845525892E+02  0.70845525892E+02  0.00000000000E+00 0.  1.
         24    1    1    2    0    0  0.10729867237E+02 -0.12474909869E+01 -0.28814809938E+02  0.86105722869E+02  0.80419002446E+02 0.  1.
          1    1    1    2  501    0 -0.31650804446E+02 -0.94296255938E+01  0.11132695920E+02  0.34851516170E+02  0.00000000000E+00 0. -1.
         -2    1    1    2    0  502  0.20920937209E+02  0.10677116581E+02  0.88864205742E+02  0.91915904469E+02  0.00000000000E+00 0.  1.
<mgrwt>
<rscale>  2 0.68827435E+02</rscale>
<asrwt>0</asrwt>
<pdfrwt beam="1">  1       21 0.21850403E-01 0.68827435E+02</pdfrwt>
<pdfrwt beam="2">  1       21 0.10899312E-01 0.68827435E+02</pdfrwt>
<totfact> 0.13366463E+06</totfact>
</mgrwt>
</event>
<event>
 5    1  0.1590180E+000  0.1089789E+03  0.7546771E-02  0.1262473E+00
         21   -1    0    0  503  502  0.00000000000E+00  0.00000000000E+00  0.38745340562E+02  0.38745340562E+02  0.00000000000E+00 0.  1.
         21   -1    0    0  501  503 -0.00000000000E+00 -0.00000000000E+00 -0.76029206749E+03  0.76029206749E+03  0.00000000000E+00 0. -1.
         24    1    1    2    0    0 -0.15476837976E+02  0.91831291916E+02 -0.21133332982E+03  0.24454347453E+03  0.80419002446E+02 0.  1.
          1    1    1    2  501    0 -0.23176791373E+01 -0.40865820684E+02 -0.49730866294E+03  0.49899027363E+03  0.00000000000E+00 0. -1.
         -2    1    1    2    0  502  0.17794517114E+02 -0.50965471232E+02 -0.12904734160E+02  0.55503659888E+02  0.00000000000E+00 0.  1.
<mgrwt>
<rscale>  2 0.10897887E+03</rscale>
<asrwt>0</asrwt>
<pdfrwt beam="1">  1       21 0.59608219E-02 0.10897887E+03</pdfrwt>
<pdfrwt beam="2">  1       21 0.11696801E+00 0.10897887E+03</pdfrwt>
<totfact> 0.11634764E+05</totfact>
</mgrwt>
</event>
<event>
 5    1  0.1590180E+000  0.8369118E+02  0.7546771E-02  0.1318891E+00
         21   -1    0    0  501  502  0.00000000000E+00  0.00000000000E+00  0.95910883839E+02  0.95910883839E+02  0.00000000000E+00 0.  1.
         21   -1    0    0  502  503 -0.00000000000E+00 -0.00000000000E+00 -0.95037602443E+02  0.95037602443E+02  0.00000000000E+00 0.  1.
         24    1    1    2    0    0  0.60463814207E+01 -0.27261369657E+02 -0.45221967575E+02  0.96394934045E+02  0.80419002446E+02 0.  1.
          1    1    1    2  501    0 -0.39229955411E+02 -0.12188015247E+00  0.26037508573E+02  0.47084563383E+02  0.00000000000E+00 0. -1.
         -2    1    1    2    0  503  0.33183573991E+02  0.27383249809E+02  0.20057740399E+02  0.47468988854E+02  0.00000000000E+00 0.  1.
<mgrwt>
<rscale>  2 0.83691181E+02</rscale>
<asrwt>0</asrwt>
<pdfrwt beam="1">  1       21 0.14755521E-01 0.83691181E+02</pdfrwt>
<pdfrwt beam="2">  1       21 0.14621170E-01 0.83691181E+02</pdfrwt>
<totfact> 0.16335651E+06</totfact>
</mgrwt>
</event>
<event>
 5    1  0.1590180E+000  0.1304723E+03  0.7546771E-02  0.1226757E+00
         21   -1    0    0  503  502  0.00000000000E+00  0.00000000000E+00  0.29338663387E+03  0.29338663387E+03  0.00000000000E+00 0. -1.
         21   -1    0    0  501  503 -0.00000000000E+00 -0.00000000000E+00 -0.59251415628E+02  0.59251415628E+02  0.00000000000E+00 0. -1.
         24    1    1    2    0    0  0.54930073691E+02 -0.38197182317E+02  0.76268448110E+02  0.12946207887E+03  0.80419002446E+02 0. -1.
          1    1    1    2  501    0 -0.97065807286E+02  0.54304216032E+02  0.98160633713E+02  0.14834496565E+03  0.00000000000E+00 0. -1.
         -2    1    1    2    0  502  0.42135733595E+02 -0.16107033715E+02  0.59706136422E+02  0.74831004985E+02  0.00000000000E+00 0.  1.
<mgrwt>
<rscale>  2 0.13047228E+03</rscale>
<asrwt>0</asrwt>
<pdfrwt beam="1">  1       21 0.45136404E-01 0.13047228E+03</pdfrwt>
<pdfrwt beam="2">  1       21 0.91156026E-02 0.13047228E+03</pdfrwt>
<totfact> 0.45406455E+05</totfact>
</mgrwt>
</event>
<event>
 5    1  0.1590180E+000  0.1130353E+03  0.7546771E-02  0.1255050E+00
         21   -1    0    0  503  502  0.00000000000E+00  0.00000000000E+00  0.30234792165E+02  0.30234792165E+02  0.00000000000E+00 0. -1.
         21   -1    0    0  501  503 -0.00000000000E+00 -0.00000000000E+00 -0.47124692238E+03  0.47124692238E+03  0.00000000000E+00 0.  1.
         24    1    1    2    0    0 -0.21688565628E+01 -0.10194820436E+02 -0.24151874603E+03  0.25476883432E+03  0.80419002446E+02 0.  1.
          1    1    1    2  501    0 -0.18973795275E+02  0.74713185461E+02 -0.11209412820E+03  0.13604101795E+03  0.00000000000E+00 0. -1.
         -2    1    1    2    0  502  0.21142651838E+02 -0.64518365025E+02 -0.87399255991E+02  0.11067186228E+03  0.00000000000E+00 0.  1.
<mgrwt>
<rscale>  2 0.11303535E+03</rscale>
<asrwt>0</asrwt>
<pdfrwt beam="1">  1       21 0.46515069E-02 0.11303535E+03</pdfrwt>
<pdfrwt beam="2">  1       21 0.72499521E-01 0.11303535E+03</pdfrwt>
<totfact> 0.52693841E+05</totfact>
</mgrwt>
</event>
<event>
 5    1  0.1590180E+000  0.6580065E+02  0.7546771E-02  0.1374985E+00
         21   -1    0    0  501  502  0.00000000000E+00  0.00000000000E+00  0.92060563502E+01  0.92060563502E+01  0.00000000000E+00 0.  1.
         21   -1    0    0  502  503 -0.00000000000E+00 -0.00000000000E+00 -0.49841900152E+03  0.49841900152E+03  0.00000000000E+00 0. -1.
         24    1    1    2    0    0 -0.10129259855E+02 -0.89257299293E+01 -0.28592058099E+03  0.29732148451E+03  0.80419002446E+02 0.  1.
          1    1    1    2  501    0  0.78782078012E+01  0.28900830119E+02 -0.80825295171E+02  0.86197752170E+02  0.00000000000E+00 0. -1.
         -2    1    1    2    0  503  0.22510520535E+01 -0.19975100190E+02 -0.12246706901E+03  0.12410582119E+03  0.00000000000E+00 0.  1.
<mgrwt>
<rscale>  2 0.65800646E+02</rscale>
<asrwt>0</asrwt>
<pdfrwt beam="1">  1       21 0.14163162E-02 0.65800646E+02</pdfrwt>
<pdfrwt beam="2">  1       21 0.76679854E-01 0.65800646E+02</pdfrwt>
<totfact> 0.31447179E+06</totfact>
</mgrwt>
</event>
<event>
 5    1  0.1590180E+000  0.6575084E+02  0.7546771E-02  0.1375169E+00
         21   -1    0    0  501  502  0.00000000000E+00  0.00000000000E+00  0.23033991927E+02  0.23033991927E+02  0.00000000000E+00 0.  1.
         21   -1    0    0  502  503 -0.00000000000E+00 -0.00000000000E+00 -0.38164089191E+03  0.38164089191E+03  0.00000000000E+00 0. -1.
         24    1    1    2    0    0  0.40965443482E+02  0.37057185659E+01 -0.23448011363E+03  0.25127681857E+03  0.80419002446E+02 0. -1.
          1    1    1    2  501    0 -0.20106875002E+02 -0.89531821407E+00  0.64506690120E+01  0.21135258403E+02  0.00000000000E+00 0. -1.
         -2    1    1    2    0  503 -0.20858568480E+02 -0.28104003518E+01 -0.13057745537E+03  0.13226280686E+03  0.00000000000E+00 0.  1.
<mgrwt>
<rscale>  2 0.65750835E+02</rscale>
<asrwt>0</asrwt>
<pdfrwt beam="1">  1       21 0.35436912E-02 0.65750835E+02</pdfrwt>
<pdfrwt beam="2">  1       21 0.58713981E-01 0.65750835E+02</pdfrwt>
<totfact> 0.12838184E+06</totfact>
</mgrwt>
</event>
<event>
 5    1  0.1590180E+000  0.9319698E+02  0.7546771E-02  0.1295289E+00
         21   -1    0    0  501  502  0.00000000000E+00  0.00000000000E+00  0.73963192875E+02  0.73963192875E+02  0.00000000000E+00 0.  1.
         21   -1    0    0  502  503 -0.00000000000E+00 -0.00000000000E+00 -0.19324563876E+03  0.19324563876E+03  0.00000000000E+00 0.  1.
         24    1    1    2    0    0 -0.31899447391E+02 -0.58175654527E+02 -0.31038511071E+02  0.10877769370E+03  0.80419002446E+02 0.  1.
          1    1    1    2  501    0 -0.12923481305E+02  0.16263647124E+02  0.23241959644E+02  0.31172283762E+02  0.00000000000E+00 0. -1.
         -2    1    1    2    0  503  0.44822928696E+02  0.41912007403E+02 -0.11148589445E+03  0.12725885417E+03  0.00000000000E+00 0.  1.
<mgrwt>
<rscale>  2 0.93196978E+02</rscale>
<asrwt>0</asrwt>
<pdfrwt beam="1">  1       21 0.11378953E-01 0.93196978E+02</pdfrwt>
<pdfrwt beam="2">  1       21 0.29730098E-01 0.93196978E+02</pdfrwt>
<totfact> 0.70233268E+05</totfact>
</mgrwt>
</event>
<event>
 5    1  0.1590180E+000  0.7900805E+02  0.7546771E-02  0.1331890E+00
         21   -1    0    0  503  502  0.00000000000E+00  0.00000000000E+00  0.16474679115E+03  0.16474679115E+03  0.00000000000E+00 0. -1.
         21   -1    0    0  501  503 -0.00000000000E+00 -0.00000000000E+00 -0.10097934811E+03  0.10097934811E+03  0.00000000000E+00 0. -1.
         24    1    1    2    0    0 -0.57183018949E+02  0.98613463008E+01  0.12215983553E+03  0.15734479711E+03  0.80419002446E+02 0. -1.
          1    1    1    2  501    0  0.27483225054E+02 -0.97084096262E+01 -0.70515551557E+02  0.76302187965E+02  0.00000000000E+00 0. -1.
         -2    1    1    2    0  502  0.29699793896E+02 -0.15293667460E+00  0.12123159067E+02  0.32079154179E+02  0.00000000000E+00 0.  1.
<mgrwt>
<rscale>  2 0.79008049E+02</rscale>
<asrwt>0</asrwt>
<pdfrwt beam="1">  1       21 0.25345660E-01 0.79008049E+02</pdfrwt>
<pdfrwt beam="2">  1       21 0.15535284E-01 0.79008049E+02</pdfrwt>
<totfact> 0.54703950E+05</totfact>
</mgrwt>
</event>
<event>
 5    1  0.1590180E+000  0.1148717E+03  0.7546771E-02  0.1251805E+00
         21   -1    0    0  501  502  0.00000000000E+00  0.00000000000E+00  0.10217128600E+04  0.10217128600E+04  0.00000000000E+00 0.  1.
         21   -1    0    0  502  503 -0.00000000000E+00 -0.00000000000E+00 -0.31488153319E+02  0.31488153319E+02  0.00000000000E+00 0. -1.
         24    1    1    2    0    0 -0.16127159119E+02  0.74939310248E+02  0.30824882276E+03  0.32765917989E+03  0.80419002446E+02 0.  1.
          1    1    1    2  501    0  0.33692974260E+02 -0.89624106295E+02  0.69338262331E+03  0.69996225559E+03  0.00000000000E+00 0. -1.
         -2    1    1    2    0  503 -0.17565815142E+02  0.14684796047E+02 -0.11406739417E+02  0.25579577805E+02  0.00000000000E+00 0.  1.
<mgrwt>
<rscale>  2 0.11487175E+03</rscale>
<asrwt>0</asrwt>
<pdfrwt beam="1">  1       21 0.15718657E+00 0.11487175E+03</pdfrwt>
<pdfrwt beam="2">  1       21 0.48443321E-02 0.11487175E+03</pdfrwt>
<totfact> 0.78317400E+04</totfact>
</mgrwt>
</event>
<event>
 5    1  0.1590180E+000  0.7484953E+02  0.7546771E-02  0.1344338E+00
         21   -1    0    0  503  502  0.00000000000E+00  0.00000000000E+00  0.32131425952E+03  0.32131425952E+03  0.00000000000E+00 0.  1.
         21   -1    0    0  501  503 -0.00000000000E+00 -0.00000000000E+00 -0.21404692483E+02  0.21404692483E+02  0.00000000000E+00 0. -1.
         24    1    1    2    0    0 -0.35665173499E+02 -0.32779354576E+02  0.11546107541E+03  0.14881184959E+03  0.80419002446E+02 0. -1.
          1    1    1    2  501    0  0.62168285445E+01  0.24430011487E+02  0.49721518060E+02  0.55746782657E+02  0.00000000000E+00 0. -1.
         -2    1    1    2    0  502  0.29448344954E+02  0.83493430889E+01  0.13472697357E+03  0.13816031976E+03  0.00000000000E+00 0.  1.
<mgrwt>
<rscale>  2 0.74849527E+02</rscale>
<asrwt>0</asrwt>
<pdfrwt beam="1">  1       21 0.49432959E-01 0.74849527E+02</pdfrwt>
<pdfrwt beam="2">  1       21 0.32930299E-02 0.74849527E+02</pdfrwt>
<totfact> 0.20680434E+06</totfact>
</mgrwt>
</event>
<event>
 5    1  0.1590180E+000  0.1236202E+03  0.7546771E-02  0.1237242E+00
         21   -1    0    0  501  502  0.00000000000E+00  0.00000000000E+00  0.13773443496E+03  0.13773443496E+03  0.00000000000E+00 0.  1.
         21   -1    0    0  502  503 -0.00000000000E+00 -0.00000000000E+00 -0.11976172145E+03  0.11976172145E+03  0.00000000000E+00 0.  1.
         24    1    1    2    0    0  0.84252052129E+02 -0.54731378927E+02 -0.21487481270E+02  0.13047168249E+03  0.80419002446E+02 0.  1.
          1    1    1    2  501    0 -0.22121912669E+01  0.33813363667E+02  0.22506717365E+02  0.40679106175E+02  0.00000000000E+00 0. -1.
         -2    1    1    2    0  503 -0.82039860862E+02  0.20918015261E+02  0.16953477418E+02  0.86345367735E+02  0.00000000000E+00 0.  1.
<mgrwt>
<rscale>  2 0.12362021E+03</rscale>
<asrwt>0</asrwt>
<pdfrwt beam="1">  1       21 0.21189913E-01 0.12362021E+03</pdfrwt>
<pdfrwt beam="2">  1       21 0.18424880E-01 0.12362021E+03</pdfrwt>
<totfact> 0.56091483E+05</totfact>
</mgrwt>
</event>
<event>
 5    1  0.1590180E+000  0.9292435E+02  0.7546771E-02  0.1295921E+00
         21   -1    0    0  501  502  0.00000000000E+00  0.00000000000E+00  0.14746619773E+03  0.14746619773E+03  0.00000000000E+00 0. -1.
         21   -1    0    0  502  503 -0.00000000000E+00 -0.00000000000E+00 -0.15477464902E+03  0.15477464902E+03  0.00000000000E+00 0.  1.
         24    1    1    2    0    0 -0.45673167011E+02  0.15921351380E+02  0.26139071045E+02  0.97416603328E+02  0.80419002446E+02 0.  0.
          1    1    1    2  501    0 -0.62270267726E+00 -0.39874261857E+02  0.74751560399E+02  0.84723906303E+02  0.00000000000E+00 0. -1.
         -2    1    1    2    0  503  0.46295869688E+02  0.23952910477E+02 -0.10819908273E+03  0.12010033711E+03  0.00000000000E+00 0.  1.
<mgrwt>
<rscale>  2 0.92924350E+02</rscale>
<asrwt>0</asrwt>
<pdfrwt beam="1">  1       21 0.22687107E-01 0.92924350E+02</pdfrwt>
<pdfrwt beam="2">  1       21 0.23811484E-01 0.92924350E+02</pdfrwt>
<totfact> 0.30856476E+05</totfact>
</mgrwt>
</event>
<event>
 5    1  0.1590180E+000  0.6957318E+02  0.7546771E-02  0.1361551E+00
         21   -1    0    0  501  502  0.00000000000E+00  0.00000000000E+00  0.17055415587E+03  0.17055415587E+03  0.00000000000E+00 0. -1.
         21   -1    0    0  502  503 -0.00000000000E+00 -0.00000000000E+00 -0.61916580118E+02  0.61916580118E+02  0.00000000000E+00 0.  1.
         24    1    1    2    0    0  0.35299333964E+02 -0.17913163557E+02  0.29479353046E+02  0.94356624661E+02  0.80419002446E+02 0.  0.
          1    1    1    2  501    0 -0.25763817847E+02 -0.35687612823E+01  0.10204557515E+03  0.10530816576E+03  0.00000000000E+00 0. -1.
         -2    1    1    2    0  503 -0.95355161178E+01  0.21481924839E+02 -0.22887352449E+02  0.32805945567E+02  0.00000000000E+00 0.  1.
<mgrwt>
<rscale>  2 0.69573176E+02</rscale>
<asrwt>0</asrwt>
<pdfrwt beam="1">  1       21 0.26239101E-01 0.69573176E+02</pdfrwt>
<pdfrwt beam="2">  1       21 0.95256278E-02 0.69573176E+02</pdfrwt>
<totfact> 0.12022770E+06</totfact>
</mgrwt>
</event>
<event>
 5    1  0.1590180E+000  0.1588833E+03  0.7546771E-02  0.1189963E+00
         21   -1    0    0  501  502  0.00000000000E+00  0.00000000000E+00  0.11738927760E+04  0.11738927760E+04  0.00000000000E+00 0. -1.
         21   -1    0    0  502  503 -0.00000000000E+00 -0.00000000000E+00 -0.61587598804E+02  0.61587598804E+02  0.00000000000E+00 0.  1.
         24    1    1    2    0    0 -0.10936539015E+03  0.31120071191E+02  0.31077066718E+03  0.34055083458E+03  0.80419002446E+02 0. -1.
          1    1    1    2  501    0  0.14255779385E+03 -0.26036140470E+02  0.83502340974E+03  0.84750498524E+03  0.00000000000E+00 0. -1.
         -2    1    1    2    0  503 -0.33192403698E+02 -0.50839307213E+01 -0.33488899701E+02  0.47424555012E+02  0.00000000000E+00 0.  1.
<mgrwt>
<rscale>  2 0.15888326E+03</rscale>
<asrwt>0</asrwt>
<pdfrwt beam="1">  1       21 0.18059887E+00 0.15888326E+03</pdfrwt>
<pdfrwt beam="2">  1       21 0.94750160E-02 0.15888326E+03</pdfrwt>
<totfact> 0.16523523E+04</totfact>
</mgrwt>
</event>
<event>
 5    1  0.1590180E+000  0.7294380E+02  0.7546771E-02  0.1350359E+00
         21   -1    0    0  501  502  0.00000000000E+00  0.00000000000E+00  0.19092166524E+03  0.19092166524E+03  0.00000000000E+00 0. -1.
         21   -1    0    0  502  503 -0.00000000000E+00 -0.00000000000E+00 -0.97060878877E+02  0.97060878877E+02  0.00000000000E+00 0.  1.
         24    1    1    2    0    0  0.11954481520E+02  0.49091618356E+02  0.42473213573E+02  0.10403886988E+03  0.80419002446E+02 0.  1.
          1    1    1    2  501    0 -0.22879905536E+01 -0.22558048121E+02  0.11348434369E+03  0.11572725132E+03  0.00000000000E+00 0. -1.
         -2    1    1    2    0  503 -0.96664909668E+01 -0.26533570235E+02 -0.62096770905E+02  0.68216422905E+02  0.00000000000E+00 0.  1.
<mgrwt>
<rscale>  2 0.72943796E+02</rscale>
<asrwt>0</asrwt>
<pdfrwt beam="1">  1       21 0.29372564E-01 0.72943796E+02</pdfrwt>
<pdfrwt beam="2">  1       21 0.14932443E-01 0.72943796E+02</pdfrwt>
<totfact> 0.44472474E+05</totfact>
</mgrwt>
</event>
<event>
 5    1  0.1590180E+000  0.7160405E+02  0.7546771E-02  0.1354722E+00
         21   -1    0    0  501  502  0.00000000000E+00  0.00000000000E+00  0.38684968180E+02  0.38684968180E+02  0.00000000000E+00 0. -1.
         21   -1    0    0  502  503 -0.00000000000E+00 -0.00000000000E+00 -0.25465202945E+03  0.25465202945E+03  0.00000000000E+00 0.  1.
         24    1    1    2    0    0  0.39019974688E+01 -0.16941478797E+02 -0.11393060146E+03  0.14053340241E+03  0.80419002446E+02 0.  0.
          1    1    1    2  501    0 -0.31198588019E+02  0.80048831042E+01  0.12628270801E+02  0.34596289849E+02  0.00000000000E+00 0. -1.
         -2    1    1    2    0  503  0.27296590550E+02  0.89365956925E+01 -0.11466473060E+03  0.11820730537E+03  0.00000000000E+00 0.  1.
<mgrwt>
<rscale>  2 0.71604046E+02</rscale>
<asrwt>0</asrwt>
<pdfrwt beam="1">  1       21 0.59515337E-02 0.71604046E+02</pdfrwt>
<pdfrwt beam="2">  1       21 0.39177234E-01 0.71604046E+02</pdfrwt>
<totfact> 0.12390905E+06</totfact>
</mgrwt>
</event>
<event>
 5    1  0.1590180E+000  0.7540721E+02  0.7546771E-02  0.1342615E+00
         21   -1    0    0  501  502  0.00000000000E+00  0.00000000000E+00  0.24058115135E+02  0.24058115135E+02  0.00000000000E+00 0. -1.
         21   -1    0    0  502  503 -0.00000000000E+00 -0.00000000000E+00 -0.59814244499E+03  0.59814244499E+03  0.00000000000E+00 0. -1.
         24    1    1    2    0    0  0.16238850142E+02 -0.90905865692E+01 -0.33727208776E+03  0.34722617436E+03  0.80419002446E+02 0. -1.
          1    1    1    2  501    0  0.84338513023E+01 -0.24888276457E+02  0.73026019200E+01  0.27274239634E+02  0.00000000000E+00 0. -1.
         -2    1    1    2    0  503 -0.24672701444E+02  0.33978863026E+02 -0.24411484401E+03  0.24770014614E+03  0.00000000000E+00 0.  1.
<mgrwt>
<rscale>  2 0.75407213E+02</rscale>
<asrwt>0</asrwt>
<pdfrwt beam="1">  1       21 0.37012485E-02 0.75407213E+02</pdfrwt>
<pdfrwt beam="2">  1       21 0.92021914E-01 0.75407213E+02</pdfrwt>
<totfact> 0.45398588E+05</totfact>
</mgrwt>
</event>
<event>
 5    1  0.1590180E+000  0.8847719E+02  0.7546771E-02  0.1306582E+00
         21   -1    0    0  503  502  0.00000000000E+00  0.00000000000E+00  0.17310100965E+03  0.17310100965E+03  0.00000000000E+00 0. -1.
         21   -1    0    0  501  503 -0.00000000000E+00 -0.00000000000E+00 -0.61127190544E+02  0.61127190544E+02  0.00000000000E+00 0.  1.
         24    1    1    2    0    0  0.17581816403E+02  0.28907896267E+02  0.10264750592E+03  0.13471641756E+03  0.80419002446E+02 0.  0.
          1    1    1    2  501    0 -0.15450273200E+02  0.28415661428E+02 -0.16836385835E+02  0.36464018489E+02  0.00000000000E+00 0. -1.
         -2    1    1    2    0  502 -0.21315432035E+01 -0.57323557695E+02  0.26162699015E+02  0.63047764140E+02  0.00000000000E+00 0.  1.
<mgrwt>
<rscale>  2 0.88477187E+02</rscale>
<asrwt>0</asrwt>
<pdfrwt beam="1">  1       21 0.26630924E-01 0.88477187E+02</pdfrwt>
<pdfrwt beam="2">  1       21 0.94041832E-02 0.88477187E+02</pdfrwt>
<totfact> 0.12039851E+06</totfact>
</mgrwt>
</event>
<event>
 5    1  0.1590180E+000  0.1713839E+03  0.7546771E-02  0.1176412E+00
         21   -1    0    0  503  502  0.00000000000E+00  0.00000000000E+00  0.14955247058E+03  0.14955247058E+03  0.00000000000E+00 0.  1.
         21   -1    0    0  501  503 -0.00000000000E+00 -0.00000000000E+00 -0.67951219576E+03  0.67951219576E+03  0.00000000000E+00 0.  1.
         24    1    1    2    0    0  0.11334074678E+03 -0.65484025648E+02 -0.57883698317E+03  0.59887707548E+03  0.80419002446E+02 0.  1.
          1    1    1    2  501    0  0.30527860242E+02  0.25611432684E+02 -0.39984910787E+02  0.56450764616E+02  0.00000000000E+00 0. -1.
         -2    1    1    2    0  502 -0.14386860702E+03  0.39872592964E+02  0.88862168770E+02  0.17373682624E+03  0.00000000000E+00 0.  1.
<mgrwt>
<rscale>  2 0.17138393E+03</rscale>
<asrwt>0</asrwt>
<pdfrwt beam="1">  1       21 0.23008072E-01 0.17138393E+03</pdfrwt>
<pdfrwt beam="2">  1       21 0.10454034E+00 0.17138393E+03</pdfrwt>
<totfact> 0.13289803E+04</totfact>
</mgrwt>
</event>
<event>
 5    1  0.1590180E+000  0.1172464E+03  0.7546771E-02  0.1247710E+00
         21   -1    0    0  503  502  0.00000000000E+00  0.00000000000E+00  0.81824244934E+03  0.81824244934E+03  0.00000000000E+00 0.  1.
         21   -1    0    0  501  503 -0.00000000000E+00 -0.00000000000E+00 -0.19654136897E+02  0.19654136897E+02  0.00000000000E+00 0.  1.
         24    1    1    2    0    0  0.64722720065E+02 -0.54481960946E+02  0.35582147995E+03  0.37447757758E+03  0.80419002446E+02 0.  1.
          1    1    1    2  501    0 -0.11726956776E+02 -0.21876568731E+02  0.24235263944E+02  0.34690831543E+02  0.00000000000E+00 0. -1.
         -2    1    1    2    0  502 -0.52995763290E+02  0.76358529678E+02  0.41853156854E+03  0.42872817711E+03  0.00000000000E+00 0.  1.
<mgrwt>
<rscale>  2 0.11724641E+03</rscale>
<asrwt>0</asrwt>
<pdfrwt beam="1">  1       21 0.12588343E+00 0.11724641E+03</pdfrwt>
<pdfrwt beam="2">  1       21 0.30237140E-02 0.11724641E+03</pdfrwt>
<totfact> 0.29938244E+05</totfact>
</mgrwt>
</event>
<event>
 5    1  0.1590180E+000  0.9946324E+02  0.7546771E-02  0.1281429E+00
         21   -1    0    0  501  502  0.00000000000E+00  0.00000000000E+00  0.33037957718E+03  0.33037957718E+03  0.00000000000E+00 0. -1.
         21   -1    0    0  502  503 -0.00000000000E+00 -0.00000000000E+00 -0.51590774652E+02  0.51590774652E+02  0.00000000000E+00 0. -1.
         24    1    1    2    0    0  0.48551611987E+01 -0.24426952161E+02  0.10543698692E+02  0.84844764828E+02  0.80419002446E+02 0. -1.
          1    1    1    2  501    0  0.15878944684E+02  0.66213869244E+02  0.21879264343E+03  0.22914326999E+03  0.00000000000E+00 0. -1.
         -2    1    1    2    0  503 -0.20734105883E+02 -0.41786917083E+02  0.49452460411E+02  0.67982317015E+02  0.00000000000E+00 0.  1.
<mgrwt>
<rscale>  2 0.99463235E+02</rscale>
<asrwt>0</asrwt>
<pdfrwt beam="1">  1       21 0.50827626E-01 0.99463235E+02</pdfrwt>
<pdfrwt beam="2">  1       21 0.79370425E-02 0.99463235E+02</pdfrwt>
<totfact> 0.45367179E+05</totfact>
</mgrwt>
</event>
<event>
 5    1  0.1590180E+000  0.8638231E+02  0.7546771E-02  0.1311857E+00
         21   -1    0    0  503  502  0.00000000000E+00  0.00000000000E+00  0.35939805960E+02  0.35939805960E+02  0.00000000000E+00 0.  1.
         21   -1    0    0  501  503 -0.00000000000E+00 -0.00000000000E+00 -0.30188085010E+03  0.30188085010E+03  0.00000000000E+00 0.  1.
         24    1    1    2    0    0  0.35327480446E+02  0.57376265380E+02 -0.12593223339E+03  0.16390915187E+03  0.80419002446E+02 0.  1.
          1    1    1    2  501    0 -0.73114369627E+01 -0.18808643615E+02 -0.12087114594E+03  0.12254409862E+03  0.00000000000E+00 0. -1.
         -2    1    1    2    0  502 -0.28016043484E+02 -0.38567621764E+02 -0.19137664801E+02  0.51367405571E+02  0.00000000000E+00 0.  1.
<mgrwt>
<rscale>  2 0.86382312E+02</rscale>
<asrwt>0</asrwt>
<pdfrwt beam="1">  1       21 0.55292013E-02 0.86382312E+02</pdfrwt>
<pdfrwt beam="2">  1       21 0.46443205E-01 0.86382312E+02</pdfrwt>
<totfact> 0.10037284E+06</totfact>
</mgrwt>
</event>
<event>
 5    1  0.1590180E+000  0.1519407E+03  0.7546771E-02  0.1198108E+00
         21   -1    0    0  501  502  0.00000000000E+00  0.00000000000E+00  0.69968736933E+03  0.69968736933E+03  0.00000000000E+00 0.  1.
         21   -1    0    0  502  503 -0.00000000000E+00 -0.00000000000E+00 -0.37071063953E+02  0.37071063953E+02  0.00000000000E+00 0.  1.
         24    1    1    2    0    0  0.82848148767E+02 -0.81368246333E+02  0.42520243232E+03  0.44805014415E+03  0.80419002446E+02 0.  1.
          1    1    1    2  501    0 -0.12730371819E+02 -0.29114398720E+02  0.31566254995E+02  0.44789943446E+02  0.00000000000E+00 0. -1.
         -2    1    1    2    0  503 -0.70117776948E+02  0.11048264505E+03  0.20584761807E+03  0.24391834569E+03  0.00000000000E+00 0.  1.
<mgrwt>
<rscale>  2 0.15194072E+03</rscale>
<asrwt>0</asrwt>
<pdfrwt beam="1">  1       21 0.10764420E+00 0.15194072E+03</pdfrwt>
<pdfrwt beam="2">  1       21 0.57032411E-02 0.15194072E+03</pdfrwt>
<totfact> 0.15026264E+05</totfact>
</mgrwt>
</event>
<event>
 5    1  0.1590180E+000  0.9838734E+02  0.7546771E-02  0.1283724E+00
         21   -1    0    0  501  502  0.00000000000E+00  0.00000000000E+00  0.85362629895E+02  0.85362629895E+02  0.00000000000E+00 0.  1.
         21   -1    0    0  502  503 -0.00000000000E+00 -0.00000000000E+00 -0.29804403331E+03  0.29804403331E+03  0.00000000000E+00 0.  1.
         24    1    1    2    0    0 -0.49869737850E+02 -0.63692324487E+02  0.33482528295E+02  0.11887808296E+03  0.80419002446E+02 0.  1.
          1    1    1    2  501    0  0.41422997453E+02  0.40110643745E+02 -0.93695630300E+02  0.11001636059E+03  0.00000000000E+00 0. -1.
         -2    1    1    2    0  503  0.84467403973E+01  0.23581680742E+02 -0.15246830141E+03  0.15451221966E+03  0.00000000000E+00 0.  1.
<mgrwt>
<rscale>  2 0.98387344E+02</rscale>
<asrwt>0</asrwt>
<pdfrwt beam="1">  1       21 0.13132712E-01 0.98387344E+02</pdfrwt>
<pdfrwt beam="2">  1       21 0.45852929E-01 0.98387344E+02</pdfrwt>
<totfact> 0.23302991E+05</totfact>
</mgrwt>
</event>
<event>
 5    1  0.1590180E+000  0.6638491E+02  0.7546771E-02  0.1372836E+00
         21   -1    0    0  503  502  0.00000000000E+00  0.00000000000E+00  0.52505036194E+01  0.52505036194E+01  0.00000000000E+00 0. -1.
         21   -1    0    0  501  503 -0.00000000000E+00 -0.00000000000E+00 -0.88086081187E+03  0.88086081187E+03  0.00000000000E+00 0.  1.
         24    1    1    2    0    0  0.36041521796E+01  0.90139319078E+01 -0.58448669323E+03  0.59007300515E+03  0.80419002446E+02 0.  0.
          1    1    1    2  501    0  0.26532934074E+00  0.21252529207E+02 -0.16033207939E+03  0.16173470895E+03  0.00000000000E+00 0. -1.
         -2    1    1    2    0  502 -0.38694815204E+01 -0.30266461114E+02 -0.13079153563E+03  0.13430360139E+03  0.00000000000E+00 0.  1.
<mgrwt>
<rscale>  2 0.66384908E+02</rscale>
<asrwt>0</asrwt>
<pdfrwt beam="1">  1       21 0.80777007E-03 0.66384908E+02</pdfrwt>
<pdfrwt beam="2">  1       21 0.13551700E+00 0.66384908E+02</pdfrwt>
<totfact> 0.20335314E+06</totfact>
</mgrwt>
</event>
<event>
 5    1  0.1590180E+000  0.7611458E+02  0.7546771E-02  0.1340454E+00
         21   -1    0    0  503  502  0.00000000000E+00  0.00000000000E+00  0.67498202018E+02  0.67498202018E+02  0.00000000000E+00 0. -1.
         21   -1    0    0  501  503 -0.00000000000E+00 -0.00000000000E+00 -0.11938777415E+03  0.11938777415E+03  0.00000000000E+00 0.  1.
         24    1    1    2    0    0 -0.36402643072E+02  0.65015232718E+01  0.12353145186E+02  0.89371350990E+02  0.80419002446E+02 0. -1.
          1    1    1    2  501    0  0.37398368613E+01  0.20807267822E+02 -0.47083409985E+02  0.51611784215E+02  0.00000000000E+00 0. -1.
         -2    1    1    2    0  502  0.32662806211E+02 -0.27308791094E+02 -0.17159307336E+02  0.45902840967E+02  0.00000000000E+00 0.  1.
<mgrwt>
<rscale>  2 0.76114581E+02</rscale>
<asrwt>0</asrwt>
<pdfrwt beam="1">  1       21 0.10384339E-01 0.76114581E+02</pdfrwt>
<pdfrwt beam="2">  1       21 0.18367350E-01 0.76114581E+02</pdfrwt>
<totfact> 0.20019381E+06</totfact>
</mgrwt>
</event>
<event>
 5    1  0.1688708E+000  0.8690068E+02  0.7546771E-02  0.1310536E+00
         21   -1    0    0  501  502  0.00000000000E+00  0.00000000000E+00  0.82916261510E+02  0.82916261510E+02  0.00000000000E+00 0.  1.
         21   -1    0    0  502  503 -0.00000000000E+00 -0.00000000000E+00 -0.18367730495E+03  0.18367730495E+03  0.00000000000E+00 0. -1.
         24    1    1    2    0    0  0.24825496228E+02  0.57481425818E+02  0.37791301204E+02  0.10870058867E+03  0.80419002446E+02 0.  1.
          1    1    1    2  501    0  0.82311577027E+01 -0.21493706115E+02 -0.23500527518E+02  0.32893861940E+02  0.00000000000E+00 0. -1.
         -2    1    1    2    0  503 -0.33056653931E+02 -0.35987719702E+02 -0.11505181712E+03  0.12499911585E+03  0.00000000000E+00 0.  1.
<mgrwt>
<rscale>  2 0.86900681E+02</rscale>
<asrwt>0</asrwt>
<pdfrwt beam="1">  1       21 0.12756348E-01 0.86900681E+02</pdfrwt>
<pdfrwt beam="2">  1       21 0.28258047E-01 0.86900681E+02</pdfrwt>
<totfact> 0.63263912E+05</totfact>
</mgrwt>
</event>
<event>
 5    1  0.1590180E+000  0.6601425E+02  0.7546771E-02  0.1374196E+00
         21   -1    0    0  503  502  0.00000000000E+00  0.00000000000E+00  0.39724862018E+02  0.39724862018E+02  0.00000000000E+00 0.  1.
         21   -1    0    0  501  503 -0.00000000000E+00 -0.00000000000E+00 -0.11320592297E+03  0.11320592297E+03  0.00000000000E+00 0. -1.
         24    1    1    2    0    0 -0.44796666487E+00  0.86502744360E+00 -0.43329243389E+02  0.91354191112E+02  0.80419002446E+02 0.  1.
          1    1    1    2  501    0 -0.24765673112E+02  0.59798238609E+01 -0.23398362479E+02  0.34591620731E+02  0.00000000000E+00 0. -1.
         -2    1    1    2    0  502  0.25213639777E+02 -0.68448513045E+01 -0.67534550851E+01  0.26984973147E+02  0.00000000000E+00 0.  1.
<mgrwt>
<rscale>  2 0.66014253E+02</rscale>
<asrwt>0</asrwt>
<pdfrwt beam="1">  1       21 0.61115172E-02 0.66014253E+02</pdfrwt>
<pdfrwt beam="2">  1       21 0.17416296E-01 0.66014253E+02</pdfrwt>
<totfact> 0.53654908E+06</totfact>
</mgrwt>
</event>
<event>
 5    1  0.1613603E+000  0.6878608E+02  0.7546771E-02  0.1364270E+00
         21   -1    0    0  501  502  0.00000000000E+00  0.00000000000E+00  0.68945744639E+03  0.68945744639E+03  0.00000000000E+00 0. -1.
         21   -1    0    0  502  503 -0.00000000000E+00 -0.00000000000E+00 -0.52925769022E+02  0.52925769022E+02  0.00000000000E+00 0.  1.
         24    1    1    2    0    0  0.34955024366E+00 -0.25998338153E+02  0.44360683514E+03  0.45158639916E+03  0.80419002446E+02 0.  0.
          1    1    1    2  501    0 -0.22286490483E+02  0.53309272846E+01  0.23661360948E+03  0.23772064832E+03  0.00000000000E+00 0. -1.
         -2    1    1    2    0  503  0.21936940239E+02  0.20667410869E+02 -0.43688767249E+02  0.53076167936E+02  0.00000000000E+00 0.  1.
<mgrwt>
<rscale>  2 0.68786079E+02</rscale>
<asrwt>0</asrwt>
<pdfrwt beam="1">  1       21 0.10607037E+00 0.68786079E+02</pdfrwt>
<pdfrwt beam="2">  1       21 0.81424265E-02 0.68786079E+02</pdfrwt>
<totfact> 0.88629694E+04</totfact>
</mgrwt>
</event>
<event>
 5    1  0.1590180E+000  0.9866094E+02  0.7546771E-02  0.1283137E+00
         21   -1    0    0  501  502  0.00000000000E+00  0.00000000000E+00  0.25851050758E+02  0.25851050758E+02  0.00000000000E+00 0. -1.
         21   -1    0    0  502  503 -0.00000000000E+00 -0.00000000000E+00 -0.65152867941E+03  0.65152867941E+03  0.00000000000E+00 0.  1.
         24    1    1    2    0    0 -0.30177265369E+02  0.32418456241E+02 -0.24433422491E+03  0.26101351128E+03  0.80419002446E+02 0.  1.
          1    1    1    2  501    0  0.10120653303E+02  0.34343450490E+02 -0.81519313398E+01  0.36719942802E+02  0.00000000000E+00 0. -1.
         -2    1    1    2    0  503  0.20056612067E+02 -0.66761906731E+02 -0.37319147239E+03  0.37964627609E+03  0.00000000000E+00 0.  1.
<mgrwt>
<rscale>  2 0.98660943E+02</rscale>
<asrwt>0</asrwt>
<pdfrwt beam="1">  1       21 0.39770853E-02 0.98660943E+02</pdfrwt>
<pdfrwt beam="2">  1       21 0.10023517E+00 0.98660943E+02</pdfrwt>
<totfact> 0.33048037E+05</totfact>
</mgrwt>
</event>
<event>
 5    1  0.1590180E+000  0.1772574E+03  0.7546771E-02  0.1170484E+00
         21   -1    0    0  501  502  0.00000000000E+00  0.00000000000E+00  0.31176864342E+03  0.31176864342E+03  0.00000000000E+00 0. -1.
         21   -1    0    0  502  503 -0.00000000000E+00 -0.00000000000E+00 -0.28025758531E+03  0.28025758531E+03  0.00000000000E+00 0.  1.
         24    1    1    2    0    0 -0.11221221570E+03  0.47543048497E+02 -0.19715527006E+03  0.24533515704E+03  0.80419002446E+02 0.  1.
          1    1    1    2  501    0 -0.37729605883E+02  0.21504796363E+02  0.16358080922E+03  0.16924733550E+03  0.00000000000E+00 0. -1.
         -2    1    1    2    0  503  0.14994182158E+03 -0.69047844860E+02  0.65085518944E+02  0.17744373620E+03  0.00000000000E+00 0.  1.
<mgrwt>
<rscale>  2 0.17725741E+03</rscale>
<asrwt>0</asrwt>
<pdfrwt beam="1">  1       21 0.47964406E-01 0.17725741E+03</pdfrwt>
<pdfrwt beam="2">  1       21 0.43116552E-01 0.17725741E+03</pdfrwt>
<totfact> 0.21682250E+04</totfact>
</mgrwt>
</event>
<event>
 5    1  0.1590180E+000  0.9322843E+02  0.7546771E-02  0.1295217E+00
         21   -1    0    0  503  502  0.00000000000E+00  0.00000000000E+00  0.17070663423E+04  0.17070663423E+04  0.00000000000E+00 0.  1.
         21   -1    0    0  501  503 -0.00000000000E+00 -0.00000000000E+00 -0.15625989002E+02  0.15625989002E+02  0.00000000000E+00 0. -1.
         24    1    1    2    0    0 -0.86501795742E+01 -0.11357021019E+02  0.29851293267E+03  0.30948504723E+03  0.80419002446E+02 0.  0.
          1    1    1    2  501    0  0.51905163418E+02  0.27342160272E+02  0.78645127545E+02  0.98116236191E+02  0.00000000000E+00 0. -1.
         -2    1    1    2    0  502 -0.43254983844E+02 -0.15985139254E+02  0.13142822931E+04  0.13150910479E+04  0.00000000000E+00 0.  1.
<mgrwt>
<rscale>  2 0.93228432E+02</rscale>
<asrwt>0</asrwt>
<pdfrwt beam="1">  1       21 0.26262544E+00 0.93228432E+02</pdfrwt>
<pdfrwt beam="2">  1       21 0.24039997E-02 0.93228432E+02</pdfrwt>
<totfact> 0.56553865E+04</totfact>
</mgrwt>
</event>
<event>
 5    1  0.1590180E+000  0.1046673E+03  0.7546771E-02  0.1270777E+00
         21   -1    0    0  503  502  0.00000000000E+00  0.00000000000E+00  0.13061531046E+03  0.13061531046E+03  0.00000000000E+00 0.  1.
         21   -1    0    0  501  503 -0.00000000000E+00 -0.00000000000E+00 -0.96792209243E+02  0.96792209243E+02  0.00000000000E+00 0. -1.
         24    1    1    2    0    0  0.21728943148E+02 -0.20494760447E+00  0.25101952073E+02  0.87002947801E+02  0.80419002446E+02 0. -1.
          1    1    1    2  501    0 -0.70238723083E+02  0.20913912447E+02 -0.25425049742E+02  0.77571277601E+02  0.00000000000E+00 0. -1.
         -2    1    1    2    0  502  0.48509779936E+02 -0.20708964843E+02  0.34146198884E+02  0.62833294299E+02  0.00000000000E+00 0.  1.
<mgrwt>
<rscale>  2 0.10466727E+03</rscale>
<asrwt>0</asrwt>
<pdfrwt beam="1">  1       21 0.20094663E-01 0.10466727E+03</pdfrwt>
<pdfrwt beam="2">  1       21 0.14891109E-01 0.10466727E+03</pdfrwt>
<totfact> 0.90947901E+05</totfact>
</mgrwt>
</event>
<event>
 5    1  0.1590180E+000  0.1375505E+03  0.7546771E-02  0.1216664E+00
         21   -1    0    0  501  502  0.00000000000E+00  0.00000000000E+00  0.22995117194E+03  0.22995117194E+03  0.00000000000E+00 0. -1.
         21   -1    0    0  502  503 -0.00000000000E+00 -0.00000000000E+00 -0.42179889349E+03  0.42179889349E+03  0.00000000000E+00 0.  1.
         24    1    1    2    0    0 -0.38458188562E+02 -0.11976015978E+03 -0.21728687514E+03  0.26363294597E+03  0.80419002446E+02 0.  1.
          1    1    1    2  501    0  0.87842010911E+01  0.30789859177E+02  0.19324529618E+03  0.19587986653E+03  0.00000000000E+00 0. -1.
         -2    1    1    2    0  503  0.29673987470E+02  0.88970300605E+02 -0.16780614259E+03  0.19223725293E+03  0.00000000000E+00 0.  1.
<mgrwt>
<rscale>  2 0.13755046E+03</rscale>
<asrwt>0</asrwt>
<pdfrwt beam="1">  1       21 0.35377104E-01 0.13755046E+03</pdfrwt>
<pdfrwt beam="2">  1       21 0.64892136E-01 0.13755046E+03</pdfrwt>
<totfact> 0.17478474E+04</totfact>
</mgrwt>
</event>
<event>
 5    1  0.1590180E+000  0.8363646E+02  0.7546771E-02  0.1319037E+00
         21   -1    0    0  501  502  0.00000000000E+00  0.00000000000E+00  0.57585278133E+02  0.57585278133E+02  0.00000000000E+00 0. -1.
         21   -1    0    0  502  503 -0.00000000000E+00 -0.00000000000E+00 -0.26694918626E+03  0.26694918626E+03  0.00000000000E+00 0.  1.
         24    1    1    2    0    0 -0.26817070893E+02 -0.32878418635E+02 -0.57580367144E+02  0.10762369785E+03  0.80419002446E+02 0.  1.
          1    1    1    2  501    0  0.19220678774E+02 -0.17141802427E+02  0.23259450768E+02  0.34702707863E+02  0.00000000000E+00 0. -1.
         -2    1    1    2    0  503  0.75963921194E+01  0.50020221062E+02 -0.17504299175E+03  0.18220805869E+03  0.00000000000E+00 0.  1.
<mgrwt>
<rscale>  2 0.83636464E+02</rscale>
<asrwt>0</asrwt>
<pdfrwt beam="1">  1       21 0.88592736E-02 0.83636464E+02</pdfrwt>
<pdfrwt beam="2">  1       21 0.41069106E-01 0.83636464E+02</pdfrwt>
<totfact> 0.57778552E+05</totfact>
</mgrwt>
</event>
<event>
 5    1  0.1590180E+000  0.6793249E+02  0.7546771E-02  0.1367268E+00
         21   -1    0    0  503  502  0.00000000000E+00  0.00000000000E+00  0.70789001475E+02  0.70789001475E+02  0.00000000000E+00 0.  1.
         21   -1    0    0  501  503 -0.00000000000E+00 -0.00000000000E+00 -0.86040416122E+02  0.86040416122E+02  0.00000000000E+00 0.  1.
         24    1    1    2    0    0  0.28692688875E+02  0.33134683109E+02 -0.18770915891E+02  0.93491929370E+02  0.80419002446E+02 0.  1.
          1    1    1    2  501    0 -0.15573041602E+02 -0.13212948096E+02 -0.20885349660E+02  0.29211289813E+02  0.00000000000E+00 0. -1.
         -2    1    1    2    0  502 -0.13119647273E+02 -0.19921735013E+02  0.24404850905E+02  0.34126198414E+02  0.00000000000E+00 0.  1.
<mgrwt>
<rscale>  2 0.67932487E+02</rscale>
<asrwt>0</asrwt>
<pdfrwt beam="1">  1       21 0.10890616E-01 0.67932487E+02</pdfrwt>
<pdfrwt beam="2">  1       21 0.13236987E-01 0.67932487E+02</pdfrwt>
<totfact> 0.32809319E+06</totfact>
</mgrwt>
</event>
<event>
 5    1  0.1590180E+000  0.7079928E+02  0.7546771E-02  0.1357396E+00
         21   -1    0    0  501  502  0.00000000000E+00  0.00000000000E+00  0.48318606313E+02  0.48318606313E+02  0.00000000000E+00 0. -1.
         21   -1    0    0  502  503 -0.00000000000E+00 -0.00000000000E+00 -0.32681903852E+03  0.32681903852E+03  0.00000000000E+00 0.  1.
         24    1    1    2    0    0  0.19750873219E+02  0.37538451701E+02 -0.29794977595E+02  0.95677526061E+02  0.80419002446E+02 0. -1.
          1    1    1    2  501    0 -0.18841281856E+02 -0.69586682421E+01  0.74960686791E+01  0.21438470359E+02  0.00000000000E+00 0. -1.
         -2    1    1    2    0  503 -0.90959136337E+00 -0.30579783458E+02 -0.25620152329E+03  0.25802164841E+03  0.00000000000E+00 0.  1.
<mgrwt>
<rscale>  2 0.70799281E+02</rscale>
<asrwt>0</asrwt>
<pdfrwt beam="1">  1       21 0.74336315E-02 0.70799281E+02</pdfrwt>
<pdfrwt beam="2">  1       21 0.50279853E-01 0.70799281E+02</pdfrwt>
<totfact> 0.51868246E+05</totfact>
</mgrwt>
</event>
<event>
 5    1  0.1590180E+000  0.1078789E+03  0.7546771E-02  0.1264549E+00
         21   -1    0    0  503  502  0.00000000000E+00  0.00000000000E+00  0.36090929322E+03  0.36090929322E+03  0.00000000000E+00 0. -1.
         21   -1    0    0  501  503 -0.00000000000E+00 -0.00000000000E+00 -0.89034369588E+02  0.89034369588E+02  0.00000000000E+00 0.  1.
         24    1    1    2    0    0  0.57449694288E+02 -0.72867205335E+02  0.17879281168E+03  0.21689670917E+03  0.80419002446E+02 0. -1.
          1    1    1    2  501    0 -0.15991817557E+02  0.24592859820E+02 -0.60262719005E+02  0.67023445784E+02  0.00000000000E+00 0. -1.
         -2    1    1    2    0  502 -0.41457876731E+02  0.48274345515E+02  0.15334483095E+03  0.16602350785E+03  0.00000000000E+00 0.  1.
<mgrwt>
<rscale>  2 0.10787893E+03</rscale>
<asrwt>0</asrwt>
<pdfrwt beam="1">  1       21 0.55524506E-01 0.10787893E+03</pdfrwt>
<pdfrwt beam="2">  1       21 0.13697595E-01 0.10787893E+03</pdfrwt>
<totfact> 0.14554087E+05</totfact>
</mgrwt>
</event>
<event>
 5    1  0.1590180E+000  0.7017807E+02  0.7546771E-02  0.1359489E+00
         21   -1    0    0  503  502  0.00000000000E+00  0.00000000000E+00  0.21654899578E+02  0.21654899578E+02  0.00000000000E+00 0.  1.
         21   -1    0    0  501  503 -0.00000000000E+00 -0.00000000000E+00 -0.47938403815E+03  0.47938403815E+03  0.00000000000E+00 0. -1.
         24    1    1    2    0    0 -0.14722380008E+02 -0.39222024036E+02 -0.10723521788E+03  0.14043405410E+03  0.80419002446E+02 0.  1.
          1    1    1    2  501    0 -0.50805326372E+01  0.24453085869E+02 -0.32169105052E+03  0.32265910371E+03  0.00000000000E+00 0. -1.
         -2    1    1    2    0  502  0.19802912646E+02  0.14768938167E+02 -0.28802870178E+02  0.37945779928E+02  0.00000000000E+00 0.  1.
<mgrwt>
<rscale>  2 0.70178074E+02</rscale>
<asrwt>0</asrwt>
<pdfrwt beam="1">  1       21 0.33315231E-02 0.70178074E+02</pdfrwt>
<pdfrwt beam="2">  1       21 0.73751388E-01 0.70178074E+02</pdfrwt>
<totfact> 0.87753653E+05</totfact>
</mgrwt>
</event>
<event>
 5    1  0.1590180E+000  0.1210318E+03  0.7546771E-02  0.1241405E+00
         21   -1    0    0  501  502  0.00000000000E+00  0.00000000000E+00  0.99749695666E+01  0.99749695666E+01  0.00000000000E+00 0.  1.
         21   -1    0    0  502  503 -0.00000000000E+00 -0.00000000000E+00 -0.19706775718E+04  0.19706775718E+04  0.00000000000E+00 0.  1.
         24    1    1    2    0    0 -0.98593641865E+02 -0.28574063175E+02 -0.74346469177E+03  0.75481398183E+03  0.80419002446E+02 0.  1.
          1    1    1    2  501    0  0.21207230875E+02 -0.11913845968E+02 -0.52842978923E+02  0.58172732346E+02  0.00000000000E+00 0. -1.
         -2    1    1    2    0  503  0.77386410991E+02  0.40487909143E+02 -0.11643949316E+04  0.11676658272E+04  0.00000000000E+00 0.  1.
<mgrwt>
<rscale>  2 0.12103176E+03</rscale>
<asrwt>0</asrwt>
<pdfrwt beam="1">  1       21 0.15346104E-02 0.12103176E+03</pdfrwt>
<pdfrwt beam="2">  1       21 0.30318123E+00 0.12103176E+03</pdfrwt>
<totfact> 0.66597936E+04</totfact>
</mgrwt>
</event>
<event>
 5    1  0.1590180E+000  0.7582816E+02  0.7546771E-02  0.1341326E+00
         21   -1    0    0  501  502  0.00000000000E+00  0.00000000000E+00  0.46104602264E+02  0.46104602264E+02  0.00000000000E+00 0. -1.
         21   -1    0    0  502  503 -0.00000000000E+00 -0.00000000000E+00 -0.29464891667E+03  0.29464891667E+03  0.00000000000E+00 0.  1.
         24    1    1    2    0    0 -0.29670511576E+02  0.15665915827E+02 -0.12354060611E+02  0.88009084439E+02  0.80419002446E+02 0. -1.
          1    1    1    2  501    0 -0.12766519991E+02 -0.17942194041E+02 -0.13058017769E+02  0.25601136454E+02  0.00000000000E+00 0. -1.
         -2    1    1    2    0  503  0.42437031566E+02  0.22762782134E+01 -0.22313223603E+03  0.22714329804E+03  0.00000000000E+00 0.  1.
<mgrwt>
<rscale>  2 0.75828155E+02</rscale>
<asrwt>0</asrwt>
<pdfrwt beam="1">  1       21 0.70930159E-02 0.75828155E+02</pdfrwt>
<pdfrwt beam="2">  1       21 0.45330602E-01 0.75828155E+02</pdfrwt>
<totfact> 0.69232926E+05</totfact>
</mgrwt>
</event>
<event>
 5    1  0.1590180E+000  0.9599615E+02  0.7546771E-02  0.1288948E+00
         21   -1    0    0  503  502  0.00000000000E+00  0.00000000000E+00  0.94297792414E+02  0.94297792414E+02  0.00000000000E+00 0. -1.
         21   -1    0    0  501  503 -0.00000000000E+00 -0.00000000000E+00 -0.12311182615E+03  0.12311182615E+03  0.00000000000E+00 0.  1.
         24    1    1    2    0    0 -0.10154336475E+02 -0.37577381066E+02 -0.44052100831E+02  0.99614123793E+02  0.80419002446E+02 0.  0.
          1    1    1    2  501    0  0.52131084426E+02  0.12005598476E+02 -0.20218726955E+02  0.57188996126E+02  0.00000000000E+00 0. -1.
         -2    1    1    2    0  502 -0.41976747951E+02  0.25571782591E+02  0.35456794052E+02  0.60606498644E+02  0.00000000000E+00 0.  1.
<mgrwt>
<rscale>  2 0.95996149E+02</rscale>
<asrwt>0</asrwt>
<pdfrwt beam="1">  1       21 0.14507353E-01 0.95996149E+02</pdfrwt>
<pdfrwt beam="2">  1       21 0.18940281E-01 0.95996149E+02</pdfrwt>
<totfact> 0.10605994E+06</totfact>
</mgrwt>
</event>
<event>
 5    1  0.1590180E+000  0.6983792E+02  0.7546771E-02  0.1360645E+00
         21   -1    0    0  503  502  0.00000000000E+00  0.00000000000E+00  0.96680060042E+03  0.96680060042E+03  0.00000000000E+00 0.  1.
         21   -1    0    0  501  503 -0.00000000000E+00 -0.00000000000E+00 -0.11625903308E+02  0.11625903308E+02  0.00000000000E+00 0. -1.
         24    1    1    2    0    0  0.17344594805E+02  0.15787901221E+02  0.21329400662E+03  0.22915418829E+03  0.80419002446E+02 0.  0.
          1    1    1    2  501    0 -0.34115653570E+02 -0.19635182589E+01  0.79475132947E+02  0.86510288286E+02  0.00000000000E+00 0. -1.
         -2    1    1    2    0  502  0.16771058765E+02 -0.13824382962E+02  0.66240555754E+03  0.66276202716E+03  0.00000000000E+00 0.  1.
<mgrwt>
<rscale>  2 0.69837920E+02</rscale>
<asrwt>0</asrwt>
<pdfrwt beam="1">  1       21 0.14873849E+00 0.69837920E+02</pdfrwt>
<pdfrwt beam="2">  1       21 0.17886013E-02 0.69837920E+02</pdfrwt>
<totfact> 0.46674375E+05</totfact>
</mgrwt>
</event>
<event>
 5    1  0.1590180E+000  0.6697456E+02  0.7546771E-02  0.1370694E+00
         21   -1    0    0  503  502  0.00000000000E+00  0.00000000000E+00  0.15866889189E+02  0.15866889189E+02  0.00000000000E+00 0. -1.
         21   -1    0    0  501  503 -0.00000000000E+00 -0.00000000000E+00 -0.41363916055E+03  0.41363916055E+03  0.00000000000E+00 0.  1.
         24    1    1    2    0    0 -0.18781990539E+02 -0.25417206465E+02 -0.33647749390E+03  0.34739475731E+03  0.80419002446E+02 0.  1.
          1    1    1    2  501    0  0.25020457735E+02  0.41281203543E+01 -0.52393594307E+02  0.58207846613E+02  0.00000000000E+00 0. -1.
         -2    1    1    2    0  502 -0.62384671964E+01  0.21289086111E+02 -0.89011831614E+01  0.23903445820E+02  0.00000000000E+00 0.  1.
<mgrwt>
<rscale>  2 0.66974564E+02</rscale>
<asrwt>0</asrwt>
<pdfrwt beam="1">  1       21 0.24410604E-02 0.66974564E+02</pdfrwt>
<pdfrwt beam="2">  1       21 0.63636781E-01 0.66974564E+02</pdfrwt>
<totfact> 0.19796691E+06</totfact>
</mgrwt>
</event>
<event>
 5    1  0.1590180E+000  0.6266008E+02  0.7546771E-02  0.1386996E+00
         21   -1    0    0  503  502  0.00000000000E+00  0.00000000000E+00  0.72331209295E+02  0.72331209295E+02  0.00000000000E+00 0.  1.
         21   -1    0    0  501  503 -0.00000000000E+00 -0.00000000000E+00 -0.71056126171E+02  0.71056126171E+02  0.00000000000E+00 0. -1.
         24    1    1    2    0    0  0.76495906547E+01 -0.83783538620E+01 -0.79191101967E+01  0.81600498229E+02  0.80419002446E+02 0.  1.
          1    1    1    2  501    0  0.12977668365E+02  0.17303553668E+02 -0.16826278982E+02  0.27403585717E+02  0.00000000000E+00 0. -1.
         -2    1    1    2    0  502 -0.20627259020E+02 -0.89251998060E+01  0.26020472303E+02  0.34383251521E+02  0.00000000000E+00 0.  1.
<mgrwt>
<rscale>  2 0.62660078E+02</rscale>
<asrwt>0</asrwt>
<pdfrwt beam="1">  1       21 0.11127878E-01 0.62660078E+02</pdfrwt>
<pdfrwt beam="2">  1       21 0.10931712E-01 0.62660078E+02</pdfrwt>
<totfact> 0.43835668E+06</totfact>
</mgrwt>
</event>
<event>
 5    1  0.1590180E+000  0.7517912E+02  0.7546771E-02  0.1343317E+00
         21   -1    0    0  503  502  0.00000000000E+00  0.00000000000E+00  0.37894223509E+02  0.37894223509E+02  0.00000000000E+00 0.  1.
         21   -1    0    0  501  503 -0.00000000000E+00 -0.00000000000E+00 -0.19218668569E+03  0.19218668569E+03  0.00000000000E+00 0.  1.
         24    1    1    2    0    0 -0.13213238538E+01  0.27063214047E+02 -0.98655919160E+02  0.13013212436E+03  0.80419002446E+02 0.  1.
          1    1    1    2  501    0  0.28052532482E+02 -0.26753035026E+02 -0.61389279396E+02  0.72603809036E+02  0.00000000000E+00 0. -1.
         -2    1    1    2    0  502 -0.26731208629E+02 -0.31017902124E+00  0.57527363743E+01  0.27344975801E+02  0.00000000000E+00 0.  1.
<mgrwt>
<rscale>  2 0.75179115E+02</rscale>
<asrwt>0</asrwt>
<pdfrwt beam="1">  1       21 0.58298805E-02 0.75179115E+02</pdfrwt>
<pdfrwt beam="2">  1       21 0.29567182E-01 0.75179115E+02</pdfrwt>
<totfact> 0.22101993E+06</totfact>
</mgrwt>
</event>
<event>
 5    1  0.1590180E+000  0.1478646E+03  0.7546771E-02  0.1203122E+00
         21   -1    0    0  501  502  0.00000000000E+00  0.00000000000E+00  0.82861455655E+03  0.82861455655E+03  0.00000000000E+00 0.  1.
         21   -1    0    0  502  503 -0.00000000000E+00 -0.00000000000E+00 -0.34991172848E+02  0.34991172848E+02  0.00000000000E+00 0.  1.
         24    1    1    2    0    0  0.51551880329E+02  0.69110620820E+02  0.16030399204E+03  0.19899361822E+03  0.80419002446E+02 0.  1.
          1    1    1    2  501    0  0.44059184795E+02  0.18837471724E+02  0.34583069923E+03  0.34913455091E+03  0.00000000000E+00 0. -1.
         -2    1    1    2    0  503 -0.95611065124E+02 -0.87948092544E+02  0.28748869243E+03  0.31547756027E+03  0.00000000000E+00 0.  1.
<mgrwt>
<rscale>  2 0.14786455E+03</rscale>
<asrwt>0</asrwt>
<pdfrwt beam="1">  1       21 0.12747915E+00 0.14786455E+03</pdfrwt>
<pdfrwt beam="2">  1       21 0.53832580E-02 0.14786455E+03</pdfrwt>
<totfact> 0.10990307E+05</totfact>
</mgrwt>
</event>
<event>
 5    1  0.1590180E+000  0.9483159E+02  0.7546771E-02  0.1291556E+00
         21   -1    0    0  501  502  0.00000000000E+00  0.00000000000E+00  0.14401230039E+04  0.14401230039E+04  0.00000000000E+00 0.  1.
         21   -1    0    0  502  503 -0.00000000000E+00 -0.00000000000E+00 -0.65514063207E+01  0.65514063207E+01  0.00000000000E+00 0. -1.
         24    1    1    2    0    0  0.38331532355E+02  0.24394842060E+02  0.82001513046E+03  0.82520085120E+03  0.80419002446E+02 0.  1.
          1    1    1    2  501    0 -0.46342828092E+02 -0.51353489379E+02  0.48252476306E+03  0.48745767566E+03  0.00000000000E+00 0. -1.
         -2    1    1    2    0  503  0.80112957369E+01  0.26958647319E+02  0.13103170404E+03  0.13401588334E+03  0.00000000000E+00 0.  1.
<mgrwt>
<rscale>  2 0.94831590E+02</rscale>
<asrwt>0</asrwt>
<pdfrwt beam="1">  1       21 0.22155713E+00 0.94831590E+02</pdfrwt>
<pdfrwt beam="2">  1       21 0.10079098E-02 0.94831590E+02</pdfrwt>
<totfact> 0.38423377E+05</totfact>
</mgrwt>
</event>
<event>
 5    1  0.1590180E+000  0.1209473E+03  0.7546771E-02  0.1241542E+00
         21   -1    0    0  503  502  0.00000000000E+00  0.00000000000E+00  0.73361997720E+02  0.73361997720E+02  0.00000000000E+00 0.  1.
         21   -1    0    0  501  503 -0.00000000000E+00 -0.00000000000E+00 -0.75249879170E+03  0.75249879170E+03  0.00000000000E+00 0. -1.
         24    1    1    2    0    0 -0.10100343659E+03  0.36504298183E+02 -0.23902137168E+03  0.27410342950E+03  0.80419002446E+02 0. -1.
          1    1    1    2  501    0  0.75285107369E+02 -0.23257996849E+02 -0.48880861721E+03  0.49511882015E+03  0.00000000000E+00 0. -1.
         -2    1    1    2    0  502  0.25718329221E+02 -0.13246301334E+02  0.48693194909E+02  0.56638539771E+02  0.00000000000E+00 0.  1.
<mgrwt>
<rscale>  2 0.12094728E+03</rscale>
<asrwt>0</asrwt>
<pdfrwt beam="1">  1       21 0.11286462E-01 0.12094728E+03</pdfrwt>
<pdfrwt beam="2">  1       21 0.11576904E+00 0.12094728E+03</pdfrwt>
<totfact> 0.39418756E+04</totfact>
</mgrwt>
</event>
<event>
 5    1  0.1590180E+000  0.6863632E+02  0.7546771E-02  0.1364793E+00
         21   -1    0    0  501  502  0.00000000000E+00  0.00000000000E+00  0.14541262780E+04  0.14541262780E+04  0.00000000000E+00 0.  1.
         21   -1    0    0  502  503 -0.00000000000E+00 -0.00000000000E+00 -0.52500143618E+01  0.52500143618E+01  0.00000000000E+00 0.  1.
         24    1    1    2    0    0  0.11731681783E+02  0.19921010836E+02  0.83834326228E+03  0.84250882512E+03  0.80419002446E+02 0.  1.
          1    1    1    2  501    0  0.51905161402E+01 -0.32246392730E+02  0.57268267372E+03  0.57361329839E+03  0.00000000000E+00 0. -1.
         -2    1    1    2    0  503 -0.16922197923E+02  0.12325381894E+02  0.37850327588E+02  0.43254168815E+02  0.00000000000E+00 0.  1.
<mgrwt>
<rscale>  2 0.68636317E+02</rscale>
<asrwt>0</asrwt>
<pdfrwt beam="1">  1       21 0.22371141E+00 0.68636317E+02</pdfrwt>
<pdfrwt beam="2">  1       21 0.80769568E-03 0.68636317E+02</pdfrwt>
<totfact> 0.53652730E+05</totfact>
</mgrwt>
</event>
<event>
 5    1  0.1590180E+000  0.8063627E+02  0.7546771E-02  0.1327255E+00
         21   -1    0    0  503  502  0.00000000000E+00  0.00000000000E+00  0.14676400751E+03  0.14676400751E+03  0.00000000000E+00 0.  1.
         21   -1    0    0  501  503 -0.00000000000E+00 -0.00000000000E+00 -0.29972329526E+03  0.29972329526E+03  0.00000000000E+00 0.  1.
         24    1    1    2    0    0 -0.59153625053E+02 -0.12725675064E+02 -0.14968532258E+03  0.18037185455E+03  0.80419002446E+02 0.  1.
          1    1    1    2  501    0  0.30769586995E+02  0.86150915116E+01 -0.13118920070E+03  0.13502441878E+03  0.00000000000E+00 0. -1.
         -2    1    1    2    0  502  0.28384038057E+02  0.41105835529E+01  0.12791523554E+03  0.13109102943E+03  0.00000000000E+00 0.  1.
<mgrwt>
<rscale>  2 0.80636269E+02</rscale>
<asrwt>0</asrwt>
<pdfrwt beam="1">  1       21 0.22579078E-01 0.80636269E+02</pdfrwt>
<pdfrwt beam="2">  1       21 0.46111275E-01 0.80636269E+02</pdfrwt>
<totfact> 0.87210199E+04</totfact>
</mgrwt>
</event>
<event>
 5    1  0.1590180E+000  0.1004434E+03  0.7546771E-02  0.1279366E+00
         21   -1    0    0  503  502  0.00000000000E+00  0.00000000000E+00  0.55034671343E+03  0.55034671343E+03  0.00000000000E+00 0.  1.
         21   -1    0    0  501  503 -0.00000000000E+00 -0.00000000000E+00 -0.17461043770E+03  0.17461043770E+03  0.00000000000E+00 0. -1.
         24    1    1    2    0    0 -0.80432581907E+01  0.29259150866E+02  0.25657831808E+00  0.85953904498E+02  0.80419002446E+02 0.  0.
          1    1    1    2  501    0  0.49655996009E+02 -0.48209340520E+02 -0.12155131601E+03  0.13987344593E+03  0.00000000000E+00 0. -1.
         -2    1    1    2    0  502 -0.41612737818E+02  0.18950189654E+02  0.49703101343E+03  0.49912980070E+03  0.00000000000E+00 0.  1.
<mgrwt>
<rscale>  2 0.10044341E+03</rscale>
<asrwt>0</asrwt>
<pdfrwt beam="1">  1       21 0.84668724E-01 0.10044341E+03</pdfrwt>
<pdfrwt beam="2">  1       21 0.26863145E-01 0.10044341E+03</pdfrwt>
<totfact> 0.17110138E+04</totfact>
</mgrwt>
</event>
<event>
 5    1  0.1590180E+000  0.6776540E+02  0.7546771E-02  0.1367861E+00
         21   -1    0    0  501  502  0.00000000000E+00  0.00000000000E+00  0.21880125564E+02  0.21880125564E+02  0.00000000000E+00 0. -1.
         21   -1    0    0  502  503 -0.00000000000E+00 -0.00000000000E+00 -0.38054477506E+03  0.38054477506E+03  0.00000000000E+00 0. -1.
         24    1    1    2    0    0 -0.23368628524E+02  0.34010365545E+02 -0.22358003853E+03  0.24115979629E+03  0.80419002446E+02 0. -1.
          1    1    1    2  501    0  0.39189512497E+01 -0.21862596976E+02  0.19765624987E+01  0.22298836847E+02  0.00000000000E+00 0. -1.
         -2    1    1    2    0  503  0.19449677274E+02 -0.12147768569E+02 -0.13706117347E+03  0.13896626749E+03  0.00000000000E+00 0.  1.
<mgrwt>
<rscale>  2 0.67765395E+02</rscale>
<asrwt>0</asrwt>
<pdfrwt beam="1">  1       21 0.33661735E-02 0.67765395E+02</pdfrwt>
<pdfrwt beam="2">  1       21 0.58545345E-01 0.67765395E+02</pdfrwt>
<totfact> 0.14052083E+06</totfact>
</mgrwt>
</event>
<event>
 5    1  0.1590180E+000  0.7847686E+02  0.7546771E-02  0.1333430E+00
         21   -1    0    0  501  502  0.00000000000E+00  0.00000000000E+00  0.84689328648E+02  0.84689328648E+02  0.00000000000E+00 0. -1.
         21   -1    0    0  502  503 -0.00000000000E+00 -0.00000000000E+00 -0.27422320013E+03  0.27422320013E+03  0.00000000000E+00 0. -1.
         24    1    1    2    0    0 -0.91938771253E+01 -0.12855391057E+02 -0.13789559673E+03  0.16041259305E+03  0.80419002446E+02 0. -1.
          1    1    1    2  501    0 -0.53180527339E+01 -0.29628672481E+02  0.66024750884E+02  0.72563128703E+02  0.00000000000E+00 0. -1.
         -2    1    1    2    0  503  0.14511929859E+02  0.42484063538E+02 -0.11766302564E+03  0.12593680703E+03  0.00000000000E+00 0.  1.
<mgrwt>
<rscale>  2 0.78476860E+02</rscale>
<asrwt>0</asrwt>
<pdfrwt beam="1">  1       21 0.13029128E-01 0.78476860E+02</pdfrwt>
<pdfrwt beam="2">  1       21 0.42188185E-01 0.78476860E+02</pdfrwt>
<totfact> 0.28049128E+05</totfact>
</mgrwt>
</event>
<event>
 5    1  0.1590180E+000  0.1206796E+03  0.7546771E-02  0.1241980E+00
         21   -1    0    0  501  502  0.00000000000E+00  0.00000000000E+00  0.38664383568E+02  0.38664383568E+02  0.00000000000E+00 0.  1.
         21   -1    0    0  502  503 -0.00000000000E+00 -0.00000000000E+00 -0.12246949525E+04  0.12246949525E+04  0.00000000000E+00 0.  1.
         24    1    1    2    0    0 -0.68819583263E+02  0.65358653795E+02 -0.13213324647E+03  0.18147809632E+03  0.80419002446E+02 0.  1.
          1    1    1    2  501    0  0.12397371372E+02 -0.58875668309E+02 -0.55454473770E+02  0.81824432763E+02  0.00000000000E+00 0. -1.
         -2    1    1    2    0  503  0.56422211891E+02 -0.64829854861E+01 -0.99844284866E+03  0.10000568070E+04  0.00000000000E+00 0.  1.
<mgrwt>
<rscale>  2 0.12067959E+03</rscale>
<asrwt>0</asrwt>
<pdfrwt beam="1">  1       21 0.59483666E-02 0.12067959E+03</pdfrwt>
<pdfrwt beam="2">  1       21 0.18841461E+00 0.12067959E+03</pdfrwt>
<totfact> 0.33785191E+04</totfact>
</mgrwt>
</event>
<event>
 5    1  0.1590180E+000  0.1003102E+03  0.7546771E-02  0.1279645E+00
         21   -1    0    0  503  502  0.00000000000E+00  0.00000000000E+00  0.21348040868E+03  0.21348040868E+03  0.00000000000E+00 0. -1.
         21   -1    0    0  501  503 -0.00000000000E+00 -0.00000000000E+00 -0.81513607774E+02  0.81513607774E+02  0.00000000000E+00 0. -1.
         24    1    1    2    0    0 -0.88489168961E+01 -0.82180018866E+02  0.39706591438E+02  0.12196593044E+03  0.80419002446E+02 0. -1.
          1    1    1    2  501    0  0.15720643259E+02  0.62753293405E+02 -0.12816597458E+02  0.65949826596E+02  0.00000000000E+00 0. -1.
         -2    1    1    2    0  502 -0.68717263630E+01  0.19426725460E+02  0.10507680692E+03  0.10707825941E+03  0.00000000000E+00 0.  1.
<mgrwt>
<rscale>  2 0.10031017E+03</rscale>
<asrwt>0</asrwt>
<pdfrwt beam="1">  1       21 0.32843140E-01 0.10031017E+03</pdfrwt>
<pdfrwt beam="2">  1       21 0.12540555E-01 0.10031017E+03</pdfrwt>
<totfact> 0.48891649E+05</totfact>
</mgrwt>
</event>
<event>
 5    1  0.1590180E+000  0.8677649E+02  0.7546771E-02  0.1310851E+00
         21   -1    0    0  501  502  0.00000000000E+00  0.00000000000E+00  0.86128497088E+02  0.86128497088E+02  0.00000000000E+00 0.  1.
         21   -1    0    0  502  503 -0.00000000000E+00 -0.00000000000E+00 -0.14814535813E+03  0.14814535813E+03  0.00000000000E+00 0. -1.
         24    1    1    2    0    0 -0.40101443410E-01  0.21408406183E+02  0.44678978897E+02  0.94455008195E+02  0.80419002446E+02 0.  1.
          1    1    1    2  501    0 -0.83700683880E+01 -0.55036513406E+02 -0.64024866441E+02  0.84842556394E+02  0.00000000000E+00 0. -1.
         -2    1    1    2    0  503  0.84101698314E+01  0.33628107222E+02 -0.42670973498E+02  0.54976290628E+02  0.00000000000E+00 0.  1.
<mgrwt>
<rscale>  2 0.86776490E+02</rscale>
<asrwt>0</asrwt>
<pdfrwt beam="1">  1       21 0.13250538E-01 0.86776490E+02</pdfrwt>
<pdfrwt beam="2">  1       21 0.22791593E-01 0.86776490E+02</pdfrwt>
<totfact> 0.88480729E+05</totfact>
</mgrwt>
</event>
<event>
 5    1  0.1590180E+000  0.7578469E+02  0.7546771E-02  0.1341458E+00
         21   -1    0    0  503  502  0.00000000000E+00  0.00000000000E+00  0.42355050872E+02  0.42355050872E+02  0.00000000000E+00 0.  1.
         21   -1    0    0  501  503 -0.00000000000E+00 -0.00000000000E+00 -0.82124185553E+03  0.82124185553E+03  0.00000000000E+00 0. -1.
         24    1    1    2    0    0 -0.16382077466E+02 -0.47612377643E+02 -0.19988789332E+03  0.22126386243E+03  0.80419002446E+02 0.  0.
          1    1    1    2  501    0 -0.62798066364E+01  0.20021022579E+02 -0.60035967468E+03  0.60072624073E+03  0.00000000000E+00 0. -1.
         -2    1    1    2    0  502  0.22661884102E+02  0.27591355063E+02  0.21360763345E+02  0.41606803241E+02  0.00000000000E+00 0.  1.
<mgrwt>
<rscale>  2 0.75784694E+02</rscale>
<asrwt>0</asrwt>
<pdfrwt beam="1">  1       21 0.65161620E-02 0.75784694E+02</pdfrwt>
<pdfrwt beam="2">  1       21 0.12634489E+00 0.75784694E+02</pdfrwt>
<totfact> 0.84877987E+04</totfact>
</mgrwt>
</event>
<event>
 5    1  0.1590180E+000  0.8418497E+02  0.7546771E-02  0.1317578E+00
         21   -1    0    0  501  502  0.00000000000E+00  0.00000000000E+00  0.45489189300E+02  0.45489189300E+02  0.00000000000E+00 0. -1.
         21   -1    0    0  502  503 -0.00000000000E+00 -0.00000000000E+00 -0.19448280939E+03  0.19448280939E+03  0.00000000000E+00 0. -1.
         24    1    1    2    0    0 -0.80614214484E+01 -0.32948129738E+02 -0.70100352218E+02  0.11194570606E+03  0.80419002446E+02 0. -1.
          1    1    1    2  501    0  0.69542274739E+01  0.56794152976E+02 -0.14035141971E+02  0.58914533879E+02  0.00000000000E+00 0. -1.
         -2    1    1    2    0  503  0.11071939746E+01 -0.23846023238E+02 -0.64858125901E+02  0.69111758755E+02  0.00000000000E+00 0.  1.
<mgrwt>
<rscale>  2 0.84184973E+02</rscale>
<asrwt>0</asrwt>
<pdfrwt beam="1">  1       21 0.69983369E-02 0.84184973E+02</pdfrwt>
<pdfrwt beam="2">  1       21 0.29920432E-01 0.84184973E+02</pdfrwt>
<totfact> 0.15969112E+06</totfact>
</mgrwt>
</event>
<event>
 5    1  0.1590180E+000  0.1412520E+03  0.7546771E-02  0.1211654E+00
         21   -1    0    0  501  502  0.00000000000E+00  0.00000000000E+00  0.56305709735E+03  0.56305709735E+03  0.00000000000E+00 0. -1.
         21   -1    0    0  502  503 -0.00000000000E+00 -0.00000000000E+00 -0.26412782445E+03  0.26412782445E+03  0.00000000000E+00 0.  1.
         24    1    1    2    0    0  0.33196159452E+02 -0.69154116864E+02 -0.94330419784E+01  0.11153687783E+03  0.80419002446E+02 0.  1.
          1    1    1    2  501    0 -0.17152258760E+02 -0.49110079225E+02  0.49303228401E+03  0.49576893099E+03  0.00000000000E+00 0. -1.
         -2    1    1    2    0  503 -0.16043900692E+02  0.11826419609E+03 -0.18466996913E+03  0.21987911298E+03  0.00000000000E+00 0.  1.
<mgrwt>
<rscale>  2 0.14125200E+03</rscale>
<asrwt>0</asrwt>
<pdfrwt beam="1">  1       21 0.86624169E-01 0.14125200E+03</pdfrwt>
<pdfrwt beam="2">  1       21 0.40635050E-01 0.14125200E+03</pdfrwt>
<totfact> 0.69799805E+03</totfact>
</mgrwt>
</event>
<event>
 5    1  0.1590180E+000  0.8494296E+02  0.7546771E-02  0.1315582E+00
         21   -1    0    0  503  502  0.00000000000E+00  0.00000000000E+00  0.10776992236E+03  0.10776992236E+03  0.00000000000E+00 0. -1.
         21   -1    0    0  501  503 -0.00000000000E+00 -0.00000000000E+00 -0.88804098669E+02  0.88804098669E+02  0.00000000000E+00 0.  1.
         24    1    1    2    0    0 -0.57218517725E+02  0.12782730511E+02  0.59424539694E+00  0.99523494975E+02  0.80419002446E+02 0.  0.
          1    1    1    2  501    0  0.93773605158E+01 -0.19897889380E+02 -0.24138067994E+02  0.32657422104E+02  0.00000000000E+00 0. -1.
         -2    1    1    2    0  502  0.47841157210E+02  0.71151588688E+01  0.42509646288E+02  0.64393103951E+02  0.00000000000E+00 0.  1.
<mgrwt>
<rscale>  2 0.84942961E+02</rscale>
<asrwt>0</asrwt>
<pdfrwt beam="1">  1       21 0.16579988E-01 0.84942961E+02</pdfrwt>
<pdfrwt beam="2">  1       21 0.13662169E-01 0.84942961E+02</pdfrwt>
<totfact> 0.14965791E+06</totfact>
</mgrwt>
</event>
<event>
 5    1  0.1590180E+000  0.8582807E+02  0.7546771E-02  0.1313281E+00
         21   -1    0    0  503  502  0.00000000000E+00  0.00000000000E+00  0.71160544696E+01  0.71160544696E+01  0.00000000000E+00 0. -1.
         21   -1    0    0  501  503 -0.00000000000E+00 -0.00000000000E+00 -0.16093618168E+04  0.16093618168E+04  0.00000000000E+00 0. -1.
         24    1    1    2    0    0  0.24261886347E+02 -0.41314577559E+02 -0.38377553209E+03  0.39502709835E+03  0.80419002446E+02 0. -1.
          1    1    1    2  501    0 -0.84158011234E+01  0.55887900178E+02 -0.10624531148E+04  0.10639553112E+04  0.00000000000E+00 0. -1.
         -2    1    1    2    0  502 -0.15846085224E+02 -0.14573322619E+02 -0.15601711545E+03  0.15749546172E+03  0.00000000000E+00 0.  1.
<mgrwt>
<rscale>  2 0.85828068E+02</rscale>
<asrwt>0</asrwt>
<pdfrwt beam="1">  1       21 0.10947769E-02 0.85828068E+02</pdfrwt>
<pdfrwt beam="2">  1       21 0.24759428E+00 0.85828068E+02</pdfrwt>
<totfact> 0.24139255E+05</totfact>
</mgrwt>
</event>
<event>
 5    1  0.1590180E+000  0.1005507E+03  0.7546771E-02  0.1279142E+00
         21   -1    0    0  503  502  0.00000000000E+00  0.00000000000E+00  0.31664328015E+03  0.31664328015E+03  0.00000000000E+00 0.  1.
         21   -1    0    0  501  503 -0.00000000000E+00 -0.00000000000E+00 -0.54542738516E+02  0.54542738516E+02  0.00000000000E+00 0. -1.
         24    1    1    2    0    0  0.22184819689E+02  0.19864838370E+02  0.44540715461E+02  0.96632651398E+02  0.80419002446E+02 0.  0.
          1    1    1    2  501    0 -0.97234776023E+01  0.46660830977E+02  0.10111269653E+01  0.47673908397E+02  0.00000000000E+00 0. -1.
         -2    1    1    2    0  502 -0.12461342087E+02 -0.66525669347E+02  0.21654869921E+03  0.22687945887E+03  0.00000000000E+00 0.  1.
<mgrwt>
<rscale>  2 0.10055066E+03</rscale>
<asrwt>0</asrwt>
<pdfrwt beam="1">  1       21 0.48714350E-01 0.10055066E+03</pdfrwt>
<pdfrwt beam="2">  1       21 0.83911907E-02 0.10055066E+03</pdfrwt>
<totfact> 0.44979310E+05</totfact>
</mgrwt>
</event>
<event>
 5    1  0.1590180E+000  0.7593143E+02  0.7546771E-02  0.1341011E+00
         21   -1    0    0  501  502  0.00000000000E+00  0.00000000000E+00  0.55662320823E+02  0.55662320823E+02  0.00000000000E+00 0. -1.
         21   -1    0    0  502  503 -0.00000000000E+00 -0.00000000000E+00 -0.11001151461E+03  0.11001151461E+03  0.00000000000E+00 0. -1.
         24    1    1    2    0    0  0.23078955898E+02 -0.46070175002E+02 -0.14983841759E+02  0.96679008571E+02  0.80419002446E+02 0. -1.
          1    1    1    2  501    0 -0.53340127459E+01  0.35071796437E+02 -0.21240511328E+02  0.41347816373E+02  0.00000000000E+00 0. -1.
         -2    1    1    2    0  503 -0.17744943152E+02  0.10998378565E+02 -0.18124840699E+02  0.27647010488E+02  0.00000000000E+00 0.  1.
<mgrwt>
<rscale>  2 0.75931434E+02</rscale>
<asrwt>0</asrwt>
<pdfrwt beam="1">  1       21 0.85634342E-02 0.75931434E+02</pdfrwt>
<pdfrwt beam="2">  1       21 0.16924848E-01 0.75931434E+02</pdfrwt>
<totfact> 0.32298088E+06</totfact>
</mgrwt>
</event>
<event>
 5    1  0.1590180E+000  0.9185300E+02  0.7546771E-02  0.1298425E+00
         21   -1    0    0  503  502  0.00000000000E+00  0.00000000000E+00  0.47297230774E+03  0.47297230774E+03  0.00000000000E+00 0.  1.
         21   -1    0    0  501  503 -0.00000000000E+00 -0.00000000000E+00 -0.36120698201E+02  0.36120698201E+02  0.00000000000E+00 0. -1.
         24    1    1    2    0    0 -0.67658237854E+02 -0.13576732338E+02  0.40566875842E+03  0.41928072019E+03  0.80419002446E+02 0.  1.
          1    1    1    2  501    0  0.13831546726E+02  0.19151063647E+02 -0.57279846070E+01  0.24308120686E+02  0.00000000000E+00 0. -1.
         -2    1    1    2    0  502  0.53826691128E+02 -0.55743313089E+01  0.36910835734E+02  0.65504165073E+02  0.00000000000E+00 0.  1.
<mgrwt>
<rscale>  2 0.91853000E+02</rscale>
<asrwt>0</asrwt>
<pdfrwt beam="1">  1       21 0.72764966E-01 0.91853000E+02</pdfrwt>
<pdfrwt beam="2">  1       21 0.55570308E-02 0.91853000E+02</pdfrwt>
<totfact> 0.38926573E+05</totfact>
</mgrwt>
</event>
<event>
 5    1  0.1590180E+000  0.9055350E+02  0.7546771E-02  0.1301517E+00
         21   -1    0    0  501  502  0.00000000000E+00  0.00000000000E+00  0.59411717931E+02  0.59411717931E+02  0.00000000000E+00 0.  1.
         21   -1    0    0  502  503 -0.00000000000E+00 -0.00000000000E+00 -0.40254305520E+03  0.40254305520E+03  0.00000000000E+00 0.  1.
         24    1    1    2    0    0  0.68618720235E+02 -0.23847602421E+02 -0.53872151337E+02  0.12102339258E+03  0.80419002446E+02 0.  1.
          1    1    1    2  501    0 -0.24499821549E+02  0.66834617972E+01  0.17306877661E+02  0.30731708900E+02  0.00000000000E+00 0. -1.
         -2    1    1    2    0  503 -0.44118898686E+02  0.17164140624E+02 -0.30656606359E+03  0.31019967165E+03  0.00000000000E+00 0.  1.
<mgrwt>
<rscale>  2 0.90553501E+02</rscale>
<asrwt>0</asrwt>
<pdfrwt beam="1">  1       21 0.91402641E-02 0.90553501E+02</pdfrwt>
<pdfrwt beam="2">  1       21 0.61929702E-01 0.90553501E+02</pdfrwt>
<totfact> 0.23634872E+05</totfact>
</mgrwt>
</event>
<event>
 5    1  0.1590180E+000  0.1131061E+03  0.7546771E-02  0.1254924E+00
         21   -1    0    0  503  502  0.00000000000E+00  0.00000000000E+00  0.20443317822E+02  0.20443317822E+02  0.00000000000E+00 0.  1.
         21   -1    0    0  501  503 -0.00000000000E+00 -0.00000000000E+00 -0.22082061539E+04  0.22082061539E+04  0.00000000000E+00 0. -1.
         24    1    1    2    0    0 -0.97850366901E+02  0.20137176939E+01 -0.20275947647E+04  0.20315478078E+04  0.80419002446E+02 0. -1.
          1    1    1    2  501    0  0.31738159785E+02 -0.91826042952E+01 -0.10692528247E+03  0.11191356950E+03  0.00000000000E+00 0. -1.
         -2    1    1    2    0  502  0.66112207116E+02  0.71688866013E+01 -0.53242788846E+02  0.85188094408E+02  0.00000000000E+00 0.  1.
<mgrwt>
<rscale>  2 0.11310613E+03</rscale>
<asrwt>0</asrwt>
<pdfrwt beam="1">  1       21 0.31451269E-02 0.11310613E+03</pdfrwt>
<pdfrwt beam="2">  1       21 0.33972391E+00 0.11310613E+03</pdfrwt>
<totfact> 0.13171523E+04</totfact>
</mgrwt>
</event>
<event>
 5    1  0.1590180E+000  0.1427563E+03  0.7546771E-02  0.1209668E+00
         21   -1    0    0  503  502  0.00000000000E+00  0.00000000000E+00  0.56530280018E+03  0.56530280018E+03  0.00000000000E+00 0. -1.
         21   -1    0    0  501  503 -0.00000000000E+00 -0.00000000000E+00 -0.47982324579E+02  0.47982324579E+02  0.00000000000E+00 0. -1.
         24    1    1    2    0    0 -0.33642142247E+00  0.11738190542E+03  0.26209335130E+03  0.29822603114E+03  0.80419002446E+02 0. -1.
          1    1    1    2  501    0  0.41156895718E+02 -0.62253626016E+02  0.31415299100E+02  0.80971137048E+02  0.00000000000E+00 0. -1.
         -2    1    1    2    0  502 -0.40820474296E+02 -0.55128279406E+02  0.22381182520E+03  0.23408795657E+03  0.00000000000E+00 0.  1.
<mgrwt>
<rscale>  2 0.14275626E+03</rscale>
<asrwt>0</asrwt>
<pdfrwt beam="1">  1       21 0.86969657E-01 0.14275626E+03</pdfrwt>
<pdfrwt beam="2">  1       21 0.73818965E-02 0.14275626E+03</pdfrwt>
<totfact> 0.15957211E+05</totfact>
</mgrwt>
</event>
<event>
 5    1  0.1590180E+000  0.1916506E+03  0.7546771E-02  0.1156981E+00
         21   -1    0    0  503  502  0.00000000000E+00  0.00000000000E+00  0.56470609553E+02  0.56470609553E+02  0.00000000000E+00 0. -1.
         21   -1    0    0  501  503 -0.00000000000E+00 -0.00000000000E+00 -0.69140941945E+03  0.69140941945E+03  0.00000000000E+00 0. -1.
         24    1    1    2    0    0 -0.18196057495E+03  0.21015517711E+02 -0.28399199711E+03  0.34737583854E+03  0.80419002446E+02 0. -1.
          1    1    1    2  501    0  0.14882978709E+03 -0.19347667747E+02 -0.32635407672E+03  0.35920971753E+03  0.00000000000E+00 0. -1.
         -2    1    1    2    0  502  0.33130787869E+02 -0.16678499646E+01 -0.24592736061E+02  0.41294472939E+02  0.00000000000E+00 0.  1.
<mgrwt>
<rscale>  2 0.19165057E+03</rscale>
<asrwt>0</asrwt>
<pdfrwt beam="1">  1       21 0.86877861E-02 0.19165057E+03</pdfrwt>
<pdfrwt beam="2">  1       21 0.10637068E+00 0.19165057E+03</pdfrwt>
<totfact> 0.73627615E+04</totfact>
</mgrwt>
</event>
<event>
 5    1  0.1590180E+000  0.7400737E+02  0.7546771E-02  0.1346973E+00
         21   -1    0    0  501  502  0.00000000000E+00  0.00000000000E+00  0.50203605582E+02  0.50203605582E+02  0.00000000000E+00 0. -1.
         21   -1    0    0  502  503 -0.00000000000E+00 -0.00000000000E+00 -0.11720873743E+03  0.11720873743E+03  0.00000000000E+00 0.  1.
         24    1    1    2    0    0 -0.14409672100E+02  0.16376459715E+02 -0.49521313458E+02  0.96929889734E+02  0.80419002446E+02 0.  1.
          1    1    1    2  501    0  0.38442645065E+02 -0.82306526863E+01  0.60626386885E+00  0.39318547266E+02  0.00000000000E+00 0. -1.
         -2    1    1    2    0  503 -0.24032972965E+02 -0.81458070285E+01 -0.18090082255E+02  0.31163906008E+02  0.00000000000E+00 0.  1.
<mgrwt>
<rscale>  2 0.74007365E+02</rscale>
<asrwt>0</asrwt>
<pdfrwt beam="1">  1       21 0.77236317E-02 0.74007365E+02</pdfrwt>
<pdfrwt beam="2">  1       21 0.18032113E-01 0.74007365E+02</pdfrwt>
<totfact> 0.34294404E+06</totfact>
</mgrwt>
</event>
<event>
 5    1  0.1590180E+000  0.9668645E+02  0.7546771E-02  0.1287422E+00
         21   -1    0    0  501  502  0.00000000000E+00  0.00000000000E+00  0.44715315832E+03  0.44715315832E+03  0.00000000000E+00 0.  1.
         21   -1    0    0  502  503 -0.00000000000E+00 -0.00000000000E+00 -0.49947699813E+02  0.49947699813E+02  0.00000000000E+00 0.  1.
         24    1    1    2    0    0 -0.29955815732E+02  0.61729805534E+02  0.26367118449E+03  0.28407328151E+03  0.80419002446E+02 0.  1.
          1    1    1    2  501    0 -0.16132784015E+02 -0.16945181559E+02  0.14574762694E+03  0.14761360593E+03  0.00000000000E+00 0. -1.
         -2    1    1    2    0  503  0.46088599747E+02 -0.44784623975E+02 -0.12213352920E+02  0.65413970685E+02  0.00000000000E+00 0.  1.
<mgrwt>
<rscale>  2 0.96686455E+02</rscale>
<asrwt>0</asrwt>
<pdfrwt beam="1">  1       21 0.68792791E-01 0.96686455E+02</pdfrwt>
<pdfrwt beam="2">  1       21 0.76842618E-02 0.96686455E+02</pdfrwt>
<totfact> 0.25388918E+05</totfact>
</mgrwt>
</event>
<event>
 5    1  0.1590180E+000  0.1315423E+03  0.7546771E-02  0.1225185E+00
         21   -1    0    0  501  502  0.00000000000E+00  0.00000000000E+00  0.24132194761E+02  0.24132194761E+02  0.00000000000E+00 0. -1.
         21   -1    0    0  502  503 -0.00000000000E+00 -0.00000000000E+00 -0.19785997462E+04  0.19785997462E+04  0.00000000000E+00 0.  1.
         24    1    1    2    0    0 -0.11019213974E+02  0.23030508066E+02 -0.42159218700E+03  0.42995234093E+03  0.80419002446E+02 0. -1.
          1    1    1    2  501    0  0.85246327336E+02 -0.51058629734E+02 -0.11214171801E+03  0.14983218917E+03  0.00000000000E+00 0. -1.
         -2    1    1    2    0  503 -0.74227113362E+02  0.28028121668E+02 -0.14207336465E+04  0.14229474109E+04  0.00000000000E+00 0.  1.
<mgrwt>
<rscale>  2 0.13154229E+03</rscale>
<asrwt>0</asrwt>
<pdfrwt beam="1">  1       21 0.37126442E-02 0.13154229E+03</pdfrwt>
<pdfrwt beam="2">  1       21 0.30440006E+00 0.13154229E+03</pdfrwt>
<totfact> 0.15382128E+04</totfact>
</mgrwt>
</event>
<event>
 5    1  0.1590180E+000  0.6160896E+02  0.7546771E-02  0.1391201E+00
         21   -1    0    0  501  502  0.00000000000E+00  0.00000000000E+00  0.29999423135E+03  0.29999423135E+03  0.00000000000E+00 0. -1.
         21   -1    0    0  502  503 -0.00000000000E+00 -0.00000000000E+00 -0.12290840971E+03  0.12290840971E+03  0.00000000000E+00 0.  1.
         24    1    1    2    0    0 -0.13209774402E+01  0.51873342657E+00  0.13818949733E+03  0.15989236127E+03  0.80419002446E+02 0.  1.
          1    1    1    2  501    0 -0.89596256349E+01 -0.19354475136E+02  0.14916044766E+03  0.15067750245E+03  0.00000000000E+00 0. -1.
         -2    1    1    2    0  503  0.10280603075E+02  0.18835741709E+02 -0.11026412336E+03  0.11233277734E+03  0.00000000000E+00 0.  1.
<mgrwt>
<rscale>  2 0.61608962E+02</rscale>
<asrwt>0</asrwt>
<pdfrwt beam="1">  1       21 0.46152958E-01 0.61608962E+02</pdfrwt>
<pdfrwt beam="2">  1       21 0.18908986E-01 0.61608962E+02</pdfrwt>
<totfact> 0.12165591E+05</totfact>
</mgrwt>
</event>
<event>
 5    1  0.1590180E+000  0.6493999E+02  0.7546771E-02  0.1378197E+00
         21   -1    0    0  501  502  0.00000000000E+00  0.00000000000E+00  0.24911743195E+03  0.24911743195E+03  0.00000000000E+00 0. -1.
         21   -1    0    0  502  503 -0.00000000000E+00 -0.00000000000E+00 -0.40418877229E+02  0.40418877229E+02  0.00000000000E+00 0.  1.
         24    1    1    2    0    0  0.40129366620E+00  0.10865278118E+02  0.26710616961E+02  0.85433531579E+02  0.80419002446E+02 0.  1.
          1    1    1    2  501    0  0.23548457325E+02 -0.57160119122E+01  0.17756351127E+03  0.17920938360E+03  0.00000000000E+00 0. -1.
         -2    1    1    2    0  503 -0.23949750991E+02 -0.51492662054E+01  0.44244264837E+01  0.24893393997E+02  0.00000000000E+00 0.  1.
<mgrwt>
<rscale>  2 0.64939993E+02</rscale>
<asrwt>0</asrwt>
<pdfrwt beam="1">  1       21 0.38325757E-01 0.64939993E+02</pdfrwt>
<pdfrwt beam="2">  1       21 0.62182890E-02 0.64939993E+02</pdfrwt>
<totfact> 0.11982651E+06</totfact>
</mgrwt>
</event>
<event>
 5    1  0.1590180E+000  0.6673042E+02  0.7546771E-02  0.1371578E+00
         21   -1    0    0  503  502  0.00000000000E+00  0.00000000000E+00  0.53397773363E+03  0.53397773363E+03  0.00000000000E+00 0.  1.
         21   -1    0    0  501  503 -0.00000000000E+00 -0.00000000000E+00 -0.93652659392E+01  0.93652659392E+01  0.00000000000E+00 0. -1.
         24    1    1    2    0    0  0.74284397928E+01  0.23751369086E+02  0.40289302763E+03  0.41159363081E+03  0.80419002446E+02 0.  0.
          1    1    1    2  501    0  0.15143055719E+02 -0.21908710552E+02  0.51667288972E+02  0.58127553572E+02  0.00000000000E+00 0. -1.
         -2    1    1    2    0  502 -0.22571495512E+02 -0.18426585344E+01  0.70052151084E+02  0.73621815188E+02  0.00000000000E+00 0.  1.
<mgrwt>
<rscale>  2 0.66730422E+02</rscale>
<asrwt>0</asrwt>
<pdfrwt beam="1">  1       21 0.82150397E-01 0.66730422E+02</pdfrwt>
<pdfrwt beam="2">  1       21 0.14408106E-02 0.66730422E+02</pdfrwt>
<totfact> 0.26354700E+06</totfact>
</mgrwt>
</event>
<event>
 5    1  0.1590180E+000  0.9326595E+02  0.7546771E-02  0.1295130E+00
         21   -1    0    0  501  502  0.00000000000E+00  0.00000000000E+00  0.25394456126E+02  0.25394456126E+02  0.00000000000E+00 0. -1.
         21   -1    0    0  502  503 -0.00000000000E+00 -0.00000000000E+00 -0.72637793945E+03  0.72637793945E+03  0.00000000000E+00 0.  1.
         24    1    1    2    0    0  0.61173736345E+02 -0.35882579218E+01 -0.16469130682E+03  0.19324995242E+03  0.80419002446E+02 0.  0.
          1    1    1    2  501    0 -0.59310225975E+02  0.24688913571E+02 -0.84080053401E+02  0.10581446375E+03  0.00000000000E+00 0. -1.
         -2    1    1    2    0  503 -0.18635103700E+01 -0.21100655650E+02 -0.45221212310E+03  0.45270797940E+03  0.00000000000E+00 0.  1.
<mgrwt>
<rscale>  2 0.93265951E+02</rscale>
<asrwt>0</asrwt>
<pdfrwt beam="1">  1       21 0.39068400E-02 0.93265951E+02</pdfrwt>
<pdfrwt beam="2">  1       21 0.11175043E+00 0.93265951E+02</pdfrwt>
<totfact> 0.26402139E+05</totfact>
</mgrwt>
</event>
<event>
 5    1  0.1590180E+000  0.8481331E+02  0.7546771E-02  0.1315921E+00
         21   -1    0    0  503  502  0.00000000000E+00  0.00000000000E+00  0.17284552931E+03  0.17284552931E+03  0.00000000000E+00 0.  1.
         21   -1    0    0  501  503 -0.00000000000E+00 -0.00000000000E+00 -0.18112621482E+03  0.18112621482E+03  0.00000000000E+00 0.  1.
         24    1    1    2    0    0 -0.33806446941E+02 -0.28260982237E+02 -0.13516828210E+03  0.16333780767E+03  0.80419002446E+02 0.  1.
          1    1    1    2  501    0  0.24456746166E+01 -0.20121707126E+02 -0.22632296530E+02  0.30382318348E+02  0.00000000000E+00 0. -1.
         -2    1    1    2    0  502  0.31360772324E+02  0.48382689363E+02  0.14951989312E+03  0.16025161812E+03  0.00000000000E+00 0.  1.
<mgrwt>
<rscale>  2 0.84813312E+02</rscale>
<asrwt>0</asrwt>
<pdfrwt beam="1">  1       21 0.26591620E-01 0.84813312E+02</pdfrwt>
<pdfrwt beam="2">  1       21 0.27865571E-01 0.84813312E+02</pdfrwt>
<totfact> 0.17113926E+05</totfact>
</mgrwt>
</event>
<event>
 5    1  0.1590180E+000  0.7462293E+02  0.7546771E-02  0.1345043E+00
         21   -1    0    0  503  502  0.00000000000E+00  0.00000000000E+00  0.31800865008E+03  0.31800865008E+03  0.00000000000E+00 0. -1.
         21   -1    0    0  501  503 -0.00000000000E+00 -0.00000000000E+00 -0.18331652967E+02  0.18331652967E+02  0.00000000000E+00 0. -1.
         24    1    1    2    0    0  0.14156463822E+02  0.25577322955E+02  0.15768470624E+03  0.17940537186E+03  0.80419002446E+02 0. -1.
          1    1    1    2  501    0  0.13887769937E+01 -0.41442954339E+02  0.67667383592E+02  0.79361968021E+02  0.00000000000E+00 0. -1.
         -2    1    1    2    0  502 -0.15545240816E+02  0.15865631384E+02  0.74324907285E+02  0.77572963165E+02  0.00000000000E+00 0.  1.
<mgrwt>
<rscale>  2 0.74622926E+02</rscale>
<asrwt>0</asrwt>
<pdfrwt beam="1">  1       21 0.48924404E-01 0.74622926E+02</pdfrwt>
<pdfrwt beam="2">  1       21 0.28202545E-02 0.74622926E+02</pdfrwt>
<totfact> 0.27135241E+06</totfact>
</mgrwt>
</event>
<event>
 5    1  0.1629638E+000  0.1053624E+03  0.7546771E-02  0.1269407E+00
         21   -1    0    0  503  502  0.00000000000E+00  0.00000000000E+00  0.31219684213E+03  0.31219684213E+03  0.00000000000E+00 0. -1.
         21   -1    0    0  501  503 -0.00000000000E+00 -0.00000000000E+00 -0.12553931389E+03  0.12553931389E+03  0.00000000000E+00 0. -1.
         24    1    1    2    0    0  0.74399839919E+01 -0.48376056660E+02  0.23581149419E+03  0.25390918252E+03  0.80419002446E+02 0. -1.
          1    1    1    2  501    0  0.28490014657E+02 -0.23037834932E+02 -0.87722342768E+02  0.95066461984E+02  0.00000000000E+00 0. -1.
         -2    1    1    2    0  502 -0.35929998649E+02  0.71413891592E+02  0.38568376805E+02  0.88760511516E+02  0.00000000000E+00 0.  1.
<mgrwt>
<rscale>  2 0.10536238E+03</rscale>
<asrwt>0</asrwt>
<pdfrwt beam="1">  1       21 0.48030283E-01 0.10536238E+03</pdfrwt>
<pdfrwt beam="2">  1       21 0.19313741E-01 0.10536238E+03</pdfrwt>
<totfact> 0.10563003E+05</totfact>
</mgrwt>
</event>
<event>
 5    1  0.1590180E+000  0.9389218E+02  0.7546771E-02  0.1293691E+00
         21   -1    0    0  501  502  0.00000000000E+00  0.00000000000E+00  0.31900802604E+02  0.31900802604E+02  0.00000000000E+00 0. -1.
         21   -1    0    0  502  503 -0.00000000000E+00 -0.00000000000E+00 -0.41141057000E+03  0.41141057000E+03  0.00000000000E+00 0. -1.
         24    1    1    2    0    0  0.45181218735E+02  0.11374602702E+02 -0.87928176314E+02  0.12794258188E+03  0.80419002446E+02 0.  1.
          1    1    1    2  501    0 -0.22357393362E+02  0.35931662482E+02 -0.39554529730E+02  0.57926662504E+02  0.00000000000E+00 0. -1.
         -2    1    1    2    0  503 -0.22823825373E+02 -0.47306265184E+02 -0.25202706135E+03  0.25744212822E+03  0.00000000000E+00 0.  1.
<mgrwt>
<rscale>  2 0.93892180E+02</rscale>
<asrwt>0</asrwt>
<pdfrwt beam="1">  1       21 0.49078161E-02 0.93892180E+02</pdfrwt>
<pdfrwt beam="2">  1       21 0.63293930E-01 0.93892180E+02</pdfrwt>
<totfact> 0.64609383E+05</totfact>
</mgrwt>
</event>
<event>
 5    1  0.1590180E+000  0.6449233E+02  0.7546771E-02  0.1379891E+00
         21   -1    0    0  501  502  0.00000000000E+00  0.00000000000E+00  0.37842072449E+03  0.37842072449E+03  0.00000000000E+00 0. -1.
         21   -1    0    0  502  503 -0.00000000000E+00 -0.00000000000E+00 -0.13855415394E+02  0.13855415394E+02  0.00000000000E+00 0.  1.
         24    1    1    2    0    0  0.82395555672E+01 -0.64504318051E+01  0.28229438425E+03  0.29371216127E+03  0.80419002446E+02 0. -1.
          1    1    1    2  501    0 -0.58461886935E+01 -0.20251646107E+02  0.60377345928E+02  0.63951004633E+02  0.00000000000E+00 0. -1.
         -2    1    1    2    0  503 -0.23933668736E+01  0.26702077912E+02  0.21893578918E+02  0.34612973979E+02  0.00000000000E+00 0.  1.
<mgrwt>
<rscale>  2 0.64492331E+02</rscale>
<asrwt>0</asrwt>
<pdfrwt beam="1">  1       21 0.58218565E-01 0.64492331E+02</pdfrwt>
<pdfrwt beam="2">  1       21 0.21316027E-02 0.64492331E+02</pdfrwt>
<totfact> 0.29528011E+06</totfact>
</mgrwt>
</event>
<event>
 5    1  0.1590180E+000  0.1128185E+03  0.7546771E-02  0.1255438E+00
         21   -1    0    0  501  502  0.00000000000E+00  0.00000000000E+00  0.14431669953E+02  0.14431669953E+02  0.00000000000E+00 0. -1.
         21   -1    0    0  502  503 -0.00000000000E+00 -0.00000000000E+00 -0.95967291021E+03  0.95967291021E+03  0.00000000000E+00 0. -1.
         24    1    1    2    0    0 -0.54002986554E+02 -0.51027212953E+02 -0.33163572253E+03  0.34924141712E+03  0.80419002446E+02 0. -1.
          1    1    1    2  501    0  0.34599713206E+02  0.76598755358E+02 -0.38910484100E+03  0.39807924684E+03  0.00000000000E+00 0. -1.
         -2    1    1    2    0  503  0.19403273347E+02 -0.25571542405E+02 -0.22450067672E+03  0.22678391620E+03  0.00000000000E+00 0.  1.
<mgrwt>
<rscale>  2 0.11281847E+03</rscale>
<asrwt>0</asrwt>
<pdfrwt beam="1">  1       21 0.22202570E-02 0.11281847E+03</pdfrwt>
<pdfrwt beam="2">  1       21 0.14764198E+00 0.11281847E+03</pdfrwt>
<totfact> 0.33197973E+05</totfact>
</mgrwt>
</event>
<event>
 5    1  0.1590180E+000  0.9698165E+02  0.7546771E-02  0.1286774E+00
         21   -1    0    0  503  502  0.00000000000E+00  0.00000000000E+00  0.31127406713E+02  0.31127406713E+02  0.00000000000E+00 0.  1.
         21   -1    0    0  501  503 -0.00000000000E+00 -0.00000000000E+00 -0.71965321772E+03  0.71965321772E+03  0.00000000000E+00 0. -1.
         24    1    1    2    0    0 -0.46521088239E+02 -0.50866781803E+02 -0.14126345753E+03  0.17656223132E+03  0.80419002446E+02 0.  1.
          1    1    1    2  501    0  0.35632376383E+02 -0.39920004600E+00 -0.50668498632E+03  0.50793651273E+03  0.00000000000E+00 0. -1.
         -2    1    1    2    0  502  0.10888711856E+02  0.51265981849E+02 -0.40577367157E+02  0.66281880376E+02  0.00000000000E+00 0.  1.
<mgrwt>
<rscale>  2 0.96981654E+02</rscale>
<asrwt>0</asrwt>
<pdfrwt beam="1">  1       21 0.47888318E-02 0.96981654E+02</pdfrwt>
<pdfrwt beam="2">  1       21 0.11071588E+00 0.96981654E+02</pdfrwt>
<totfact> 0.19244868E+05</totfact>
</mgrwt>
</event>
<event>
 5    1  0.1590180E+000  0.8137245E+02  0.7546771E-02  0.1325201E+00
         21   -1    0    0  501  502  0.00000000000E+00  0.00000000000E+00  0.14247881220E+03  0.14247881220E+03  0.00000000000E+00 0. -1.
         21   -1    0    0  502  503 -0.00000000000E+00 -0.00000000000E+00 -0.46749845897E+02  0.46749845897E+02  0.00000000000E+00 0. -1.
         24    1    1    2    0    0 -0.10855154487E+02 -0.22113674473E+02  0.56679513281E+02  0.10142303564E+03  0.80419002446E+02 0. -1.
          1    1    1    2  501    0  0.25040665654E+02  0.45123770362E+02  0.25063823066E+02  0.57370591898E+02  0.00000000000E+00 0. -1.
         -2    1    1    2    0  503 -0.14185511167E+02 -0.23010095889E+02  0.13985629953E+02  0.30435030558E+02  0.00000000000E+00 0.  1.
<mgrwt>
<rscale>  2 0.81372450E+02</rscale>
<asrwt>0</asrwt>
<pdfrwt beam="1">  1       21 0.21919817E-01 0.81372450E+02</pdfrwt>
<pdfrwt beam="2">  1       21 0.71922840E-02 0.81372450E+02</pdfrwt>
<totfact> 0.27258599E+06</totfact>
</mgrwt>
</event>
<event>
 5    1  0.1590180E+000  0.8260744E+02  0.7546771E-02  0.1321811E+00
         21   -1    0    0  503  502  0.00000000000E+00  0.00000000000E+00  0.22592316139E+02  0.22592316139E+02  0.00000000000E+00 0. -1.
         21   -1    0    0  501  503 -0.00000000000E+00 -0.00000000000E+00 -0.38470560809E+03  0.38470560809E+03  0.00000000000E+00 0. -1.
         24    1    1    2    0    0 -0.26811221500E+02 -0.10781710971E+02 -0.15178206886E+03  0.17418409592E+03  0.80419002446E+02 0. -1.
          1    1    1    2  501    0  0.36867417443E+02 -0.23710104463E+02 -0.18243611979E+03  0.18762812510E+03  0.00000000000E+00 0. -1.
         -2    1    1    2    0  502 -0.10056195943E+02  0.34491815434E+02 -0.27895103301E+02  0.45485703215E+02  0.00000000000E+00 0.  1.
<mgrwt>
<rscale>  2 0.82607444E+02</rscale>
<asrwt>0</asrwt>
<pdfrwt beam="1">  1       21 0.34757409E-02 0.82607444E+02</pdfrwt>
<pdfrwt beam="2">  1       21 0.59185479E-01 0.82607444E+02</pdfrwt>
<totfact> 0.13117988E+06</totfact>
</mgrwt>
</event>
<event>
 5    1  0.1590180E+000  0.6935805E+02  0.7546771E-02  0.1362290E+00
         21   -1    0    0  501  502  0.00000000000E+00  0.00000000000E+00  0.22640177612E+02  0.22640177612E+02  0.00000000000E+00 0. -1.
         21   -1    0    0  502  503 -0.00000000000E+00 -0.00000000000E+00 -0.24315914549E+03  0.24315914549E+03  0.00000000000E+00 0. -1.
         24    1    1    2    0    0 -0.12366096072E+02  0.96743285651E+01 -0.14330272671E+03  0.16507392405E+03  0.80419002446E+02 0. -1.
          1    1    1    2  501    0  0.65160769713E+01 -0.32535178310E+02 -0.19777541145E+02  0.38628334426E+02  0.00000000000E+00 0. -1.
         -2    1    1    2    0  503  0.58500191008E+01  0.22860849745E+02 -0.57438700016E+02  0.62097064617E+02  0.00000000000E+00 0.  1.
<mgrwt>
<rscale>  2 0.69358053E+02</rscale>
<asrwt>0</asrwt>
<pdfrwt beam="1">  1       21 0.34831044E-02 0.69358053E+02</pdfrwt>
<pdfrwt beam="2">  1       21 0.37409098E-01 0.69358053E+02</pdfrwt>
<totfact> 0.32695232E+06</totfact>
</mgrwt>
</event>
<event>
 5    1  0.1590180E+000  0.8794072E+02  0.7546771E-02  0.1307917E+00
         21   -1    0    0  501  502  0.00000000000E+00  0.00000000000E+00  0.57519934934E+03  0.57519934934E+03  0.00000000000E+00 0. -1.
         21   -1    0    0  502  503 -0.00000000000E+00 -0.00000000000E+00 -0.16446835859E+02  0.16446835859E+02  0.00000000000E+00 0. -1.
         24    1    1    2    0    0 -0.62762344558E+02  0.25734560363E+02  0.20282831361E+03  0.22849052551E+03  0.80419002446E+02 0. -1.
          1    1    1    2  501    0  0.34222571629E+02 -0.24535536987E+02  0.24614773038E+03  0.24972361153E+03  0.00000000000E+00 0. -1.
         -2    1    1    2    0  503  0.28539772929E+02 -0.11990233764E+01  0.10977646949E+03  0.11343204816E+03  0.00000000000E+00 0.  1.
<mgrwt>
<rscale>  2 0.87940725E+02</rscale>
<asrwt>0</asrwt>
<pdfrwt beam="1">  1       21 0.88492192E-01 0.87940725E+02</pdfrwt>
<pdfrwt beam="2">  1       21 0.25302829E-02 0.87940725E+02</pdfrwt>
<totfact> 0.91923696E+05</totfact>
</mgrwt>
</event>
<event>
 5    1  0.1590180E+000  0.6877387E+02  0.7546771E-02  0.1364313E+00
         21   -1    0    0  501  502  0.00000000000E+00  0.00000000000E+00  0.37537399762E+02  0.37537399762E+02  0.00000000000E+00 0. -1.
         21   -1    0    0  502  503 -0.00000000000E+00 -0.00000000000E+00 -0.13550226517E+03  0.13550226517E+03  0.00000000000E+00 0.  1.
         24    1    1    2    0    0  0.19944553723E+02  0.70853157830E+00 -0.35923316919E+02  0.90310508209E+02  0.80419002446E+02 0. -1.
          1    1    1    2  501    0 -0.16702726673E+02 -0.25063790551E+02 -0.32654922531E+02  0.44424302365E+02  0.00000000000E+00 0. -1.
         -2    1    1    2    0  503 -0.32418270502E+01  0.24355258972E+02 -0.29386625958E+02  0.38304854359E+02  0.00000000000E+00 0.  1.
<mgrwt>
<rscale>  2 0.68773869E+02</rscale>
<asrwt>0</asrwt>
<pdfrwt beam="1">  1       21 0.57749847E-02 0.68773869E+02</pdfrwt>
<pdfrwt beam="2">  1       21 0.20846502E-01 0.68773869E+02</pdfrwt>
<totfact> 0.42743908E+06</totfact>
</mgrwt>
</event>
<event>
 5    1  0.1590180E+000  0.1161616E+03  0.7546771E-02  0.1249567E+00
         21   -1    0    0  501  502  0.00000000000E+00  0.00000000000E+00  0.54529328161E+02  0.54529328161E+02  0.00000000000E+00 0. -1.
         21   -1    0    0  502  503 -0.00000000000E+00 -0.00000000000E+00 -0.91406300034E+03  0.91406300034E+03  0.00000000000E+00 0. -1.
         24    1    1    2    0    0  0.39318770457E+02  0.64111556875E+02 -0.60292144754E+03  0.61289293135E+03  0.80419002446E+02 0. -1.
          1    1    1    2  501    0 -0.27039386719E+02 -0.89779332171E+02  0.37009244879E+01  0.93835780816E+02  0.00000000000E+00 0. -1.
         -2    1    1    2    0  503 -0.12279383738E+02  0.25667775296E+02 -0.26031314912E+03  0.26186361633E+03  0.00000000000E+00 0.  1.
<mgrwt>
<rscale>  2 0.11616160E+03</rscale>
<asrwt>0</asrwt>
<pdfrwt beam="1">  1       21 0.83891269E-02 0.11616160E+03</pdfrwt>
<pdfrwt beam="2">  1       21 0.14062508E+00 0.11616160E+03</pdfrwt>
<totfact> 0.41031096E+04</totfact>
</mgrwt>
</event>
<event>
 5    1  0.1590180E+000  0.1147364E+03  0.7546771E-02  0.1252042E+00
         21   -1    0    0  503  502  0.00000000000E+00  0.00000000000E+00  0.34600865434E+03  0.34600865434E+03  0.00000000000E+00 0.  1.
         21   -1    0    0  501  503 -0.00000000000E+00 -0.00000000000E+00 -0.49988537591E+02  0.49988537591E+02  0.00000000000E+00 0. -1.
         24    1    1    2    0    0 -0.51189013379E+02  0.68237535827E+02  0.98756861520E+02  0.15328669231E+03  0.80419002446E+02 0. -1.
          1    1    1    2  501    0  0.34375642580E+02 -0.83017006862E+02  0.71110963286E+02  0.11458742222E+03  0.00000000000E+00 0. -1.
         -2    1    1    2    0  502  0.16813370799E+02  0.14779471035E+02  0.12615229194E+03  0.12812307741E+03  0.00000000000E+00 0.  1.
<mgrwt>
<rscale>  2 0.11473640E+03</rscale>
<asrwt>0</asrwt>
<pdfrwt beam="1">  1       21 0.53232099E-01 0.11473640E+03</pdfrwt>
<pdfrwt beam="2">  1       21 0.76905444E-02 0.11473640E+03</pdfrwt>
<totfact> 0.43465967E+05</totfact>
</mgrwt>
</event>
<event>
 5    1  0.1590180E+000  0.7403001E+02  0.7546771E-02  0.1346901E+00
         21   -1    0    0  501  502  0.00000000000E+00  0.00000000000E+00  0.98509521542E+02  0.98509521542E+02  0.00000000000E+00 0. -1.
         21   -1    0    0  502  503 -0.00000000000E+00 -0.00000000000E+00 -0.21931624302E+03  0.21931624302E+03  0.00000000000E+00 0.  1.
         24    1    1    2    0    0  0.28668139342E+02  0.25671556711E+02 -0.54363601757E+02  0.10441986491E+03  0.80419002446E+02 0.  1.
          1    1    1    2  501    0 -0.16719492190E+02  0.11216195657E+02  0.69335426888E+02  0.72199348237E+02  0.00000000000E+00 0. -1.
         -2    1    1    2    0  503 -0.11948647151E+02 -0.36887752368E+02 -0.13577854660E+03  0.14120655141E+03  0.00000000000E+00 0.  1.
<mgrwt>
<rscale>  2 0.74030006E+02</rscale>
<asrwt>0</asrwt>
<pdfrwt beam="1">  1       21 0.15155311E-01 0.74030006E+02</pdfrwt>
<pdfrwt beam="2">  1       21 0.33740960E-01 0.74030006E+02</pdfrwt>
<totfact> 0.33246528E+05</totfact>
</mgrwt>
</event>
<event>
 5    1  0.1590180E+000  0.7816722E+02  0.7546771E-02  0.1334335E+00
         21   -1    0    0  501  502  0.00000000000E+00  0.00000000000E+00  0.39511534248E+03  0.39511534248E+03  0.00000000000E+00 0. -1.
         21   -1    0    0  502  503 -0.00000000000E+00 -0.00000000000E+00 -0.53101615829E+02  0.53101615829E+02  0.00000000000E+00 0. -1.
         24    1    1    2    0    0 -0.16001866765E+02 -0.25184819679E+02 -0.55064538628E+01  0.85952730444E+02  0.80419002446E+02 0. -1.
          1    1    1    2  501    0  0.39716679946E+02  0.24832450859E+02  0.32860801763E+03  0.33192965299E+03  0.00000000000E+00 0. -1.
         -2    1    1    2    0  503 -0.23714813181E+02  0.35236881996E+00  0.18912162881E+02  0.30334574875E+02  0.00000000000E+00 0.  1.
<mgrwt>
<rscale>  2 0.78167224E+02</rscale>
<asrwt>0</asrwt>
<pdfrwt beam="1">  1       21 0.60786974E-01 0.78167224E+02</pdfrwt>
<pdfrwt beam="2">  1       21 0.81694796E-02 0.78167224E+02</pdfrwt>
<totfact> 0.29875605E+05</totfact>
</mgrwt>
</event>
<event>
 5    1  0.1590180E+000  0.1264816E+03  0.7546771E-02  0.1232772E+00
         21   -1    0    0  501  502  0.00000000000E+00  0.00000000000E+00  0.26337528298E+03  0.26337528298E+03  0.00000000000E+00 0.  1.
         21   -1    0    0  502  503 -0.00000000000E+00 -0.00000000000E+00 -0.10371155159E+03  0.10371155159E+03  0.00000000000E+00 0. -1.
         24    1    1    2    0    0 -0.77874380334E+02 -0.32450480579E+02 -0.38825772251E+02  0.12284994647E+03  0.80419002446E+02 0.  1.
          1    1    1    2  501    0  0.88032558174E+02  0.60340651899E+02  0.18001324838E+03  0.20927373262E+03  0.00000000000E+00 0. -1.
         -2    1    1    2    0  503 -0.10158177840E+02 -0.27890171320E+02  0.18476255264E+02  0.34963155491E+02  0.00000000000E+00 0.  1.
<mgrwt>
<rscale>  2 0.12648156E+03</rscale>
<asrwt>0</asrwt>
<pdfrwt beam="1">  1       21 0.40519274E-01 0.12648156E+03</pdfrwt>
<pdfrwt beam="2">  1       21 0.15955623E-01 0.12648156E+03</pdfrwt>
<totfact> 0.20933843E+05</totfact>
</mgrwt>
</event>
<event>
 5    1  0.1590180E+000  0.7469276E+02  0.7546771E-02  0.1344825E+00
         21   -1    0    0  501  502  0.00000000000E+00  0.00000000000E+00  0.30117683057E+02  0.30117683057E+02  0.00000000000E+00 0. -1.
         21   -1    0    0  502  503 -0.00000000000E+00 -0.00000000000E+00 -0.25527609553E+03  0.25527609553E+03  0.00000000000E+00 0.  1.
         24    1    1    2    0    0 -0.58023162652E+01 -0.15427785645E+01 -0.86076789943E+02  0.11795116261E+03  0.80419002446E+02 0. -1.
          1    1    1    2  501    0  0.37205465085E+02  0.28321598728E+01 -0.16327955226E+02  0.40729226405E+02  0.00000000000E+00 0. -1.
         -2    1    1    2    0  503 -0.31403148820E+02 -0.12893813083E+01 -0.12275366730E+03  0.12671338957E+03  0.00000000000E+00 0.  1.
<mgrwt>
<rscale>  2 0.74692762E+02</rscale>
<asrwt>0</asrwt>
<pdfrwt beam="1">  1       21 0.46334897E-02 0.74692762E+02</pdfrwt>
<pdfrwt beam="2">  1       21 0.39273245E-01 0.74692762E+02</pdfrwt>
<totfact> 0.18710637E+06</totfact>
</mgrwt>
</event>
<event>
 5    1  0.1590180E+000  0.8180403E+02  0.7546771E-02  0.1324008E+00
         21   -1    0    0  501  502  0.00000000000E+00  0.00000000000E+00  0.14148105500E+03  0.14148105500E+03  0.00000000000E+00 0. -1.
         21   -1    0    0  502  503 -0.00000000000E+00 -0.00000000000E+00 -0.12525550053E+03  0.12525550053E+03  0.00000000000E+00 0.  1.
         24    1    1    2    0    0  0.80789759145E+01 -0.32429632705E+02  0.83478804678E+02  0.12063530874E+03  0.80419002446E+02 0. -1.
          1    1    1    2  501    0 -0.38632591978E+02  0.20364747703E+02  0.23494997787E+02  0.49590473208E+02  0.00000000000E+00 0. -1.
         -2    1    1    2    0  503  0.30553616064E+02  0.12064885002E+02 -0.90748247996E+02  0.96510773590E+02  0.00000000000E+00 0.  1.
<mgrwt>
<rscale>  2 0.81804026E+02</rscale>
<asrwt>0</asrwt>
<pdfrwt beam="1">  1       21 0.21766316E-01 0.81804026E+02</pdfrwt>
<pdfrwt beam="2">  1       21 0.19270077E-01 0.81804026E+02</pdfrwt>
<totfact> 0.49216667E+05</totfact>
</mgrwt>
</event>
<event>
 5    1  0.1590180E+000  0.6870275E+02  0.7546771E-02  0.1364561E+00
         21   -1    0    0  503  502  0.00000000000E+00  0.00000000000E+00  0.18424984405E+04  0.18424984405E+04  0.00000000000E+00 0. -1.
         21   -1    0    0  501  503 -0.00000000000E+00 -0.00000000000E+00 -0.30853671126E+01  0.30853671126E+01  0.00000000000E+00 0.  1.
         24    1    1    2    0    0  0.36283800891E+02  0.14340456822E+02  0.93642624641E+03  0.94068246174E+03  0.80419002446E+02 0. -1.
          1    1    1    2  501    0 -0.14427723657E+02 -0.20725216381E+02  0.20590372229E+03  0.20744646696E+03  0.00000000000E+00 0. -1.
         -2    1    1    2    0  502 -0.21856077234E+02  0.63847595591E+01  0.69708310472E+03  0.69745487894E+03  0.00000000000E+00 0.  1.
<mgrwt>
<rscale>  2 0.68702747E+02</rscale>
<asrwt>0</asrwt>
<pdfrwt beam="1">  1       21 0.28346042E+00 0.68702747E+02</pdfrwt>
<pdfrwt beam="2">  1       21 0.47467333E-03 0.68702747E+02</pdfrwt>
<totfact> 0.56844732E+05</totfact>
</mgrwt>
</event>
<event>
 5    1  0.1590180E+000  0.9002971E+02  0.7546771E-02  0.1302780E+00
         21   -1    0    0  501  502  0.00000000000E+00  0.00000000000E+00  0.63672910920E+03  0.63672910920E+03  0.00000000000E+00 0.  1.
         21   -1    0    0  502  503 -0.00000000000E+00 -0.00000000000E+00 -0.42748088011E+02  0.42748088011E+02  0.00000000000E+00 0.  1.
         24    1    1    2    0    0  0.11984809866E+02 -0.54817123244E+02  0.53050296738E+03  0.53948972837E+03  0.80419002446E+02 0.  1.
          1    1    1    2  501    0 -0.36427977914E+02  0.35223925667E+02  0.87089837017E+02  0.10075893125E+03  0.00000000000E+00 0. -1.
         -2    1    1    2    0  503  0.24443168048E+02  0.19593197577E+02 -0.23611783205E+02  0.39228537592E+02  0.00000000000E+00 0.  1.
<mgrwt>
<rscale>  2 0.90029711E+02</rscale>
<asrwt>0</asrwt>
<pdfrwt beam="1">  1       21 0.97958318E-01 0.90029711E+02</pdfrwt>
<pdfrwt beam="2">  1       21 0.65766294E-02 0.90029711E+02</pdfrwt>
<totfact> 0.15102398E+05</totfact>
</mgrwt>
</event>
<event>
 5    1  0.1590180E+000  0.1283133E+03  0.7546771E-02  0.1229980E+00
         21   -1    0    0  501  502  0.00000000000E+00  0.00000000000E+00  0.43051445672E+02  0.43051445672E+02  0.00000000000E+00 0.  1.
         21   -1    0    0  502  503 -0.00000000000E+00 -0.00000000000E+00 -0.42475103283E+03  0.42475103283E+03  0.00000000000E+00 0.  1.
         24    1    1    2    0    0  0.41062019968E+02 -0.16857126776E+02 -0.71990136436E+02  0.11670496093E+03  0.80419002446E+02 0.  1.
          1    1    1    2  501    0  0.32835744308E+02  0.67583583999E+02 -0.12637531044E+03  0.14702532441E+03  0.00000000000E+00 0. -1.
         -2    1    1    2    0  503 -0.73897764276E+02 -0.50726457223E+02 -0.18333414028E+03  0.20407219316E+03  0.00000000000E+00 0.  1.
<mgrwt>
<rscale>  2 0.12831331E+03</rscale>
<asrwt>0</asrwt>
<pdfrwt beam="1">  1       21 0.66232992E-02 0.12831331E+03</pdfrwt>
<pdfrwt beam="2">  1       21 0.65346314E-01 0.12831331E+03</pdfrwt>
<totfact> 0.36308665E+05</totfact>
</mgrwt>
</event>
<event>
 5    1  0.1590180E+000  0.1388172E+03  0.7546771E-02  0.1214929E+00
         21   -1    0    0  501  502  0.00000000000E+00  0.00000000000E+00  0.59968969319E+03  0.59968969319E+03  0.00000000000E+00 0. -1.
         21   -1    0    0  502  503 -0.00000000000E+00 -0.00000000000E+00 -0.46012998536E+02  0.46012998536E+02  0.00000000000E+00 0.  1.
         24    1    1    2    0    0  0.29189382154E+01  0.15173300449E+02  0.17535037810E+03  0.19352963675E+03  0.80419002446E+02 0. -1.
          1    1    1    2  501    0 -0.29117207288E+02 -0.10146666159E+03  0.33667588887E+03  0.35283700106E+03  0.00000000000E+00 0. -1.
         -2    1    1    2    0  503  0.26198269073E+02  0.86293361145E+02  0.41650427686E+02  0.99336053910E+02  0.00000000000E+00 0.  1.
<mgrwt>
<rscale>  2 0.13881716E+03</rscale>
<asrwt>0</asrwt>
<pdfrwt beam="1">  1       21 0.92259947E-01 0.13881716E+03</pdfrwt>
<pdfrwt beam="2">  1       21 0.70789233E-02 0.13881716E+03</pdfrwt>
<totfact> 0.14998673E+05</totfact>
</mgrwt>
</event>
<event>
 5    1  0.1590180E+000  0.8123131E+02  0.7546771E-02  0.1325593E+00
         21   -1    0    0  503  502  0.00000000000E+00  0.00000000000E+00  0.43983223800E+03  0.43983223800E+03  0.00000000000E+00 0.  1.
         21   -1    0    0  501  503 -0.00000000000E+00 -0.00000000000E+00 -0.40076057845E+02  0.40076057845E+02  0.00000000000E+00 0. -1.
         24    1    1    2    0    0  0.38522741906E+02  0.42177557962E+01  0.22044018652E+03  0.23782952486E+03  0.80419002446E+02 0.  1.
          1    1    1    2  501    0  0.50557109856E+01  0.21840612134E+02 -0.23809871260E+02  0.32702943619E+02  0.00000000000E+00 0. -1.
         -2    1    1    2    0  502 -0.43578452891E+02 -0.26058367930E+02  0.20312586490E+03  0.20937582737E+03  0.00000000000E+00 0.  1.
<mgrwt>
<rscale>  2 0.81231308E+02</rscale>
<asrwt>0</asrwt>
<pdfrwt beam="1">  1       21 0.67666495E-01 0.81231308E+02</pdfrwt>
<pdfrwt beam="2">  1       21 0.61655477E-02 0.81231308E+02</pdfrwt>
<totfact> 0.38296078E+05</totfact>
</mgrwt>
</event>
<event>
 5    1  0.1590180E+000  0.7526377E+02  0.7546771E-02  0.1343056E+00
         21   -1    0    0  503  502  0.00000000000E+00  0.00000000000E+00  0.47503340957E+02  0.47503340957E+02  0.00000000000E+00 0. -1.
         21   -1    0    0  501  503 -0.00000000000E+00 -0.00000000000E+00 -0.14403412250E+03  0.14403412250E+03  0.00000000000E+00 0. -1.
         24    1    1    2    0    0 -0.12280836453E+02 -0.30748807120E+02 -0.86966552919E+02  0.12299067186E+03  0.80419002446E+02 0. -1.
          1    1    1    2  501    0  0.33384626163E+02  0.12462692759E+02 -0.17241103203E+02  0.39586710074E+02  0.00000000000E+00 0. -1.
         -2    1    1    2    0  502 -0.21103789710E+02  0.18286114360E+02  0.76768745793E+01  0.28960081523E+02  0.00000000000E+00 0.  1.
<mgrwt>
<rscale>  2 0.75263772E+02</rscale>
<asrwt>0</asrwt>
<pdfrwt beam="1">  1       21 0.73082064E-02 0.75263772E+02</pdfrwt>
<pdfrwt beam="2">  1       21 0.22159095E-01 0.75263772E+02</pdfrwt>
<totfact> 0.25904298E+06</totfact>
</mgrwt>
</event>
<event>
 5    1  0.1590180E+000  0.1022251E+03  0.7546771E-02  0.1275685E+00
         21   -1    0    0  503  502  0.00000000000E+00  0.00000000000E+00  0.25575301807E+02  0.25575301807E+02  0.00000000000E+00 0. -1.
         21   -1    0    0  501  503 -0.00000000000E+00 -0.00000000000E+00 -0.60739674838E+03  0.60739674838E+03  0.00000000000E+00 0.  1.
         24    1    1    2    0    0 -0.12143710722E+02  0.25632135619E+02 -0.13913162754E+03  0.16318487008E+03  0.80419002446E+02 0. -1.
          1    1    1    2  501    0  0.33482675506E+02  0.38830816630E+02 -0.35597996006E+03  0.35965351916E+03  0.00000000000E+00 0. -1.
         -2    1    1    2    0  502 -0.21338964783E+02 -0.64462952248E+02 -0.86709858972E+02  0.11013366095E+03  0.00000000000E+00 0.  1.
<mgrwt>
<rscale>  2 0.10222514E+03</rscale>
<asrwt>0</asrwt>
<pdfrwt beam="1">  1       21 0.39346620E-02 0.10222514E+03</pdfrwt>
<pdfrwt beam="2">  1       21 0.93445649E-01 0.10222514E+03</pdfrwt>
<totfact> 0.39504997E+05</totfact>
</mgrwt>
</event>
<event>
 5    1  0.1590180E+000  0.8041074E+02  0.7546771E-02  0.1327890E+00
         21   -1    0    0  501  502  0.00000000000E+00  0.00000000000E+00  0.91628476763E+02  0.91628476763E+02  0.00000000000E+00 0. -1.
         21   -1    0    0  502  503 -0.00000000000E+00 -0.00000000000E+00 -0.73699035553E+02  0.73699035553E+02  0.00000000000E+00 0. -1.
         24    1    1    2    0    0  0.19837909635E+02  0.51592288888E+02  0.46325504890E+01  0.97693313025E+02  0.80419002446E+02 0. -1.
          1    1    1    2  501    0 -0.25303794858E+02 -0.23216882065E+02  0.17314770331E+02  0.38459159100E+02  0.00000000000E+00 0. -1.
         -2    1    1    2    0  503  0.54658852235E+01 -0.28375406823E+02 -0.40178796101E+01  0.29175040192E+02  0.00000000000E+00 0.  1.
<mgrwt>
<rscale>  2 0.80410743E+02</rscale>
<asrwt>0</asrwt>
<pdfrwt beam="1">  1       21 0.14096689E-01 0.80410743E+02</pdfrwt>
<pdfrwt beam="2">  1       21 0.11338313E-01 0.80410743E+02</pdfrwt>
<totfact> 0.27661116E+06</totfact>
</mgrwt>
</event>
<event>
 5    1  0.1590180E+000  0.8308746E+02  0.7546771E-02  0.1320511E+00
         21   -1    0    0  501  502  0.00000000000E+00  0.00000000000E+00  0.36790361306E+02  0.36790361306E+02  0.00000000000E+00 0.  1.
         21   -1    0    0  502  503 -0.00000000000E+00 -0.00000000000E+00 -0.20463125486E+03  0.20463125486E+03  0.00000000000E+00 0. -1.
         24    1    1    2    0    0 -0.55761294748E+02 -0.24659855980E+02 -0.66685141153E+02  0.12096096269E+03  0.80419002446E+02 0.  0.
          1    1    1    2  501    0  0.20279321960E+02  0.21622316028E+02 -0.41878335536E+02  0.51308580538E+02  0.00000000000E+00 0. -1.
         -2    1    1    2    0  503  0.35481972789E+02  0.30375399520E+01 -0.59277416871E+02  0.69152072946E+02  0.00000000000E+00 0.  1.
<mgrwt>
<rscale>  2 0.83087455E+02</rscale>
<asrwt>0</asrwt>
<pdfrwt beam="1">  1       21 0.56600556E-02 0.83087455E+02</pdfrwt>
<pdfrwt beam="2">  1       21 0.31481731E-01 0.83087455E+02</pdfrwt>
<totfact> 0.20692912E+06</totfact>
</mgrwt>
</event>
<event>
 5    1  0.1590180E+000  0.7822393E+02  0.7546771E-02  0.1334169E+00
         21   -1    0    0  501  502  0.00000000000E+00  0.00000000000E+00  0.22977314882E+02  0.22977314882E+02  0.00000000000E+00 0.  1.
         21   -1    0    0  502  503 -0.00000000000E+00 -0.00000000000E+00 -0.28404245756E+03  0.28404245756E+03  0.00000000000E+00 0.  1.
         24    1    1    2    0    0 -0.27323316258E+02 -0.22086331909E+02 -0.14018645458E+03  0.16538992615E+03  0.80419002446E+02 0.  1.
          1    1    1    2  501    0 -0.18850814330E+02  0.71086371269E+01 -0.14884111203E+02  0.25048406915E+02  0.00000000000E+00 0. -1.
         -2    1    1    2    0  503  0.46174130588E+02  0.14977694782E+02 -0.10599457689E+03  0.11658143938E+03  0.00000000000E+00 0.  1.
<mgrwt>
<rscale>  2 0.78223932E+02</rscale>
<asrwt>0</asrwt>
<pdfrwt beam="1">  1       21 0.35349713E-02 0.78223932E+02</pdfrwt>
<pdfrwt beam="2">  1       21 0.43698842E-01 0.78223932E+02</pdfrwt>
<totfact> 0.23655078E+06</totfact>
</mgrwt>
</event>
<event>
 5    1  0.1590180E+000  0.7229202E+02  0.7546771E-02  0.1352468E+00
         21   -1    0    0  503  502  0.00000000000E+00  0.00000000000E+00  0.39879060966E+03  0.39879060966E+03  0.00000000000E+00 0. -1.
         21   -1    0    0  501  503 -0.00000000000E+00 -0.00000000000E+00 -0.13840503981E+02  0.13840503981E+02  0.00000000000E+00 0.  1.
         24    1    1    2    0    0  0.56897238162E+01 -0.19097359678E+02  0.17996323086E+03  0.19811880910E+03  0.80419002446E+02 0.  1.
          1    1    1    2  501    0 -0.15869487598E+02  0.37490397299E+02  0.11174181365E+03  0.11892688277E+03  0.00000000000E+00 0. -1.
         -2    1    1    2    0  502  0.10179763782E+02 -0.18393037621E+02  0.93245061164E+02  0.95585421771E+02  0.00000000000E+00 0.  1.
<mgrwt>
<rscale>  2 0.72292020E+02</rscale>
<asrwt>0</asrwt>
<pdfrwt beam="1">  1       21 0.61352393E-01 0.72292020E+02</pdfrwt>
<pdfrwt beam="2">  1       21 0.21293086E-02 0.72292020E+02</pdfrwt>
<totfact> 0.26682507E+06</totfact>
</mgrwt>
</event>
<event>
 5    1  0.1590180E+000  0.7088722E+02  0.7546771E-02  0.1357102E+00
         21   -1    0    0  501  502  0.00000000000E+00  0.00000000000E+00  0.13612924751E+04  0.13612924751E+04  0.00000000000E+00 0.  1.
         21   -1    0    0  502  503 -0.00000000000E+00 -0.00000000000E+00 -0.46177276900E+01  0.46177276900E+01  0.00000000000E+00 0.  1.
         24    1    1    2    0    0 -0.64276472866E+01  0.22027101933E+02  0.10610836898E+04  0.10643741451E+04  0.80419002446E+02 0.  1.
          1    1    1    2  501    0 -0.13002358949E+02 -0.33254015158E+02  0.21197575833E+03  0.21496188727E+03  0.00000000000E+00 0. -1.
         -2    1    1    2    0  503  0.19430006236E+02  0.11226913225E+02  0.83615299246E+02  0.86574170460E+02  0.00000000000E+00 0.  1.
<mgrwt>
<rscale>  2 0.70887219E+02</rscale>
<asrwt>0</asrwt>
<pdfrwt beam="1">  1       21 0.20942929E+00 0.70887219E+02</pdfrwt>
<pdfrwt beam="2">  1       21 0.71042073E-03 0.70887219E+02</pdfrwt>
<totfact> 0.79054308E+05</totfact>
</mgrwt>
</event>
<event>
 5    1  0.1590180E+000  0.6470938E+02  0.7546771E-02  0.1379068E+00
         21   -1    0    0  501  502  0.00000000000E+00  0.00000000000E+00  0.13713968541E+03  0.13713968541E+03  0.00000000000E+00 0.  1.
         21   -1    0    0  502  503 -0.00000000000E+00 -0.00000000000E+00 -0.36775228058E+02  0.36775228058E+02  0.00000000000E+00 0. -1.
         24    1    1    2    0    0  0.25353251487E+02  0.16090942962E+02  0.90254505922E+02  0.12455841039E+03  0.80419002446E+02 0.  1.
          1    1    1    2  501    0 -0.19485446601E+02  0.62613061222E+01  0.15443279019E+02  0.25639451056E+02  0.00000000000E+00 0. -1.
         -2    1    1    2    0  503 -0.58678048867E+01 -0.22352249084E+02 -0.53333275884E+01  0.23717052019E+02  0.00000000000E+00 0.  1.
<mgrwt>
<rscale>  2 0.64709378E+02</rscale>
<asrwt>0</asrwt>
<pdfrwt beam="1">  1       21 0.21098413E-01 0.64709378E+02</pdfrwt>
<pdfrwt beam="2">  1       21 0.56577275E-02 0.64709378E+02</pdfrwt>
<totfact> 0.43076683E+06</totfact>
</mgrwt>
</event>
<event>
 5    1  0.1590180E+000  0.8581540E+02  0.7546771E-02  0.1313314E+00
         21   -1    0    0  503  502  0.00000000000E+00  0.00000000000E+00  0.20797789724E+03  0.20797789724E+03  0.00000000000E+00 0. -1.
         21   -1    0    0  501  503 -0.00000000000E+00 -0.00000000000E+00 -0.55252104178E+02  0.55252104178E+02  0.00000000000E+00 0. -1.
         24    1    1    2    0    0  0.13657861615E+01 -0.51322031530E+01  0.96883268317E+02  0.12602296820E+03  0.80419002446E+02 0.  0.
          1    1    1    2  501    0  0.28262988971E+02 -0.32545534962E+02 -0.19975639522E+02  0.47508257869E+02  0.00000000000E+00 0. -1.
         -2    1    1    2    0  502 -0.29628775132E+02  0.37677738115E+02  0.75818164270E+02  0.89698775346E+02  0.00000000000E+00 0.  1.
<mgrwt>
<rscale>  2 0.85815396E+02</rscale>
<asrwt>0</asrwt>
<pdfrwt beam="1">  1       21 0.31996599E-01 0.85815396E+02</pdfrwt>
<pdfrwt beam="2">  1       21 0.85003238E-02 0.85815396E+02</pdfrwt>
<totfact> 0.10094860E+06</totfact>
</mgrwt>
</event>
<event>
 5    1  0.1590180E+000  0.7190306E+02  0.7546771E-02  0.1353739E+00
         21   -1    0    0  503  502  0.00000000000E+00  0.00000000000E+00  0.43622246720E+02  0.43622246720E+02  0.00000000000E+00 0. -1.
         21   -1    0    0  501  503 -0.00000000000E+00 -0.00000000000E+00 -0.83611980039E+03  0.83611980039E+03  0.00000000000E+00 0. -1.
         24    1    1    2    0    0  0.68416795804E+01 -0.95218399345E+01 -0.68388623199E+02  0.10621531788E+03  0.80419002446E+02 0. -1.
          1    1    1    2  501    0  0.27466212597E+02  0.32091933616E+01 -0.73611530706E+03  0.73663453424E+03  0.00000000000E+00 0. -1.
         -2    1    1    2    0  502 -0.34307892177E+02  0.63126465729E+01  0.12006376583E+02  0.36892194988E+02  0.00000000000E+00 0.  1.
<mgrwt>
<rscale>  2 0.71903063E+02</rscale>
<asrwt>0</asrwt>
<pdfrwt beam="1">  1       21 0.67111152E-02 0.71903063E+02</pdfrwt>
<pdfrwt beam="2">  1       21 0.12863381E+00 0.71903063E+02</pdfrwt>
<totfact> 0.77586950E+04</totfact>
</mgrwt>
</event>
<event>
 5    1  0.1590180E+000  0.7085742E+02  0.7546771E-02  0.1357201E+00
         21   -1    0    0  501  502  0.00000000000E+00  0.00000000000E+00  0.49808004181E+02  0.49808004181E+02  0.00000000000E+00 0.  1.
         21   -1    0    0  502  503 -0.00000000000E+00 -0.00000000000E+00 -0.18692676009E+03  0.18692676009E+03  0.00000000000E+00 0.  1.
         24    1    1    2    0    0 -0.44653365355E+02  0.17482236207E+02 -0.10319253392E+03  0.13933939368E+03  0.80419002446E+02 0.  1.
          1    1    1    2  501    0  0.25764669726E+02 -0.82034223446E+01  0.23756974754E+02  0.35993168709E+02  0.00000000000E+00 0. -1.
         -2    1    1    2    0  503  0.18888695629E+02 -0.92788138627E+01 -0.57683196740E+02  0.61402201878E+02  0.00000000000E+00 0.  1.
<mgrwt>
<rscale>  2 0.70857420E+02</rscale>
<asrwt>0</asrwt>
<pdfrwt beam="1">  1       21 0.76627697E-02 0.70857420E+02</pdfrwt>
<pdfrwt beam="2">  1       21 0.28757964E-01 0.70857420E+02</pdfrwt>
<totfact> 0.14673750E+06</totfact>
</mgrwt>
</event>
<event>
 5    1  0.1590180E+000  0.1045434E+03  0.7546771E-02  0.1271022E+00
         21   -1    0    0  501  502  0.00000000000E+00  0.00000000000E+00  0.85510873023E+03  0.85510873023E+03  0.00000000000E+00 0. -1.
         21   -1    0    0  502  503 -0.00000000000E+00 -0.00000000000E+00 -0.31659894837E+02  0.31659894837E+02  0.00000000000E+00 0.  1.
         24    1    1    2    0    0  0.39962239313E+01 -0.14673742969E+02  0.39198958352E+03  0.40044267765E+03  0.80419002446E+02 0.  0.
          1    1    1    2  501    0 -0.38093545605E+02 -0.44727283763E+02  0.41052330109E+03  0.41470595470E+03  0.00000000000E+00 0. -1.
         -2    1    1    2    0  503  0.34097321674E+02  0.59401026731E+02  0.20935950789E+02  0.71619992722E+02  0.00000000000E+00 0.  1.
<mgrwt>
<rscale>  2 0.10454340E+03</rscale>
<asrwt>0</asrwt>
<pdfrwt beam="1">  1       21 0.13155517E+00 0.10454340E+03</pdfrwt>
<pdfrwt beam="2">  1       21 0.48707537E-02 0.10454340E+03</pdfrwt>
<totfact> 0.12281077E+05</totfact>
</mgrwt>
</event>
<event>
 5    1  0.1590180E+000  0.1176229E+03  0.7546771E-02  0.1247071E+00
         21   -1    0    0  503  502  0.00000000000E+00  0.00000000000E+00  0.23178080591E+03  0.23178080591E+03  0.00000000000E+00 0.  1.
         21   -1    0    0  501  503 -0.00000000000E+00 -0.00000000000E+00 -0.74362132023E+02  0.74362132023E+02  0.00000000000E+00 0. -1.
         24    1    1    2    0    0 -0.82907459995E+02  0.44503084184E+02  0.68643443957E+02  0.14153907509E+03  0.80419002446E+02 0.  0.
          1    1    1    2  501    0  0.28340769890E+02 -0.49114776698E+02 -0.40285658917E+01  0.56847953975E+02  0.00000000000E+00 0. -1.
         -2    1    1    2    0  502  0.54566690105E+02  0.46116925134E+01  0.92803795817E+02  0.10775590886E+03  0.00000000000E+00 0.  1.
<mgrwt>
<rscale>  2 0.11762292E+03</rscale>
<asrwt>0</asrwt>
<pdfrwt beam="1">  1       21 0.35658585E-01 0.11762292E+03</pdfrwt>
<pdfrwt beam="2">  1       21 0.11440328E-01 0.11762292E+03</pdfrwt>
<totfact> 0.48916660E+05</totfact>
</mgrwt>
</event>
<event>
 5    1  0.1590180E+000  0.6609322E+02  0.7546771E-02  0.1373906E+00
         21   -1    0    0  503  502  0.00000000000E+00  0.00000000000E+00  0.25504153023E+02  0.25504153023E+02  0.00000000000E+00 0. -1.
         21   -1    0    0  501  503 -0.00000000000E+00 -0.00000000000E+00 -0.18997810889E+03  0.18997810889E+03  0.00000000000E+00 0.  1.
         24    1    1    2    0    0 -0.36828421330E+01  0.15034450384E+02 -0.70157845849E+02  0.10783755057E+03  0.80419002446E+02 0. -1.
          1    1    1    2  501    0 -0.17140129900E+02 -0.22398794257E+02 -0.65685335159E+02  0.71484636756E+02  0.00000000000E+00 0. -1.
         -2    1    1    2    0  502  0.20822972034E+02  0.73643438724E+01 -0.28630774855E+02  0.36160074582E+02  0.00000000000E+00 0.  1.
<mgrwt>
<rscale>  2 0.66093220E+02</rscale>
<asrwt>0</asrwt>
<pdfrwt beam="1">  1       21 0.39237159E-02 0.66093220E+02</pdfrwt>
<pdfrwt beam="2">  1       21 0.29227401E-01 0.66093220E+02</pdfrwt>
<totfact> 0.43066641E+06</totfact>
</mgrwt>
</event>
<event>
 5    1  0.1590180E+000  0.8324397E+02  0.7546771E-02  0.1320090E+00
         21   -1    0    0  501  502  0.00000000000E+00  0.00000000000E+00  0.12407342567E+02  0.12407342567E+02  0.00000000000E+00 0.  1.
         21   -1    0    0  502  503 -0.00000000000E+00 -0.00000000000E+00 -0.76679563703E+03  0.76679563703E+03  0.00000000000E+00 0.  1.
         24    1    1    2    0    0  0.10311752329E+02 -0.40008497365E+02 -0.34887452612E+03  0.36039931052E+03  0.80419002446E+02 0.  1.
          1    1    1    2  501    0 -0.14005003631E+02 -0.15243989853E+02 -0.18237822627E+02  0.27588721020E+02  0.00000000000E+00 0. -1.
         -2    1    1    2    0  503  0.36932513025E+01  0.55252487219E+02 -0.38727594572E+03  0.39121494806E+03  0.00000000000E+00 0.  1.
<mgrwt>
<rscale>  2 0.83243965E+02</rscale>
<asrwt>0</asrwt>
<pdfrwt beam="1">  1       21 0.19088213E-02 0.83243965E+02</pdfrwt>
<pdfrwt beam="2">  1       21 0.11796860E+00 0.83243965E+02</pdfrwt>
<totfact> 0.74157314E+05</totfact>
</mgrwt>
</event>
<event>
 5    1  0.1590180E+000  0.8448508E+02  0.7546771E-02  0.1316785E+00
         21   -1    0    0  503  502  0.00000000000E+00  0.00000000000E+00  0.10738112331E+03  0.10738112331E+03  0.00000000000E+00 0.  1.
         21   -1    0    0  501  503 -0.00000000000E+00 -0.00000000000E+00 -0.61495019791E+03  0.61495019791E+03  0.00000000000E+00 0. -1.
         24    1    1    2    0    0 -0.20440366825E+02  0.47912241240E+02  0.14257048072E+01  0.95826092716E+02  0.80419002446E+02 0.  0.
          1    1    1    2  501    0 -0.82481160686E+01 -0.43323325324E+02 -0.56324303011E+03  0.56496694851E+03  0.00000000000E+00 0. -1.
         -2    1    1    2    0  502  0.28688482894E+02 -0.45889159153E+01  0.54248250704E+02  0.61538279993E+02  0.00000000000E+00 0.  1.
<mgrwt>
<rscale>  2 0.84485080E+02</rscale>
<asrwt>0</asrwt>
<pdfrwt beam="1">  1       21 0.16520173E-01 0.84485080E+02</pdfrwt>
<pdfrwt beam="2">  1       21 0.94607722E-01 0.84485080E+02</pdfrwt>
<totfact> 0.33121730E+04</totfact>
</mgrwt>
</event>
<event>
 5    1  0.1590180E+000  0.1111495E+03  0.7546771E-02  0.1258456E+00
         21   -1    0    0  503  502  0.00000000000E+00  0.00000000000E+00  0.99856672602E+02  0.99856672602E+02  0.00000000000E+00 0.  1.
         21   -1    0    0  501  503 -0.00000000000E+00 -0.00000000000E+00 -0.12791082753E+03  0.12791082753E+03  0.00000000000E+00 0. -1.
         24    1    1    2    0    0  0.33535262416E+01  0.23110396072E+02  0.65704526374E+01  0.83998353240E+02  0.80419002446E+02 0.  0.
          1    1    1    2  501    0 -0.68092790002E+02  0.43588658761E+01 -0.25555422919E+02  0.72860877037E+02  0.00000000000E+00 0. -1.
         -2    1    1    2    0  502  0.64739263760E+02 -0.27469261948E+02 -0.90691846491E+01  0.70908269859E+02  0.00000000000E+00 0.  1.
<mgrwt>
<rscale>  2 0.11114952E+03</rscale>
<asrwt>0</asrwt>
<pdfrwt beam="1">  1       21 0.15362565E-01 0.11114952E+03</pdfrwt>
<pdfrwt beam="2">  1       21 0.19678589E-01 0.11114952E+03</pdfrwt>
<totfact> 0.89437110E+05</totfact>
</mgrwt>
</event>
<event>
 5    1  0.1590180E+000  0.7946064E+02  0.7546771E-02  0.1330589E+00
         21   -1    0    0  501  502  0.00000000000E+00  0.00000000000E+00  0.22993585327E+03  0.22993585327E+03  0.00000000000E+00 0.  1.
         21   -1    0    0  502  503 -0.00000000000E+00 -0.00000000000E+00 -0.27634059341E+02  0.27634059341E+02  0.00000000000E+00 0.  1.
         24    1    1    2    0    0 -0.27255342389E+02 -0.13434166476E+02  0.11823354055E+03  0.14618384515E+03  0.80419002446E+02 0.  1.
          1    1    1    2  501    0  0.16185008153E+02 -0.26753603998E+02  0.39184692748E+02  0.50131327148E+02  0.00000000000E+00 0. -1.
         -2    1    1    2    0  503  0.11070334236E+02  0.40187770475E+02  0.44883560630E+02  0.61254740312E+02  0.00000000000E+00 0.  1.
<mgrwt>
<rscale>  2 0.79460640E+02</rscale>
<asrwt>0</asrwt>
<pdfrwt beam="1">  1       21 0.35374745E-01 0.79460640E+02</pdfrwt>
<pdfrwt beam="2">  1       21 0.42513939E-02 0.79460640E+02</pdfrwt>
<totfact> 0.26511595E+06</totfact>
</mgrwt>
</event>
<event>
 5    1  0.1590180E+000  0.6137070E+02  0.7546771E-02  0.1392168E+00
         21   -1    0    0  503  502  0.00000000000E+00  0.00000000000E+00  0.36599126797E+03  0.36599126797E+03  0.00000000000E+00 0. -1.
         21   -1    0    0  501  503 -0.00000000000E+00 -0.00000000000E+00 -0.12518754535E+02  0.12518754535E+02  0.00000000000E+00 0.  1.
         24    1    1    2    0    0 -0.71149343038E+01  0.68838696363E+01  0.14689500678E+03  0.16775985492E+03  0.80419002446E+02 0.  1.
          1    1    1    2  501    0  0.17896627550E+02  0.10873616274E+02  0.10646565348E+03  0.10850557672E+03  0.00000000000E+00 0. -1.
         -2    1    1    2    0  502 -0.10781693246E+02 -0.17757485911E+02  0.10011185318E+03  0.10224459087E+03  0.00000000000E+00 0.  1.
<mgrwt>
<rscale>  2 0.61370703E+02</rscale>
<asrwt>0</asrwt>
<pdfrwt beam="1">  1       21 0.56306341E-01 0.61370703E+02</pdfrwt>
<pdfrwt beam="2">  1       21 0.19259625E-02 0.61370703E+02</pdfrwt>
<totfact> 0.37037629E+06</totfact>
</mgrwt>
</event>
<event>
 5    1  0.1590180E+000  0.1132919E+03  0.7546771E-02  0.1254593E+00
         21   -1    0    0  503  502  0.00000000000E+00  0.00000000000E+00  0.74699866346E+02  0.74699866346E+02  0.00000000000E+00 0.  1.
         21   -1    0    0  501  503 -0.00000000000E+00 -0.00000000000E+00 -0.10304852179E+04  0.10304852179E+04  0.00000000000E+00 0. -1.
         24    1    1    2    0    0 -0.70018509539E+02  0.25260464258E+02 -0.16987732850E+03  0.20215391519E+03  0.80419002446E+02 0.  1.
          1    1    1    2  501    0 -0.22097620175E+02 -0.59516488479E+01 -0.80638633806E+03  0.80671100968E+03  0.00000000000E+00 0. -1.
         -2    1    1    2    0  502  0.92116129714E+02 -0.19308815410E+02  0.20478315049E+02  0.96320159330E+02  0.00000000000E+00 0.  1.
<mgrwt>
<rscale>  2 0.11329186E+03</rscale>
<asrwt>0</asrwt>
<pdfrwt beam="1">  1       21 0.11492288E-01 0.11329186E+03</pdfrwt>
<pdfrwt beam="2">  1       21 0.15853618E+00 0.11329186E+03</pdfrwt>
<totfact> 0.17457350E+04</totfact>
</mgrwt>
</event>
<event>
 5    1  0.1590180E+000  0.6700481E+02  0.7546771E-02  0.1370585E+00
         21   -1    0    0  501  502  0.00000000000E+00  0.00000000000E+00  0.10725231492E+04  0.10725231492E+04  0.00000000000E+00 0.  1.
         21   -1    0    0  502  503 -0.00000000000E+00 -0.00000000000E+00 -0.56661063140E+01  0.56661063140E+01  0.00000000000E+00 0. -1.
         24    1    1    2    0    0  0.13666005373E+02  0.18553435653E+01  0.83579352608E+03  0.83976677488E+03  0.80419002446E+02 0.  1.
          1    1    1    2  501    0 -0.14563590757E+01  0.23883918818E+02  0.16131983542E+03  0.16308479960E+03  0.00000000000E+00 0. -1.
         -2    1    1    2    0  503 -0.12209646297E+02 -0.25739262384E+02  0.69743681409E+02  0.75337681058E+02  0.00000000000E+00 0.  1.
<mgrwt>
<rscale>  2 0.67004807E+02</rscale>
<asrwt>0</asrwt>
<pdfrwt beam="1">  1       21 0.16500340E+00 0.67004807E+02</pdfrwt>
<pdfrwt beam="2">  1       21 0.87170952E-03 0.67004807E+02</pdfrwt>
<totfact> 0.11019993E+06</totfact>
</mgrwt>
</event>
<event>
 5    1  0.1590180E+000  0.8245878E+02  0.7546771E-02  0.1322215E+00
         21   -1    0    0  503  502  0.00000000000E+00  0.00000000000E+00  0.18004285401E+03  0.18004285401E+03  0.00000000000E+00 0. -1.
         21   -1    0    0  501  503 -0.00000000000E+00 -0.00000000000E+00 -0.44825623097E+02  0.44825623097E+02  0.00000000000E+00 0.  1.
         24    1    1    2    0    0 -0.47036244008E+02  0.16427602937E+02  0.11989408436E+03  0.15272223743E+03  0.80419002446E+02 0. -1.
          1    1    1    2  501    0  0.94224283050E+01 -0.29129268258E+02  0.92624451585E+01  0.31985767378E+02  0.00000000000E+00 0. -1.
         -2    1    1    2    0  502  0.37613815703E+02  0.12701665321E+02  0.60607013995E+01  0.40160472297E+02  0.00000000000E+00 0.  1.
<mgrwt>
<rscale>  2 0.82458783E+02</rscale>
<asrwt>0</asrwt>
<pdfrwt beam="1">  1       21 0.27698900E-01 0.82458783E+02</pdfrwt>
<pdfrwt beam="2">  1       21 0.68962498E-02 0.82458783E+02</pdfrwt>
<totfact> 0.18935191E+06</totfact>
</mgrwt>
</event>
<event>
 5    1  0.1590180E+000  0.6921143E+02  0.7546771E-02  0.1362795E+00
         21   -1    0    0  501  502  0.00000000000E+00  0.00000000000E+00  0.39537374707E+02  0.39537374707E+02  0.00000000000E+00 0.  1.
         21   -1    0    0  502  503 -0.00000000000E+00 -0.00000000000E+00 -0.34473462085E+03  0.34473462085E+03  0.00000000000E+00 0. -1.
         24    1    1    2    0    0  0.86878299319E+01 -0.12899604180E+02 -0.43411380711E+02  0.92701899153E+02  0.80419002446E+02 0.  1.
          1    1    1    2  501    0 -0.20041734175E+02  0.29945114967E+02 -0.79376048787E+01  0.36896972645E+02  0.00000000000E+00 0. -1.
         -2    1    1    2    0  503  0.11353904243E+02 -0.17045510787E+02 -0.25384826055E+03  0.25467312376E+03  0.00000000000E+00 0.  1.
<mgrwt>
<rscale>  2 0.69211426E+02</rscale>
<asrwt>0</asrwt>
<pdfrwt beam="1">  1       21 0.60826726E-02 0.69211426E+02</pdfrwt>
<pdfrwt beam="2">  1       21 0.53036099E-01 0.69211426E+02</pdfrwt>
<totfact> 0.65143519E+05</totfact>
</mgrwt>
</event>
<event>
 5    1  0.1590180E+000  0.8205653E+02  0.7546771E-02  0.1323315E+00
         21   -1    0    0  503  502  0.00000000000E+00  0.00000000000E+00  0.88186466561E+01  0.88186466561E+01  0.00000000000E+00 0. -1.
         21   -1    0    0  501  503 -0.00000000000E+00 -0.00000000000E+00 -0.10545700685E+04  0.10545700685E+04  0.00000000000E+00 0.  1.
         24    1    1    2    0    0  0.28363604474E+02  0.25822924530E+02 -0.39030160220E+03  0.40034219628E+03  0.80419002446E+02 0.  1.
          1    1    1    2  501    0 -0.14870538454E+02 -0.47337880836E+02 -0.60010849125E+03  0.60215629960E+03  0.00000000000E+00 0. -1.
         -2    1    1    2    0  502 -0.13493066019E+02  0.21514956306E+02 -0.55341328440E+02  0.60890219321E+02  0.00000000000E+00 0.  1.
<mgrwt>
<rscale>  2 0.82056530E+02</rscale>
<asrwt>0</asrwt>
<pdfrwt beam="1">  1       21 0.13567142E-02 0.82056530E+02</pdfrwt>
<pdfrwt beam="2">  1       21 0.16224163E+00 0.82056530E+02</pdfrwt>
<totfact> 0.57625707E+05</totfact>
</mgrwt>
</event>
<event>
 5    1  0.1590180E+000  0.8608458E+02  0.7546771E-02  0.1312620E+00
         21   -1    0    0  503  502  0.00000000000E+00  0.00000000000E+00  0.10697052757E+03  0.10697052757E+03  0.00000000000E+00 0.  1.
         21   -1    0    0  501  503 -0.00000000000E+00 -0.00000000000E+00 -0.74006033462E+02  0.74006033462E+02  0.00000000000E+00 0.  1.
         24    1    1    2    0    0  0.29657932333E+02 -0.21068169890E+02  0.21770038952E+02  0.90909907508E+02  0.80419002446E+02 0.  1.
          1    1    1    2  501    0 -0.11933560092E+02 -0.28695739058E+02 -0.10720343176E+02  0.32875234666E+02  0.00000000000E+00 0. -1.
         -2    1    1    2    0  502 -0.17724372241E+02  0.49763908948E+02  0.21914798335E+02  0.57191418860E+02  0.00000000000E+00 0.  1.
<mgrwt>
<rscale>  2 0.86084576E+02</rscale>
<asrwt>0</asrwt>
<pdfrwt beam="1">  1       21 0.16457004E-01 0.86084576E+02</pdfrwt>
<pdfrwt beam="2">  1       21 0.11385544E-01 0.86084576E+02</pdfrwt>
<totfact> 0.20904429E+06</totfact>
</mgrwt>
</event>
<event>
 5    1  0.1590180E+000  0.9012044E+02  0.7546771E-02  0.1302560E+00
         21   -1    0    0  501  502  0.00000000000E+00  0.00000000000E+00  0.55249830414E+02  0.55249830414E+02  0.00000000000E+00 0.  1.
         21   -1    0    0  502  503 -0.00000000000E+00 -0.00000000000E+00 -0.15754160187E+03  0.15754160187E+03  0.00000000000E+00 0. -1.
         24    1    1    2    0    0  0.55333556072E+02  0.17224058084E+01 -0.53523708470E+02  0.11134079411E+03  0.80419002446E+02 0.  0.
          1    1    1    2  501    0 -0.15882505363E+02  0.28692363463E+02 -0.15773648672E+01  0.32832815561E+02  0.00000000000E+00 0. -1.
         -2    1    1    2    0  503 -0.39451050709E+02 -0.30414769272E+02 -0.47190698118E+02  0.68617822617E+02  0.00000000000E+00 0.  1.
<mgrwt>
<rscale>  2 0.90120440E+02</rscale>
<asrwt>0</asrwt>
<pdfrwt beam="1">  1       21 0.84999741E-02 0.90120440E+02</pdfrwt>
<pdfrwt beam="2">  1       21 0.24237169E-01 0.90120440E+02</pdfrwt>
<totfact> 0.17100548E+06</totfact>
</mgrwt>
</event>
<event>
 5    1  0.1590180E+000  0.1956640E+03  0.7546771E-02  0.1153450E+00
         21   -1    0    0  501  502  0.00000000000E+00  0.00000000000E+00  0.84430109862E+03  0.84430109862E+03  0.00000000000E+00 0. -1.
         21   -1    0    0  502  503 -0.00000000000E+00 -0.00000000000E+00 -0.83641893670E+02  0.83641893670E+02  0.00000000000E+00 0.  1.
         24    1    1    2    0    0  0.11919701901E+03  0.60656078608E+01  0.58276981354E+03  0.60027709640E+03  0.80419002446E+02 0. -1.
          1    1    1    2  501    0 -0.94579909201E+02  0.10051986057E+03  0.16858835099E+03  0.21787986067E+03  0.00000000000E+00 0. -1.
         -2    1    1    2    0  503 -0.24617109806E+02 -0.10658546844E+03  0.93010404220E+01  0.10978603522E+03  0.00000000000E+00 0.  1.
<mgrwt>
<rscale>  2 0.19566403E+03</rscale>
<asrwt>0</asrwt>
<pdfrwt beam="1">  1       21 0.12989247E+00 0.19566403E+03</pdfrwt>
<pdfrwt beam="2">  1       21 0.12867984E-01 0.19566403E+03</pdfrwt>
<totfact> 0.22383405E+04</totfact>
</mgrwt>
</event>
<event>
 5    1  0.1590180E+000  0.7856778E+02  0.7546771E-02  0.1333166E+00
         21   -1    0    0  503  502  0.00000000000E+00  0.00000000000E+00  0.66074311733E+02  0.66074311733E+02  0.00000000000E+00 0. -1.
         21   -1    0    0  501  503 -0.00000000000E+00 -0.00000000000E+00 -0.12119985811E+03  0.12119985811E+03  0.00000000000E+00 0.  1.
         24    1    1    2    0    0 -0.23096080681E+02 -0.99673804369E+01 -0.42659653139E+02  0.94444902329E+02  0.80419002446E+02 0.  0.
          1    1    1    2  501    0  0.11943164512E+02 -0.29518650338E+02 -0.33922640282E+02  0.46526717271E+02  0.00000000000E+00 0. -1.
         -2    1    1    2    0  502  0.11152916169E+02  0.39486030775E+02  0.21456747042E+02  0.46302550244E+02  0.00000000000E+00 0.  1.
<mgrwt>
<rscale>  2 0.78567780E+02</rscale>
<asrwt>0</asrwt>
<pdfrwt beam="1">  1       21 0.10165279E-01 0.78567780E+02</pdfrwt>
<pdfrwt beam="2">  1       21 0.18646132E-01 0.78567780E+02</pdfrwt>
<totfact> 0.20239955E+06</totfact>
</mgrwt>
</event>
<event>
 5    1  0.1590180E+000  0.7208189E+02  0.7546771E-02  0.1353153E+00
         21   -1    0    0  501  502  0.00000000000E+00  0.00000000000E+00  0.47621330168E+02  0.47621330168E+02  0.00000000000E+00 0. -1.
         21   -1    0    0  502  503 -0.00000000000E+00 -0.00000000000E+00 -0.41291235422E+03  0.41291235422E+03  0.00000000000E+00 0.  1.
         24    1    1    2    0    0  0.74573012878E+01 -0.18554124263E+02 -0.22310565250E+03  0.23799835084E+03  0.80419002446E+02 0. -1.
          1    1    1    2  501    0  0.25036031630E+02  0.28224058211E+01  0.34208433163E+02  0.42485123912E+02  0.00000000000E+00 0. -1.
         -2    1    1    2    0  503 -0.32493332918E+02  0.15731718442E+02 -0.17639380471E+03  0.18005020963E+03  0.00000000000E+00 0.  1.
<mgrwt>
<rscale>  2 0.72081890E+02</rscale>
<asrwt>0</asrwt>
<pdfrwt beam="1">  1       21 0.73263588E-02 0.72081890E+02</pdfrwt>
<pdfrwt beam="2">  1       21 0.63524975E-01 0.72081890E+02</pdfrwt>
<totfact> 0.32789185E+05</totfact>
</mgrwt>
</event>
<event>
 5    1  0.1590180E+000  0.1195561E+03  0.7546771E-02  0.1243831E+00
         21   -1    0    0  503  502  0.00000000000E+00  0.00000000000E+00  0.97818435107E+02  0.97818435107E+02  0.00000000000E+00 0. -1.
         21   -1    0    0  501  503 -0.00000000000E+00 -0.00000000000E+00 -0.20854564301E+03  0.20854564301E+03  0.00000000000E+00 0. -1.
         24    1    1    2    0    0 -0.35548375985E+02  0.28953272089E+02 -0.10313306198E+03  0.13858435492E+03  0.80419002446E+02 0.  1.
          1    1    1    2  501    0  0.20229311322E+02  0.56351709030E+02 -0.43458996513E+02  0.73982596096E+02  0.00000000000E+00 0. -1.
         -2    1    1    2    0  502  0.15319064663E+02 -0.85304981119E+02  0.35864850587E+02  0.93797127107E+02  0.00000000000E+00 0.  1.
<mgrwt>
<rscale>  2 0.11955611E+03</rscale>
<asrwt>0</asrwt>
<pdfrwt beam="1">  1       21 0.15048990E-01 0.11955611E+03</pdfrwt>
<pdfrwt beam="2">  1       21 0.32083945E-01 0.11955611E+03</pdfrwt>
<totfact> 0.36894739E+05</totfact>
</mgrwt>
</event>
<event>
 5    1  0.1590180E+000  0.9127473E+02  0.7546771E-02  0.1299794E+00
         21   -1    0    0  501  502  0.00000000000E+00  0.00000000000E+00  0.15401629832E+02  0.15401629832E+02  0.00000000000E+00 0. -1.
         21   -1    0    0  502  503 -0.00000000000E+00 -0.00000000000E+00 -0.18535090984E+04  0.18535090984E+04  0.00000000000E+00 0.  1.
         24    1    1    2    0    0  0.49686287636E+02 -0.45826917990E+02 -0.21433438233E+03  0.23869494548E+03  0.80419002446E+02 0. -1.
          1    1    1    2  501    0 -0.18293640391E+02  0.42076160608E+02 -0.16952282740E+03  0.17562189379E+03  0.00000000000E+00 0. -1.
         -2    1    1    2    0  503 -0.31392647245E+02  0.37507573827E+01 -0.14542502588E+04  0.14545938889E+04  0.00000000000E+00 0.  1.
<mgrwt>
<rscale>  2 0.91274732E+02</rscale>
<asrwt>0</asrwt>
<pdfrwt beam="1">  1       21 0.23694838E-02 0.91274732E+02</pdfrwt>
<pdfrwt beam="2">  1       21 0.28515497E+00 0.91274732E+02</pdfrwt>
<totfact> 0.43613362E+04</totfact>
</mgrwt>
</event>
<event>
 5    1  0.1590180E+000  0.9329835E+02  0.7546771E-02  0.1295055E+00
         21   -1    0    0  503  502  0.00000000000E+00  0.00000000000E+00  0.59471282819E+02  0.59471282819E+02  0.00000000000E+00 0. -1.
         21   -1    0    0  501  503 -0.00000000000E+00 -0.00000000000E+00 -0.15099526522E+03  0.15099526522E+03  0.00000000000E+00 0. -1.
         24    1    1    2    0    0 -0.68592191859E+02 -0.13009279198E+02 -0.52330032355E+02  0.11865824190E+03  0.80419002446E+02 0. -1.
          1    1    1    2  501    0  0.55031164868E+02 -0.74729844528E+01 -0.37848038728E+02  0.67206760366E+02  0.00000000000E+00 0. -1.
         -2    1    1    2    0  502  0.13561026991E+02  0.20482263651E+02 -0.13459113187E+01  0.24601545777E+02  0.00000000000E+00 0.  1.
<mgrwt>
<rscale>  2 0.93298352E+02</rscale>
<asrwt>0</asrwt>
<pdfrwt beam="1">  1       21 0.91494281E-02 0.93298352E+02</pdfrwt>
<pdfrwt beam="2">  1       21 0.23230041E-01 0.93298352E+02</pdfrwt>
<totfact> 0.16324449E+06</totfact>
</mgrwt>
</event>
<event>
 5    1  0.1590180E+000  0.6859769E+02  0.7546771E-02  0.1364928E+00
         21   -1    0    0  501  502  0.00000000000E+00  0.00000000000E+00  0.43879681817E+02  0.43879681817E+02  0.00000000000E+00 0.  1.
         21   -1    0    0  502  503 -0.00000000000E+00 -0.00000000000E+00 -0.12631478893E+03  0.12631478893E+03  0.00000000000E+00 0. -1.
         24    1    1    2    0    0  0.73314446044E+01  0.23848514760E+02 -0.43350576275E+02  0.94704752542E+02  0.80419002446E+02 0.  0.
          1    1    1    2  501    0 -0.22008109505E+02  0.31819926941E+01  0.39584157184E+01  0.22586522895E+02  0.00000000000E+00 0. -1.
         -2    1    1    2    0  503  0.14676664900E+02 -0.27030507454E+02 -0.43042946555E+02  0.52903195310E+02  0.00000000000E+00 0.  1.
<mgrwt>
<rscale>  2 0.68597692E+02</rscale>
<asrwt>0</asrwt>
<pdfrwt beam="1">  1       21 0.67507203E-02 0.68597692E+02</pdfrwt>
<pdfrwt beam="2">  1       21 0.19433044E-01 0.68597692E+02</pdfrwt>
<totfact> 0.37402882E+06</totfact>
</mgrwt>
</event>
<event>
 5    1  0.1590180E+000  0.8828351E+02  0.7546771E-02  0.1307062E+00
         21   -1    0    0  501  502  0.00000000000E+00  0.00000000000E+00  0.11694895423E+03  0.11694895423E+03  0.00000000000E+00 0. -1.
         21   -1    0    0  502  503 -0.00000000000E+00 -0.00000000000E+00 -0.71303964704E+02  0.71303964704E+02  0.00000000000E+00 0.  1.
         24    1    1    2    0    0  0.25201668358E+02 -0.40353895780E+02  0.42608179910E+02  0.10269485840E+03  0.80419002446E+02 0. -1.
          1    1    1    2  501    0 -0.31073735393E+02 -0.98381989153E+01  0.10999928544E+02  0.34400081644E+02  0.00000000000E+00 0. -1.
         -2    1    1    2    0  503  0.58720670343E+01  0.50192094695E+02 -0.79631189251E+01  0.51157978890E+02  0.00000000000E+00 0.  1.
<mgrwt>
<rscale>  2 0.88283510E+02</rscale>
<asrwt>0</asrwt>
<pdfrwt beam="1">  1       21 0.17992147E-01 0.88283510E+02</pdfrwt>
<pdfrwt beam="2">  1       21 0.10969841E-01 0.88283510E+02</pdfrwt>
<totfact> 0.19011272E+06</totfact>
</mgrwt>
</event>
<event>
 5    1  0.1590180E+000  0.6648198E+02  0.7546771E-02  0.1372482E+00
         21   -1    0    0  503  502  0.00000000000E+00  0.00000000000E+00  0.15701418608E+03  0.15701418608E+03  0.00000000000E+00 0. -1.
         21   -1    0    0  501  503 -0.00000000000E+00 -0.00000000000E+00 -0.31589684080E+02  0.31589684080E+02  0.00000000000E+00 0.  1.
         24    1    1    2    0    0 -0.26103876244E+02 -0.48974594097E+01  0.10803834205E+03  0.13727671606E+03  0.80419002446E+02 0. -1.
          1    1    1    2  501    0  0.16287958197E+02 -0.17446333023E+02  0.78548344169E+01  0.25127087812E+02  0.00000000000E+00 0. -1.
         -2    1    1    2    0  502  0.98159180470E+01  0.22343792432E+02  0.95313255323E+01  0.26200066293E+02  0.00000000000E+00 0.  1.
<mgrwt>
<rscale>  2 0.66481975E+02</rscale>
<asrwt>0</asrwt>
<pdfrwt beam="1">  1       21 0.24156028E-01 0.66481975E+02</pdfrwt>
<pdfrwt beam="2">  1       21 0.48599515E-02 0.66481975E+02</pdfrwt>
<totfact> 0.43294135E+06</totfact>
</mgrwt>
</event>
<event>
 5    1  0.1590180E+000  0.6937143E+02  0.7546771E-02  0.1362244E+00
         21   -1    0    0  501  502  0.00000000000E+00  0.00000000000E+00  0.41941007581E+02  0.41941007581E+02  0.00000000000E+00 0. -1.
         21   -1    0    0  502  503 -0.00000000000E+00 -0.00000000000E+00 -0.28299399457E+03  0.28299399457E+03  0.00000000000E+00 0.  1.
         24    1    1    2    0    0 -0.19625643268E+02  0.18476351587E+02 -0.89847091747E+02  0.12355669667E+03  0.80419002446E+02 0.  1.
          1    1    1    2  501    0  0.20138852093E+02  0.12002113686E+02  0.17931822745E+02  0.29515663020E+02  0.00000000000E+00 0. -1.
         -2    1    1    2    0  503 -0.51320882499E+00 -0.30478465273E+02 -0.16913771799E+03  0.17186264247E+03  0.00000000000E+00 0.  1.
<mgrwt>
<rscale>  2 0.69371435E+02</rscale>
<asrwt>0</asrwt>
<pdfrwt beam="1">  1       21 0.64524628E-02 0.69371435E+02</pdfrwt>
<pdfrwt beam="2">  1       21 0.43537537E-01 0.69371435E+02</pdfrwt>
<totfact> 0.87828865E+05</totfact>
</mgrwt>
</event>
<event>
 5    1  0.1590180E+000  0.9774037E+02  0.7546771E-02  0.1285121E+00
         21   -1    0    0  503  502  0.00000000000E+00  0.00000000000E+00  0.23366328507E+02  0.23366328507E+02  0.00000000000E+00 0.  1.
         21   -1    0    0  501  503 -0.00000000000E+00 -0.00000000000E+00 -0.13252661582E+04  0.13252661582E+04  0.00000000000E+00 0. -1.
         24    1    1    2    0    0  0.32794885528E+02 -0.21982154760E+02 -0.10058952441E+03  0.13470036384E+03  0.80419002446E+02 0.  0.
          1    1    1    2  501    0  0.51051268855E+01  0.55236735213E+02 -0.10935835955E+04  0.10949896071E+04  0.00000000000E+00 0. -1.
         -2    1    1    2    0  502 -0.37900012414E+02 -0.33254580453E+02 -0.10772670975E+03  0.11894251576E+03  0.00000000000E+00 0.  1.
<mgrwt>
<rscale>  2 0.97740371E+02</rscale>
<asrwt>0</asrwt>
<pdfrwt beam="1">  1       21 0.35948189E-02 0.97740371E+02</pdfrwt>
<pdfrwt beam="2">  1       21 0.20388715E+00 0.97740371E+02</pdfrwt>
<totfact> 0.63884841E+04</totfact>
</mgrwt>
</event>
<event>
 5    1  0.1590180E+000  0.7571380E+02  0.7546771E-02  0.1341675E+00
         21   -1    0    0  503  502  0.00000000000E+00  0.00000000000E+00  0.32113435836E+03  0.32113435836E+03  0.00000000000E+00 0. -1.
         21   -1    0    0  501  503 -0.00000000000E+00 -0.00000000000E+00 -0.28102358329E+02  0.28102358329E+02  0.00000000000E+00 0. -1.
         24    1    1    2    0    0  0.32263109258E+02 -0.40034505026E+02  0.27358215061E+03  0.28975520512E+03  0.80419002446E+02 0. -1.
          1    1    1    2  501    0 -0.86800199286E+01  0.28366794650E+02  0.75906213584E+01  0.30620831427E+02  0.00000000000E+00 0. -1.
         -2    1    1    2    0  502 -0.23583089329E+02  0.11667710376E+02  0.11859228066E+02  0.28860680138E+02  0.00000000000E+00 0.  1.
<mgrwt>
<rscale>  2 0.75713801E+02</rscale>
<asrwt>0</asrwt>
<pdfrwt beam="1">  1       21 0.49405283E-01 0.75713801E+02</pdfrwt>
<pdfrwt beam="2">  1       21 0.43234400E-02 0.75713801E+02</pdfrwt>
<totfact> 0.13275393E+06</totfact>
</mgrwt>
</event>
<event>
 5    1  0.1590180E+000  0.1142398E+03  0.7546771E-02  0.1252914E+00
         21   -1    0    0  503  502  0.00000000000E+00  0.00000000000E+00  0.32253272782E+03  0.32253272782E+03  0.00000000000E+00 0.  1.
         21   -1    0    0  501  503 -0.00000000000E+00 -0.00000000000E+00 -0.60846109932E+02  0.60846109932E+02  0.00000000000E+00 0. -1.
         24    1    1    2    0    0  0.92696421958E+02 -0.22248297136E+02  0.21880752302E+03  0.25185623171E+03  0.80419002446E+02 0.  1.
          1    1    1    2  501    0 -0.37754126202E+02 -0.11271114609E+02 -0.17648035171E+02  0.43172505315E+02  0.00000000000E+00 0. -1.
         -2    1    1    2    0  502 -0.54942295756E+02  0.33519411744E+02  0.60527130043E+02  0.88350100724E+02  0.00000000000E+00 0.  1.
<mgrwt>
<rscale>  2 0.11423982E+03</rscale>
<asrwt>0</asrwt>
<pdfrwt beam="1">  1       21 0.49620419E-01 0.11423982E+03</pdfrwt>
<pdfrwt beam="2">  1       21 0.93609402E-02 0.11423982E+03</pdfrwt>
<totfact> 0.35801827E+05</totfact>
</mgrwt>
</event>
<event>
 5    1  0.1590180E+000  0.2344473E+03  0.7546771E-02  0.1123548E+00
         21   -1    0    0  503  502  0.00000000000E+00  0.00000000000E+00  0.63380120900E+03  0.63380120900E+03  0.00000000000E+00 0.  1.
         21   -1    0    0  501  503 -0.00000000000E+00 -0.00000000000E+00 -0.40956139090E+03  0.40956139090E+03  0.00000000000E+00 0. -1.
         24    1    1    2    0    0  0.22184077081E+03 -0.25168463928E+02 -0.27104950854E+03  0.36025245483E+03  0.80419002446E+02 0. -1.
          1    1    1    2  501    0 -0.12537142115E+03 -0.16599521868E+02 -0.43823845035E+02  0.13384344123E+03  0.00000000000E+00 0. -1.
         -2    1    1    2    0  502 -0.96469349663E+02  0.41767985796E+02  0.53911317168E+03  0.54926670384E+03  0.00000000000E+00 0.  1.
<mgrwt>
<rscale>  2 0.23444726E+03</rscale>
<asrwt>0</asrwt>
<pdfrwt beam="1">  1       21 0.97507878E-01 0.23444726E+03</pdfrwt>
<pdfrwt beam="2">  1       21 0.63009445E-01 0.23444726E+03</pdfrwt>
<totfact> 0.19609560E+03</totfact>
</mgrwt>
</event>
<event>
 5    1  0.1590180E+000  0.9012806E+02  0.7546771E-02  0.1302542E+00
         21   -1    0    0  501  502  0.00000000000E+00  0.00000000000E+00  0.20705728753E+03  0.20705728753E+03  0.00000000000E+00 0.  1.
         21   -1    0    0  502  503 -0.00000000000E+00 -0.00000000000E+00 -0.59217064392E+02  0.59217064392E+02  0.00000000000E+00 0.  1.
         24    1    1    2    0    0 -0.15009089243E+02  0.19362301584E+02  0.95057347659E+02  0.12689872647E+03  0.80419002446E+02 0.  1.
          1    1    1    2  501    0 -0.96490980577E+01  0.35101000098E+02  0.68488381450E+02  0.77561870109E+02  0.00000000000E+00 0. -1.
         -2    1    1    2    0  503  0.24658187300E+02 -0.54463301683E+02 -0.15705505971E+02  0.61813755337E+02  0.00000000000E+00 0.  1.
<mgrwt>
<rscale>  2 0.90128055E+02</rscale>
<asrwt>0</asrwt>
<pdfrwt beam="1">  1       21 0.31854967E-01 0.90128055E+02</pdfrwt>
<pdfrwt beam="2">  1       21 0.91103177E-02 0.90128055E+02</pdfrwt>
<totfact> 0.90479971E+05</totfact>
</mgrwt>
</event>
<event>
 5    1  0.1659752E+000  0.1816274E+03  0.7546771E-02  0.1166237E+00
         21   -1    0    0  503  502  0.00000000000E+00  0.00000000000E+00  0.35638328618E+02  0.35638328618E+02  0.00000000000E+00 0.  1.
         21   -1    0    0  501  503 -0.00000000000E+00 -0.00000000000E+00 -0.11863110306E+04  0.11863110306E+04  0.00000000000E+00 0. -1.
         24    1    1    2    0    0  0.60061427546E+01 -0.51449235618E+02 -0.15829217235E+03  0.18495060254E+03  0.80419002446E+02 0.  1.
          1    1    1    2  501    0  0.92473243480E+02 -0.66529566873E+02 -0.67293688339E+03  0.68251119628E+03  0.00000000000E+00 0. -1.
         -2    1    1    2    0  502 -0.98479386235E+02  0.11797880249E+03 -0.31944364622E+03  0.35448756038E+03  0.00000000000E+00 0.  1.
<mgrwt>
<rscale>  2 0.18162744E+03</rscale>
<asrwt>0</asrwt>
<pdfrwt beam="1">  1       21 0.54828193E-02 0.18162744E+03</pdfrwt>
<pdfrwt beam="2">  1       21 0.18250941E+00 0.18162744E+03</pdfrwt>
<totfact> 0.40529149E+04</totfact>
</mgrwt>
</event>
<event>
 5    1  0.1590180E+000  0.1329786E+03  0.7546771E-02  0.1223102E+00
         21   -1    0    0  501  502  0.00000000000E+00  0.00000000000E+00  0.32782255151E+03  0.32782255151E+03  0.00000000000E+00 0. -1.
         21   -1    0    0  502  503 -0.00000000000E+00 -0.00000000000E+00 -0.73939553326E+02  0.73939553326E+02  0.00000000000E+00 0. -1.
         24    1    1    2    0    0  0.98133304070E+01  0.30683447874E+02  0.46638315740E+02  0.98387620545E+02  0.80419002446E+02 0. -1.
          1    1    1    2  501    0  0.83412241856E+02 -0.12503091402E+02  0.18857122878E+03  0.20657453307E+03  0.00000000000E+00 0. -1.
         -2    1    1    2    0  503 -0.93225572263E+02 -0.18180356473E+02  0.18673453659E+02  0.96799951223E+02  0.00000000000E+00 0.  1.
<mgrwt>
<rscale>  2 0.13297861E+03</rscale>
<asrwt>0</asrwt>
<pdfrwt beam="1">  1       21 0.50434238E-01 0.13297861E+03</pdfrwt>
<pdfrwt beam="2">  1       21 0.11375316E-01 0.13297861E+03</pdfrwt>
<totfact> 0.24522700E+05</totfact>
</mgrwt>
</event>
<event>
 5    1  0.1590180E+000  0.7114935E+02  0.7546771E-02  0.1356228E+00
         21   -1    0    0  501  502  0.00000000000E+00  0.00000000000E+00  0.50134774102E+03  0.50134774102E+03  0.00000000000E+00 0. -1.
         21   -1    0    0  502  503 -0.00000000000E+00 -0.00000000000E+00 -0.31056647255E+02  0.31056647255E+02  0.00000000000E+00 0. -1.
         24    1    1    2    0    0 -0.47742553751E+01  0.14887516936E+02  0.51154237991E+02  0.96583661629E+02  0.80419002446E+02 0. -1.
          1    1    1    2  501    0  0.12623979501E+02  0.20527996079E+02  0.38580601491E+03  0.38655794471E+03  0.00000000000E+00 0. -1.
         -2    1    1    2    0  503 -0.78497241258E+01 -0.35415513015E+02  0.33330840864E+02  0.49262781931E+02  0.00000000000E+00 0.  1.
<mgrwt>
<rscale>  2 0.71149348E+02</rscale>
<asrwt>0</asrwt>
<pdfrwt beam="1">  1       21 0.77130416E-01 0.71149348E+02</pdfrwt>
<pdfrwt beam="2">  1       21 0.47779461E-02 0.71149348E+02</pdfrwt>
<totfact> 0.44159915E+05</totfact>
</mgrwt>
</event>
<event>
 5    1  0.1590180E+000  0.9169207E+02  0.7546771E-02  0.1298805E+00
         21   -1    0    0  503  502  0.00000000000E+00  0.00000000000E+00  0.57966020819E+02  0.57966020819E+02  0.00000000000E+00 0. -1.
         21   -1    0    0  501  503 -0.00000000000E+00 -0.00000000000E+00 -0.55448945783E+03  0.55448945783E+03  0.00000000000E+00 0. -1.
         24    1    1    2    0    0  0.51306877957E+02  0.51362105675E+02 -0.15883664043E+02  0.10949871398E+03  0.80419002446E+02 0. -1.
          1    1    1    2  501    0 -0.14032914669E+02 -0.27248575099E+02 -0.44492640889E+03  0.44598084810E+03  0.00000000000E+00 0. -1.
         -2    1    1    2    0  502 -0.37273963288E+02 -0.24113530576E+02 -0.35713364075E+02  0.56975916575E+02  0.00000000000E+00 0.  1.
<mgrwt>
<rscale>  2 0.91692066E+02</rscale>
<asrwt>0</asrwt>
<pdfrwt beam="1">  1       21 0.89178491E-02 0.91692066E+02</pdfrwt>
<pdfrwt beam="2">  1       21 0.85306073E-01 0.91692066E+02</pdfrwt>
<totfact> 0.12289956E+05</totfact>
</mgrwt>
</event>
<event>
 5    1  0.1590180E+000  0.1976539E+03  0.7546771E-02  0.1151734E+00
         21   -1    0    0  501  502  0.00000000000E+00  0.00000000000E+00  0.42224362188E+03  0.42224362188E+03  0.00000000000E+00 0. -1.
         21   -1    0    0  502  503 -0.00000000000E+00 -0.00000000000E+00 -0.11101648554E+03  0.11101648554E+03  0.00000000000E+00 0. -1.
         24    1    1    2    0    0  0.17879164571E+03 -0.61945636456E+02  0.25766924275E+03  0.32964279010E+03  0.80419002446E+02 0. -1.
          1    1    1    2  501    0 -0.59756042361E+02  0.27566933117E+02  0.44385671478E+02  0.79377630556E+02  0.00000000000E+00 0. -1.
         -2    1    1    2    0  503 -0.11903560335E+03  0.34378703339E+02  0.91722221136E+01  0.12423968676E+03  0.00000000000E+00 0.  1.
<mgrwt>
<rscale>  2 0.19765391E+03</rscale>
<asrwt>0</asrwt>
<pdfrwt beam="1">  1       21 0.64960556E-01 0.19765391E+03</pdfrwt>
<pdfrwt beam="2">  1       21 0.17079460E-01 0.19765391E+03</pdfrwt>
<totfact> 0.67348464E+04</totfact>
</mgrwt>
</event>
<event>
 5    1  0.1590180E+000  0.1105056E+03  0.7546771E-02  0.1259636E+00
         21   -1    0    0  503  502  0.00000000000E+00  0.00000000000E+00  0.11646380128E+03  0.11646380128E+03  0.00000000000E+00 0.  1.
         21   -1    0    0  501  503 -0.00000000000E+00 -0.00000000000E+00 -0.20904129169E+03  0.20904129169E+03  0.00000000000E+00 0. -1.
         24    1    1    2    0    0 -0.92725335684E+02  0.76717873226E+01  0.46770712629E+02  0.13157340048E+03  0.80419002446E+02 0.  1.
          1    1    1    2  501    0  0.29112548115E+02  0.11937230062E+02 -0.12079819204E+03  0.12482884730E+03  0.00000000000E+00 0. -1.
         -2    1    1    2    0  502  0.63612787569E+02 -0.19609017384E+02 -0.18550011008E+02  0.69102845190E+02  0.00000000000E+00 0.  1.
<mgrwt>
<rscale>  2 0.11050565E+03</rscale>
<asrwt>0</asrwt>
<pdfrwt beam="1">  1       21 0.17917508E-01 0.11050565E+03</pdfrwt>
<pdfrwt beam="2">  1       21 0.32160199E-01 0.11050565E+03</pdfrwt>
<totfact> 0.26821406E+05</totfact>
</mgrwt>
</event>
<event>
 5    1  0.1590180E+000  0.1104210E+03  0.7546771E-02  0.1259792E+00
         21   -1    0    0  503  502  0.00000000000E+00  0.00000000000E+00  0.13434511279E+03  0.13434511279E+03  0.00000000000E+00 0.  1.
         21   -1    0    0  501  503 -0.00000000000E+00 -0.00000000000E+00 -0.19844096768E+03  0.19844096768E+03  0.00000000000E+00 0. -1.
         24    1    1    2    0    0 -0.90955615904E+02 -0.29914299358E+02 -0.37808855546E+02  0.13063121711E+03  0.80419002446E+02 0. -1.
          1    1    1    2  501    0  0.70651070764E+02  0.21822398032E+02 -0.10051022208E+03  0.12478018913E+03  0.00000000000E+00 0. -1.
         -2    1    1    2    0  502  0.20304545141E+02  0.80919013262E+01  0.74223222737E+02  0.77374674241E+02  0.00000000000E+00 0.  1.
<mgrwt>
<rscale>  2 0.11042105E+03</rscale>
<asrwt>0</asrwt>
<pdfrwt beam="1">  1       21 0.20668479E-01 0.11042105E+03</pdfrwt>
<pdfrwt beam="2">  1       21 0.30529380E-01 0.11042105E+03</pdfrwt>
<totfact> 0.22820247E+05</totfact>
</mgrwt>
</event>
<event>
 5    1  0.1590180E+000  0.1688114E+03  0.7546771E-02  0.1179093E+00
         21   -1    0    0  503  502  0.00000000000E+00  0.00000000000E+00  0.91242745984E+03  0.91242745984E+03  0.00000000000E+00 0.  1.
         21   -1    0    0  501  503 -0.00000000000E+00 -0.00000000000E+00 -0.62687698015E+02  0.62687698015E+02  0.00000000000E+00 0.  1.
         24    1    1    2    0    0  0.79450693276E+02 -0.89701122794E+02  0.23814326447E+03  0.27845670123E+03  0.80419002446E+02 0.  1.
          1    1    1    2  501    0  0.42715414801E+02  0.47927713002E+02 -0.71388635336E+01  0.64595941883E+02  0.00000000000E+00 0. -1.
         -2    1    1    2    0  502 -0.12216610808E+03  0.41773409792E+02  0.61873536089E+03  0.63206251474E+03  0.00000000000E+00 0.  1.
<mgrwt>
<rscale>  2 0.16881142E+03</rscale>
<asrwt>0</asrwt>
<pdfrwt beam="1">  1       21 0.14037345E+00 0.16881142E+03</pdfrwt>
<pdfrwt beam="2">  1       21 0.96442619E-02 0.16881142E+03</pdfrwt>
<totfact> 0.31199279E+04</totfact>
</mgrwt>
</event>
<event>
 5    1  0.1590180E+000  0.6848254E+02  0.7546771E-02  0.1365331E+00
         21   -1    0    0  501  502  0.00000000000E+00  0.00000000000E+00  0.82202125966E+03  0.82202125966E+03  0.00000000000E+00 0.  1.
         21   -1    0    0  502  503 -0.00000000000E+00 -0.00000000000E+00 -0.12234326866E+02  0.12234326866E+02  0.00000000000E+00 0.  1.
         24    1    1    2    0    0 -0.54098316682E+01 -0.53874483397E+01  0.29798033471E+03  0.30873578786E+03  0.80419002446E+02 0. -1.
          1    1    1    2  501    0  0.18333746931E+02  0.26024896369E+02  0.49478981606E+03  0.49581285137E+03  0.00000000000E+00 0. -1.
         -2    1    1    2    0  503 -0.12923915263E+02 -0.20637448029E+02  0.17016782017E+02  0.29706947287E+02  0.00000000000E+00 0.  1.
<mgrwt>
<rscale>  2 0.68482542E+02</rscale>
<asrwt>0</asrwt>
<pdfrwt beam="1">  1       21 0.12646477E+00 0.68482542E+02</pdfrwt>
<pdfrwt beam="2">  1       21 0.18822048E-02 0.68482542E+02</pdfrwt>
<totfact> 0.64176629E+05</totfact>
</mgrwt>
</event>
<event>
 5    1  0.1590180E+000  0.7417015E+02  0.7546771E-02  0.1346460E+00
         21   -1    0    0  501  502  0.00000000000E+00  0.00000000000E+00  0.35665606190E+02  0.35665606190E+02  0.00000000000E+00 0.  1.
         21   -1    0    0  502  503 -0.00000000000E+00 -0.00000000000E+00 -0.49662699116E+03  0.49662699116E+03  0.00000000000E+00 0.  1.
         24    1    1    2    0    0  0.28045781788E+02  0.25557781873E+02 -0.41094391826E+02  0.97957802570E+02  0.80419002446E+02 0.  1.
          1    1    1    2  501    0 -0.23162867770E+02  0.87537861588E+01 -0.17130439299E+02  0.30109785221E+02  0.00000000000E+00 0. -1.
         -2    1    1    2    0  503 -0.48829140181E+01 -0.34311568032E+02 -0.40273655385E+03  0.40422500956E+03  0.00000000000E+00 0.  1.
<mgrwt>
<rscale>  2 0.74170147E+02</rscale>
<asrwt>0</asrwt>
<pdfrwt beam="1">  1       21 0.54870165E-02 0.74170147E+02</pdfrwt>
<pdfrwt beam="2">  1       21 0.76404150E-01 0.74170147E+02</pdfrwt>
<totfact> 0.35838660E+05</totfact>
</mgrwt>
</event>
<event>
 5    1  0.1590180E+000  0.7827437E+02  0.7546771E-02  0.1334021E+00
         21   -1    0    0  501  502  0.00000000000E+00  0.00000000000E+00  0.14055850943E+03  0.14055850943E+03  0.00000000000E+00 0.  1.
         21   -1    0    0  502  503 -0.00000000000E+00 -0.00000000000E+00 -0.52596018305E+02  0.52596018305E+02  0.00000000000E+00 0.  1.
         24    1    1    2    0    0 -0.18218846562E+02  0.53425786772E+02  0.16355798833E+02  0.99604062026E+02  0.80419002446E+02 0.  1.
          1    1    1    2  501    0 -0.11892037711E+00 -0.21340480631E+02  0.38082742661E+02  0.43654616528E+02  0.00000000000E+00 0. -1.
         -2    1    1    2    0  503  0.18337766939E+02 -0.32085306142E+02  0.33523949630E+02  0.49895849179E+02  0.00000000000E+00 0.  1.
<mgrwt>
<rscale>  2 0.78274374E+02</rscale>
<asrwt>0</asrwt>
<pdfrwt beam="1">  1       21 0.21624386E-01 0.78274374E+02</pdfrwt>
<pdfrwt beam="2">  1       21 0.80916952E-02 0.78274374E+02</pdfrwt>
<totfact> 0.22838325E+06</totfact>
</mgrwt>
</event>
<event>
 5    1  0.1590180E+000  0.1145423E+03  0.7546771E-02  0.1252382E+00
         21   -1    0    0  501  502  0.00000000000E+00  0.00000000000E+00  0.16334010233E+03  0.16334010233E+03  0.00000000000E+00 0.  1.
         21   -1    0    0  502  503 -0.00000000000E+00 -0.00000000000E+00 -0.11768745414E+03  0.11768745414E+03  0.00000000000E+00 0.  1.
         24    1    1    2    0    0 -0.72716249097E+02  0.27520813658E+02  0.63540975494E+02  0.12864571345E+03  0.80419002446E+02 0.  1.
          1    1    1    2  501    0 -0.11219951970E+02 -0.31254175474E+02  0.38767402817E+02  0.51045296825E+02  0.00000000000E+00 0. -1.
         -2    1    1    2    0  503  0.83936201066E+02  0.37333618153E+01 -0.56655730120E+02  0.10133654620E+03  0.00000000000E+00 0.  1.
<mgrwt>
<rscale>  2 0.11454225E+03</rscale>
<asrwt>0</asrwt>
<pdfrwt beam="1">  1       21 0.25129247E-01 0.11454225E+03</pdfrwt>
<pdfrwt beam="2">  1       21 0.18105762E-01 0.11454225E+03</pdfrwt>
<totfact> 0.42125948E+05</totfact>
</mgrwt>
</event>
<event>
 5    1  0.1590180E+000  0.7706553E+02  0.7546771E-02  0.1337591E+00
         21   -1    0    0  501  502  0.00000000000E+00  0.00000000000E+00  0.17033296498E+02  0.17033296498E+02  0.00000000000E+00 0.  1.
         21   -1    0    0  502  503 -0.00000000000E+00 -0.00000000000E+00 -0.52054289246E+03  0.52054289246E+03  0.00000000000E+00 0. -1.
         24    1    1    2    0    0 -0.38053568411E+01 -0.51078533919E+02 -0.24681651947E+03  0.26459234230E+03  0.80419002446E+02 0. -1.
          1    1    1    2  501    0  0.15619672694E+02  0.18971916608E+02 -0.14807582963E+02  0.28690979559E+02  0.00000000000E+00 0. -1.
         -2    1    1    2    0  503 -0.11814315853E+02  0.32106617311E+02 -0.24188549353E+03  0.24429286709E+03  0.00000000000E+00 0.  1.
<mgrwt>
<rscale>  2 0.77065533E+02</rscale>
<asrwt>0</asrwt>
<pdfrwt beam="1">  1       21 0.26205068E-02 0.77065533E+02</pdfrwt>
<pdfrwt beam="2">  1       21 0.80083531E-01 0.77065533E+02</pdfrwt>
<totfact> 0.10828416E+06</totfact>
</mgrwt>
</event>
<event>
 5    1  0.1590180E+000  0.1419088E+03  0.7546771E-02  0.1210783E+00
         21   -1    0    0  501  502  0.00000000000E+00  0.00000000000E+00  0.30724525318E+03  0.30724525318E+03  0.00000000000E+00 0.  1.
         21   -1    0    0  502  503 -0.00000000000E+00 -0.00000000000E+00 -0.76728066867E+02  0.76728066867E+02  0.00000000000E+00 0.  1.
         24    1    1    2    0    0 -0.10106780003E+03 -0.74963190208E+02  0.16060840072E+03  0.21930903863E+03  0.80419002446E+02 0.  1.
          1    1    1    2  501    0  0.10993307999E+02  0.33619837567E+02  0.53604072020E+02  0.64222603777E+02  0.00000000000E+00 0. -1.
         -2    1    1    2    0  503  0.90074492034E+02  0.41343352640E+02  0.16304713579E+02  0.10044167764E+03  0.00000000000E+00 0.  1.
<mgrwt>
<rscale>  2 0.14190877E+03</rscale>
<asrwt>0</asrwt>
<pdfrwt beam="1">  1       21 0.47268500E-01 0.14190877E+03</pdfrwt>
<pdfrwt beam="2">  1       21 0.11804318E-01 0.14190877E+03</pdfrwt>
<totfact> 0.26195250E+05</totfact>
</mgrwt>
</event>
<event>
 5    1  0.1590180E+000  0.7332280E+02  0.7546771E-02  0.1349145E+00
         21   -1    0    0  501  502  0.00000000000E+00  0.00000000000E+00  0.10881727331E+03  0.10881727331E+03  0.00000000000E+00 0.  1.
         21   -1    0    0  502  503 -0.00000000000E+00 -0.00000000000E+00 -0.65197536673E+02  0.65197536673E+02  0.00000000000E+00 0. -1.
         24    1    1    2    0    0  0.13490376485E+02 -0.16586220338E+02  0.47626624926E+02  0.95878070063E+02  0.80419002446E+02 0.  0.
          1    1    1    2  501    0 -0.34507409562E+02 -0.30868888047E+01  0.20564103172E+02  0.40288615469E+02  0.00000000000E+00 0. -1.
         -2    1    1    2    0  503  0.21017033077E+02  0.19673109142E+02 -0.24570991464E+02  0.37848124447E+02  0.00000000000E+00 0.  1.
<mgrwt>
<rscale>  2 0.73322801E+02</rscale>
<asrwt>0</asrwt>
<pdfrwt beam="1">  1       21 0.16741119E-01 0.73322801E+02</pdfrwt>
<pdfrwt beam="2">  1       21 0.10030390E-01 0.73322801E+02</pdfrwt>
<totfact> 0.25061843E+06</totfact>
</mgrwt>
</event>
<event>
 5    1  0.1590180E+000  0.7045722E+02  0.7546771E-02  0.1358545E+00
         21   -1    0    0  503  502  0.00000000000E+00  0.00000000000E+00  0.14451538122E+02  0.14451538122E+02  0.00000000000E+00 0.  1.
         21   -1    0    0  501  503 -0.00000000000E+00 -0.00000000000E+00 -0.37070085147E+03  0.37070085147E+03  0.00000000000E+00 0. -1.
         24    1    1    2    0    0 -0.47509364118E+02 -0.22399912930E+00 -0.20742423897E+03  0.22748455051E+03  0.80419002446E+02 0.  1.
          1    1    1    2  501    0  0.25659922935E+02  0.14118178727E+00 -0.11152861224E+03  0.11444248741E+03  0.00000000000E+00 0. -1.
         -2    1    1    2    0  502  0.21849441182E+02  0.82817342022E-01 -0.37296462136E+02  0.43225351665E+02  0.00000000000E+00 0.  1.
<mgrwt>
<rscale>  2 0.70457219E+02</rscale>
<asrwt>0</asrwt>
<pdfrwt beam="1">  1       21 0.22233135E-02 0.70457219E+02</pdfrwt>
<pdfrwt beam="2">  1       21 0.57030903E-01 0.70457219E+02</pdfrwt>
<totfact> 0.28955822E+06</totfact>
</mgrwt>
</event>
<event>
 5    1  0.1590180E+000  0.7521119E+02  0.7546771E-02  0.1343218E+00
         21   -1    0    0  501  502  0.00000000000E+00  0.00000000000E+00  0.38894734765E+03  0.38894734765E+03  0.00000000000E+00 0.  1.
         21   -1    0    0  502  503 -0.00000000000E+00 -0.00000000000E+00 -0.33612265859E+02  0.33612265859E+02  0.00000000000E+00 0. -1.
         24    1    1    2    0    0  0.13431104897E+01 -0.51426941540E+02  0.18160279131E+03  0.20516657629E+03  0.80419002446E+02 0.  0.
          1    1    1    2  501    0  0.90100329504E+01  0.24976869764E+02  0.18495572112E+03  0.18685192932E+03  0.00000000000E+00 0. -1.
         -2    1    1    2    0  503 -0.10353143440E+02  0.26450071776E+02 -0.11223430638E+02  0.30541107893E+02  0.00000000000E+00 0.  1.
<mgrwt>
<rscale>  2 0.75211191E+02</rscale>
<asrwt>0</asrwt>
<pdfrwt beam="1">  1       21 0.59838050E-01 0.75211191E+02</pdfrwt>
<pdfrwt beam="2">  1       21 0.51711181E-02 0.75211191E+02</pdfrwt>
<totfact> 0.66589253E+05</totfact>
</mgrwt>
</event>
<event>
 5    1  0.1590180E+000  0.1065754E+03  0.7546771E-02  0.1267046E+00
         21   -1    0    0  503  502  0.00000000000E+00  0.00000000000E+00  0.25717818338E+03  0.25717818338E+03  0.00000000000E+00 0.  1.
         21   -1    0    0  501  503 -0.00000000000E+00 -0.00000000000E+00 -0.61689752060E+02  0.61689752060E+02  0.00000000000E+00 0.  1.
         24    1    1    2    0    0 -0.50714302270E+02 -0.53718879792E+02  0.17289918739E+03  0.20449695219E+03  0.80419002446E+02 0.  1.
          1    1    1    2  501    0 -0.14277975814E+01  0.51750708585E+02 -0.10171003279E+02  0.52760058309E+02  0.00000000000E+00 0. -1.
         -2    1    1    2    0  502  0.52142099851E+02  0.19681712069E+01  0.32760247209E+02  0.61610924940E+02  0.00000000000E+00 0.  1.
<mgrwt>
<rscale>  2 0.10657535E+03</rscale>
<asrwt>0</asrwt>
<pdfrwt beam="1">  1       21 0.39565874E-01 0.10657535E+03</pdfrwt>
<pdfrwt beam="2">  1       21 0.94907312E-02 0.10657535E+03</pdfrwt>
<totfact> 0.55258471E+05</totfact>
</mgrwt>
</event>
<event>
 5    1  0.1590180E+000  0.7018130E+02  0.7546771E-02  0.1359478E+00
         21   -1    0    0  503  502  0.00000000000E+00  0.00000000000E+00  0.19751532965E+03  0.19751532965E+03  0.00000000000E+00 0.  1.
         21   -1    0    0  501  503 -0.00000000000E+00 -0.00000000000E+00 -0.49837341410E+02  0.49837341410E+02  0.00000000000E+00 0. -1.
         24    1    1    2    0    0  0.40930786216E+02 -0.95722617044E+01  0.75512398408E+02  0.11805208902E+03  0.80419002446E+02 0.  0.
          1    1    1    2  501    0 -0.13640008061E+02  0.16554961293E+02 -0.22170238079E+02  0.30848598344E+02  0.00000000000E+00 0. -1.
         -2    1    1    2    0  502 -0.27290778155E+02 -0.69826995890E+01  0.94335827908E+02  0.98451983692E+02  0.00000000000E+00 0.  1.
<mgrwt>
<rscale>  2 0.70181299E+02</rscale>
<asrwt>0</asrwt>
<pdfrwt beam="1">  1       21 0.30386974E-01 0.70181299E+02</pdfrwt>
<pdfrwt beam="2">  1       21 0.76672834E-02 0.70181299E+02</pdfrwt>
<totfact> 0.13202834E+06</totfact>
</mgrwt>
</event>
<event>
 5    1  0.1590180E+000  0.9516956E+02  0.7546771E-02  0.1290795E+00
         21   -1    0    0  503  502  0.00000000000E+00  0.00000000000E+00  0.14885732336E+04  0.14885732336E+04  0.00000000000E+00 0.  1.
         21   -1    0    0  501  503 -0.00000000000E+00 -0.00000000000E+00 -0.12086994429E+02  0.12086994429E+02  0.00000000000E+00 0.  1.
         24    1    1    2    0    0  0.72897358855E+02  0.12192665717E+02  0.88695324139E+03  0.89365315105E+03  0.80419002446E+02 0.  1.
          1    1    1    2  501    0 -0.40069866028E+02  0.10236655210E+02  0.45358914931E+02  0.61382525503E+02  0.00000000000E+00 0. -1.
         -2    1    1    2    0  502 -0.32827492827E+02 -0.22429320927E+02  0.54417408282E+03  0.54562455145E+03  0.00000000000E+00 0.  1.
<mgrwt>
<rscale>  2 0.95169562E+02</rscale>
<asrwt>0</asrwt>
<pdfrwt beam="1">  1       21 0.22901112E+00 0.95169562E+02</pdfrwt>
<pdfrwt beam="2">  1       21 0.18595388E-02 0.95169562E+02</pdfrwt>
<totfact> 0.13199991E+05</totfact>
</mgrwt>
</event>
<event>
 5    1  0.1590180E+000  0.1158324E+03  0.7546771E-02  0.1250135E+00
         21   -1    0    0  503  502  0.00000000000E+00  0.00000000000E+00  0.10385577205E+03  0.10385577205E+03  0.00000000000E+00 0.  1.
         21   -1    0    0  501  503 -0.00000000000E+00 -0.00000000000E+00 -0.17902029253E+03  0.17902029253E+03  0.00000000000E+00 0. -1.
         24    1    1    2    0    0 -0.28018636608E+02  0.45859181940E+02 -0.16521413927E+02  0.98123807703E+02  0.80419002446E+02 0. -1.
          1    1    1    2  501    0  0.46251773451E+02 -0.82179917384E+02 -0.92322291885E+02  0.13197034117E+03  0.00000000000E+00 0. -1.
         -2    1    1    2    0  502 -0.18233136843E+02  0.36320735444E+02  0.33679185334E+02  0.52781915720E+02  0.00000000000E+00 0.  1.
<mgrwt>
<rscale>  2 0.11583240E+03</rscale>
<asrwt>0</asrwt>
<pdfrwt beam="1">  1       21 0.15977811E-01 0.11583240E+03</pdfrwt>
<pdfrwt beam="2">  1       21 0.27541583E-01 0.11583240E+03</pdfrwt>
<totfact> 0.44431801E+05</totfact>
</mgrwt>
</event>
<event>
 5    1  0.1590180E+000  0.1110697E+03  0.7546771E-02  0.1258602E+00
         21   -1    0    0  503  502  0.00000000000E+00  0.00000000000E+00  0.85370861877E+03  0.85370861877E+03  0.00000000000E+00 0. -1.
         21   -1    0    0  501  503 -0.00000000000E+00 -0.00000000000E+00 -0.17356699240E+02  0.17356699240E+02  0.00000000000E+00 0.  1.
         24    1    1    2    0    0 -0.67064415710E+02 -0.55343972142E+02  0.37632708660E+03  0.39452488283E+03  0.80419002446E+02 0.  1.
          1    1    1    2  501    0  0.69092844897E+02  0.25286812179E+02  0.17376176534E+03  0.18869656907E+03  0.00000000000E+00 0. -1.
         -2    1    1    2    0  502 -0.20284291872E+01  0.30057159963E+02  0.28626306758E+03  0.28784386610E+03  0.00000000000E+00 0.  1.
<mgrwt>
<rscale>  2 0.11106966E+03</rscale>
<asrwt>0</asrwt>
<pdfrwt beam="1">  1       21 0.13133975E+00 0.11106966E+03</pdfrwt>
<pdfrwt beam="2">  1       21 0.26702621E-02 0.11106966E+03</pdfrwt>
<totfact> 0.33083022E+05</totfact>
</mgrwt>
</event>
<event>
 5    1  0.1590180E+000  0.1338687E+03  0.7546771E-02  0.1221826E+00
         21   -1    0    0  503  502  0.00000000000E+00  0.00000000000E+00  0.30127561547E+03  0.30127561547E+03  0.00000000000E+00 0. -1.
         21   -1    0    0  501  503 -0.00000000000E+00 -0.00000000000E+00 -0.61131069741E+02  0.61131069741E+02  0.00000000000E+00 0.  1.
         24    1    1    2    0    0 -0.71875259853E+02 -0.83370126879E+02  0.96293308452E+02  0.16690191204E+03  0.80419002446E+02 0. -1.
          1    1    1    2  501    0  0.82220587283E+01  0.64502143485E+02  0.59305043940E+02  0.88006914505E+02  0.00000000000E+00 0. -1.
         -2    1    1    2    0  502  0.63653201124E+02  0.18867983394E+02  0.84546193339E+02  0.10749785867E+03  0.00000000000E+00 0.  1.
<mgrwt>
<rscale>  2 0.13386870E+03</rscale>
<asrwt>0</asrwt>
<pdfrwt beam="1">  1       21 0.46350094E-01 0.13386870E+03</pdfrwt>
<pdfrwt beam="2">  1       21 0.94047801E-02 0.13386870E+03</pdfrwt>
<totfact> 0.40723095E+05</totfact>
</mgrwt>
</event>
<event>
 5    1  0.1590180E+000  0.9733921E+02  0.7546771E-02  0.1285993E+00
         21   -1    0    0  501  502  0.00000000000E+00  0.00000000000E+00  0.13133687809E+03  0.13133687809E+03  0.00000000000E+00 0. -1.
         21   -1    0    0  502  503 -0.00000000000E+00 -0.00000000000E+00 -0.19398722123E+03  0.19398722123E+03  0.00000000000E+00 0.  1.
         24    1    1    2    0    0  0.37554097546E+01 -0.37884579165E+02  0.66371226618E+02  0.11100315364E+03  0.80419002446E+02 0.  0.
          1    1    1    2  501    0 -0.41249020661E+02 -0.12314340407E+02  0.23775076210E+02  0.49177016318E+02  0.00000000000E+00 0. -1.
         -2    1    1    2    0  503  0.37493610906E+02  0.50198919572E+02 -0.15279664597E+03  0.16514392936E+03  0.00000000000E+00 0.  1.
<mgrwt>
<rscale>  2 0.97339208E+02</rscale>
<asrwt>0</asrwt>
<pdfrwt beam="1">  1       21 0.20205674E-01 0.97339208E+02</pdfrwt>
<pdfrwt beam="2">  1       21 0.29844188E-01 0.97339208E+02</pdfrwt>
<totfact> 0.24927748E+05</totfact>
</mgrwt>
</event>
<event>
 5    1  0.2729581E+000  0.1169411E+03  0.7546771E-02  0.1248230E+00
         21   -1    0    0  503  502  0.00000000000E+00  0.00000000000E+00  0.65114470386E+03  0.65114470386E+03  0.00000000000E+00 0. -1.
         21   -1    0    0  501  503 -0.00000000000E+00 -0.00000000000E+00 -0.11009598025E+03  0.11009598025E+03  0.00000000000E+00 0. -1.
         24    1    1    2    0    0  0.25905222596E+02  0.29632767077E+02  0.38534300686E+03  0.39560792501E+03  0.80419002446E+02 0. -1.
          1    1    1    2  501    0 -0.82789785665E+02 -0.28147463946E+02 -0.82804458269E+02  0.12042842956E+03  0.00000000000E+00 0. -1.
         -2    1    1    2    0  502  0.56884563069E+02 -0.14853031305E+01  0.23851017501E+03  0.24520432954E+03  0.00000000000E+00 0.  1.
<mgrwt>
<rscale>  2 0.11694107E+03</rscale>
<asrwt>0</asrwt>
<pdfrwt beam="1">  1       21 0.10017611E+00 0.11694107E+03</pdfrwt>
<pdfrwt beam="2">  1       21 0.16937844E-01 0.11694107E+03</pdfrwt>
<totfact> 0.26973336E+04</totfact>
</mgrwt>
</event>
<event>
 5    1  0.1590180E+000  0.8759547E+02  0.7546771E-02  0.1308781E+00
         21   -1    0    0  503  502  0.00000000000E+00  0.00000000000E+00  0.10636069120E+04  0.10636069120E+04  0.00000000000E+00 0.  1.
         21   -1    0    0  501  503 -0.00000000000E+00 -0.00000000000E+00 -0.36421875080E+02  0.36421875080E+02  0.00000000000E+00 0.  1.
         24    1    1    2    0    0  0.41641010964E+02  0.14430626823E+02  0.13430340469E+03  0.16262483590E+03  0.80419002446E+02 0.  1.
          1    1    1    2  501    0 -0.59112154963E+02  0.24922290602E+01  0.17519648431E+02  0.61704101575E+02  0.00000000000E+00 0. -1.
         -2    1    1    2    0  502  0.17471143999E+02 -0.16922855884E+02  0.87536198376E+03  0.87569984957E+03  0.00000000000E+00 0.  1.
<mgrwt>
<rscale>  2 0.87595474E+02</rscale>
<asrwt>0</asrwt>
<pdfrwt beam="1">  1       21 0.16363181E+00 0.87595474E+02</pdfrwt>
<pdfrwt beam="2">  1       21 0.56033662E-02 0.87595474E+02</pdfrwt>
<totfact> 0.56491216E+04</totfact>
</mgrwt>
</event>
<event>
 5    1  0.1590180E+000  0.1389361E+03  0.7546771E-02  0.1214768E+00
         21   -1    0    0  501  502  0.00000000000E+00  0.00000000000E+00  0.32322637769E+03  0.32322637769E+03  0.00000000000E+00 0.  1.
         21   -1    0    0  502  503 -0.00000000000E+00 -0.00000000000E+00 -0.11883976017E+03  0.11883976017E+03  0.00000000000E+00 0. -1.
         24    1    1    2    0    0 -0.65399832154E+02  0.41713804854E+02 -0.93768667939E+01  0.11212636241E+03  0.80419002446E+02 0.  1.
          1    1    1    2  501    0  0.10820505177E+03 -0.54917111033E+02  0.24630443307E+03  0.27457256975E+03  0.00000000000E+00 0. -1.
         -2    1    1    2    0  503 -0.42805219617E+02  0.13203306179E+02 -0.32540948751E+02  0.55367205692E+02  0.00000000000E+00 0.  1.
<mgrwt>
<rscale>  2 0.13893612E+03</rscale>
<asrwt>0</asrwt>
<pdfrwt beam="1">  1       21 0.49727135E-01 0.13893612E+03</pdfrwt>
<pdfrwt beam="2">  1       21 0.18283040E-01 0.13893612E+03</pdfrwt>
<totfact> 0.10727058E+05</totfact>
</mgrwt>
</event>
<event>
 5    1  0.1590180E+000  0.1021655E+03  0.7546771E-02  0.1275807E+00
         21   -1    0    0  501  502  0.00000000000E+00  0.00000000000E+00  0.19976699320E+04  0.19976699320E+04  0.00000000000E+00 0.  1.
         21   -1    0    0  502  503 -0.00000000000E+00 -0.00000000000E+00 -0.61770167265E+01  0.61770167265E+01  0.00000000000E+00 0. -1.
         24    1    1    2    0    0 -0.30634014945E+02  0.66877319001E+02  0.12574333952E+04  0.12621477640E+04  0.80419002446E+02 0.  0.
          1    1    1    2  501    0 -0.20331784410E+01 -0.62328204835E+02  0.61506341901E+03  0.61821674868E+03  0.00000000000E+00 0. -1.
         -2    1    1    2    0  503  0.32667193386E+02 -0.45491141664E+01  0.11899610100E+03  0.12348243607E+03  0.00000000000E+00 0.  1.
<mgrwt>
<rscale>  2 0.10216555E+03</rscale>
<asrwt>0</asrwt>
<pdfrwt beam="1">  1       21 0.30733332E+00 0.10216555E+03</pdfrwt>
<pdfrwt beam="2">  1       21 0.95031186E-03 0.10216555E+03</pdfrwt>
<totfact> 0.13803673E+05</totfact>
</mgrwt>
</event>
<event>
 5    1  0.1590180E+000  0.1132340E+03  0.7546771E-02  0.1254696E+00
         21   -1    0    0  503  502  0.00000000000E+00  0.00000000000E+00  0.69765285084E+02  0.69765285084E+02  0.00000000000E+00 0.  1.
         21   -1    0    0  501  503 -0.00000000000E+00 -0.00000000000E+00 -0.30887230416E+03  0.30887230416E+03  0.00000000000E+00 0. -1.
         24    1    1    2    0    0 -0.66554271520E+02  0.13614538786E+02 -0.59140897792E+02  0.12074638077E+03  0.80419002446E+02 0. -1.
          1    1    1    2  501    0  0.93355432083E+02 -0.71620106652E+01 -0.20197137555E+03  0.22261843508E+03  0.00000000000E+00 0. -1.
         -2    1    1    2    0  502 -0.26801160563E+02 -0.64525281212E+01  0.22005254272E+02  0.35272773385E+02  0.00000000000E+00 0.  1.
<mgrwt>
<rscale>  2 0.11323400E+03</rscale>
<asrwt>0</asrwt>
<pdfrwt beam="1">  1       21 0.10733121E-01 0.11323400E+03</pdfrwt>
<pdfrwt beam="2">  1       21 0.47518817E-01 0.11323400E+03</pdfrwt>
<totfact> 0.30821308E+05</totfact>
</mgrwt>
</event>
<event>
 5    1  0.1590180E+000  0.1479934E+03  0.7546771E-02  0.1202961E+00
         21   -1    0    0  503  502  0.00000000000E+00  0.00000000000E+00  0.48641794837E+03  0.48641794837E+03  0.00000000000E+00 0.  1.
         21   -1    0    0  501  503 -0.00000000000E+00 -0.00000000000E+00 -0.14874261120E+03  0.14874261120E+03  0.00000000000E+00 0. -1.
         24    1    1    2    0    0  0.54668618328E+02  0.92799718790E+02  0.12443884221E+03  0.18317392566E+03  0.80419002446E+02 0. -1.
          1    1    1    2  501    0 -0.92545249411E+02 -0.77540580499E+02 -0.87107913641E+02  0.14887898922E+03  0.00000000000E+00 0. -1.
         -2    1    1    2    0  502  0.37876631083E+02 -0.15259138291E+02  0.30034440861E+03  0.30310764469E+03  0.00000000000E+00 0.  1.
<mgrwt>
<rscale>  2 0.14799336E+03</rscale>
<asrwt>0</asrwt>
<pdfrwt beam="1">  1       21 0.74833530E-01 0.14799336E+03</pdfrwt>
<pdfrwt beam="2">  1       21 0.22883479E-01 0.14799336E+03</pdfrwt>
<totfact> 0.29382748E+04</totfact>
</mgrwt>
</event>
<event>
 5    1  0.1590180E+000  0.8511864E+02  0.7546771E-02  0.1315123E+00
         21   -1    0    0  501  502  0.00000000000E+00  0.00000000000E+00  0.16037306239E+03  0.16037306239E+03  0.00000000000E+00 0. -1.
         21   -1    0    0  502  503 -0.00000000000E+00 -0.00000000000E+00 -0.59469498417E+02  0.59469498417E+02  0.00000000000E+00 0. -1.
         24    1    1    2    0    0 -0.24653981218E+02  0.13162717351E+02  0.17373926368E+02  0.86891571454E+02  0.80419002446E+02 0.  0.
          1    1    1    2  501    0  0.20096227383E+02  0.33040920238E+02  0.76867548365E+02  0.86047549395E+02  0.00000000000E+00 0. -1.
         -2    1    1    2    0  503  0.45577538350E+01 -0.46203637589E+02  0.66620892361E+01  0.46903439954E+02  0.00000000000E+00 0.  1.
<mgrwt>
<rscale>  2 0.85118637E+02</rscale>
<asrwt>0</asrwt>
<pdfrwt beam="1">  1       21 0.24672779E-01 0.85118637E+02</pdfrwt>
<pdfrwt beam="2">  1       21 0.91491537E-02 0.85118637E+02</pdfrwt>
<totfact> 0.14549054E+06</totfact>
</mgrwt>
</event>
<event>
 5    1  0.1590180E+000  0.7223650E+02  0.7546771E-02  0.1352649E+00
         21   -1    0    0  501  502  0.00000000000E+00  0.00000000000E+00  0.86748297617E+01  0.86748297617E+01  0.00000000000E+00 0. -1.
         21   -1    0    0  502  503 -0.00000000000E+00 -0.00000000000E+00 -0.15180939644E+04  0.15180939644E+04  0.00000000000E+00 0.  1.
         24    1    1    2    0    0 -0.93466868813E+01 -0.25699270947E+02 -0.12628747616E+04  0.12657281274E+04  0.80419002446E+02 0.  0.
          1    1    1    2  501    0 -0.99662923513E+01  0.36201188634E+02 -0.46384878275E+02  0.59677550002E+02  0.00000000000E+00 0. -1.
         -2    1    1    2    0  503  0.19312979233E+02 -0.10501917687E+02 -0.20015949478E+03  0.20136311677E+03  0.00000000000E+00 0.  1.
<mgrwt>
<rscale>  2 0.72236500E+02</rscale>
<asrwt>0</asrwt>
<pdfrwt beam="1">  1       21 0.13345896E-02 0.72236500E+02</pdfrwt>
<pdfrwt beam="2">  1       21 0.23355285E+00 0.72236500E+02</pdfrwt>
<totfact> 0.21532115E+05</totfact>
</mgrwt>
</event>
<event>
 5    1  0.1590180E+000  0.8275594E+02  0.7546771E-02  0.1321408E+00
         21   -1    0    0  503  502  0.00000000000E+00  0.00000000000E+00  0.40768075219E+03  0.40768075219E+03  0.00000000000E+00 0.  1.
         21   -1    0    0  501  503 -0.00000000000E+00 -0.00000000000E+00 -0.21188833154E+02  0.21188833154E+02  0.00000000000E+00 0.  1.
         24    1    1    2    0    0 -0.49561338135E+02 -0.14793980502E+02  0.13277432134E+03  0.16361975571E+03  0.80419002446E+02 0.  1.
          1    1    1    2  501    0  0.20775529876E+02  0.30653382603E+02  0.76268680480E+02  0.84783041517E+02  0.00000000000E+00 0. -1.
         -2    1    1    2    0  502  0.28785808259E+02 -0.15859402102E+02  0.17744891722E+03  0.18046678812E+03  0.00000000000E+00 0.  1.
<mgrwt>
<rscale>  2 0.82755941E+02</rscale>
<asrwt>0</asrwt>
<pdfrwt beam="1">  1       21 0.62720110E-01 0.82755941E+02</pdfrwt>
<pdfrwt beam="2">  1       21 0.32598208E-02 0.82755941E+02</pdfrwt>
<totfact> 0.12892938E+06</totfact>
</mgrwt>
</event>
<event>
 5    1  0.1590180E+000  0.1025940E+03  0.7546771E-02  0.1274934E+00
         21   -1    0    0  501  502  0.00000000000E+00  0.00000000000E+00  0.26890311081E+02  0.26890311081E+02  0.00000000000E+00 0.  1.
         21   -1    0    0  502  503 -0.00000000000E+00 -0.00000000000E+00 -0.40137572061E+03  0.40137572061E+03  0.00000000000E+00 0. -1.
         24    1    1    2    0    0 -0.25464732417E+02 -0.55188545911E+02 -0.15396307683E+03  0.18402737073E+03  0.80419002446E+02 0. -1.
          1    1    1    2  501    0 -0.31568148035E+02  0.19479626158E+02 -0.66207061754E+02  0.75890571429E+02  0.00000000000E+00 0. -1.
         -2    1    1    2    0  503  0.57032880452E+02  0.35708919753E+02 -0.15431527094E+03  0.16834808953E+03  0.00000000000E+00 0.  1.
<mgrwt>
<rscale>  2 0.10259401E+03</rscale>
<asrwt>0</asrwt>
<pdfrwt beam="1">  1       21 0.41369710E-02 0.10259401E+03</pdfrwt>
<pdfrwt beam="2">  1       21 0.61750110E-01 0.10259401E+03</pdfrwt>
<totfact> 0.90439422E+05</totfact>
</mgrwt>
</event>
<event>
 5    1  0.1590180E+000  0.9681937E+02  0.7546771E-02  0.1287130E+00
         21   -1    0    0  501  502  0.00000000000E+00  0.00000000000E+00  0.28482939585E+03  0.28482939585E+03  0.00000000000E+00 0.  1.
         21   -1    0    0  502  503 -0.00000000000E+00 -0.00000000000E+00 -0.93562558691E+02  0.93562558691E+02  0.00000000000E+00 0.  1.
         24    1    1    2    0    0 -0.62880686532E+02 -0.30351428682E+02  0.18192817708E+03  0.21080860403E+03  0.80419002446E+02 0.  1.
          1    1    1    2  501    0  0.43770838383E+02 -0.78072453822E+01  0.76223529122E+02  0.88243219371E+02  0.00000000000E+00 0. -1.
         -2    1    1    2    0  503  0.19109848149E+02  0.38158674065E+02 -0.66884869044E+02  0.79340131142E+02  0.00000000000E+00 0.  1.
<mgrwt>
<rscale>  2 0.96819371E+02</rscale>
<asrwt>0</asrwt>
<pdfrwt beam="1">  1       21 0.43819907E-01 0.96819371E+02</pdfrwt>
<pdfrwt beam="2">  1       21 0.14394240E-01 0.96819371E+02</pdfrwt>
<totfact> 0.21701546E+05</totfact>
</mgrwt>
</event>
<event>
 5    1  0.1590180E+000  0.1022225E+03  0.7546771E-02  0.1275691E+00
         21   -1    0    0  501  502  0.00000000000E+00  0.00000000000E+00  0.76129191525E+03  0.76129191525E+03  0.00000000000E+00 0. -1.
         21   -1    0    0  502  503 -0.00000000000E+00 -0.00000000000E+00 -0.42454803932E+02  0.42454803932E+02  0.00000000000E+00 0.  1.
         24    1    1    2    0    0  0.14226033073E+02  0.32433103759E+01  0.24017390678E+02  0.85187734378E+02  0.80419002446E+02 0.  1.
          1    1    1    2  501    0  0.54221223137E+02 -0.17492387352E+01  0.59528385861E+03  0.59775067812E+03  0.00000000000E+00 0. -1.
         -2    1    1    2    0  503 -0.68447256210E+02 -0.14940716407E+01  0.99535862030E+02  0.12080830668E+03  0.00000000000E+00 0.  1.
<mgrwt>
<rscale>  2 0.10222248E+03</rscale>
<asrwt>0</asrwt>
<pdfrwt beam="1">  1       21 0.11712182E+00 0.10222248E+03</pdfrwt>
<pdfrwt beam="2">  1       21 0.65315089E-02 0.10222248E+03</pdfrwt>
<totfact> 0.99732941E+04</totfact>
</mgrwt>
</event>
<event>
 5    1  0.1590180E+000  0.1229312E+03  0.7546771E-02  0.1238338E+00
         21   -1    0    0  501  502  0.00000000000E+00  0.00000000000E+00  0.34588993865E+02  0.34588993865E+02  0.00000000000E+00 0.  1.
         21   -1    0    0  502  503 -0.00000000000E+00 -0.00000000000E+00 -0.55771763790E+03  0.55771763790E+03  0.00000000000E+00 0.  1.
         24    1    1    2    0    0  0.23388311248E+02  0.10725267078E+03 -0.24845458053E+03  0.28327909035E+03  0.80419002446E+02 0.  1.
          1    1    1    2  501    0 -0.78806724273E+01 -0.39614047155E+02 -0.20004332635E+02  0.45072730715E+02  0.00000000000E+00 0. -1.
         -2    1    1    2    0  503 -0.15507638821E+02 -0.67638623623E+02 -0.25466973087E+03  0.26395481070E+03  0.00000000000E+00 0.  1.
<mgrwt>
<rscale>  2 0.12293121E+03</rscale>
<asrwt>0</asrwt>
<pdfrwt beam="1">  1       21 0.53213841E-02 0.12293121E+03</pdfrwt>
<pdfrwt beam="2">  1       21 0.85802706E-01 0.12293121E+03</pdfrwt>
<totfact> 0.28875491E+05</totfact>
</mgrwt>
</event>
<event>
 5    1  0.1590180E+000  0.8216101E+02  0.7546771E-02  0.1323028E+00
         21   -1    0    0  501  502  0.00000000000E+00  0.00000000000E+00  0.29376588255E+02  0.29376588255E+02  0.00000000000E+00 0.  1.
         21   -1    0    0  502  503 -0.00000000000E+00 -0.00000000000E+00 -0.32239931993E+03  0.32239931993E+03  0.00000000000E+00 0.  1.
         24    1    1    2    0    0  0.96559732898E+01 -0.57154607422E+02 -0.75296682712E+02  0.12448571545E+03  0.80419002446E+02 0.  1.
          1    1    1    2  501    0  0.10701991025E+02  0.24102252205E+02 -0.83773176782E+02  0.87825943328E+02  0.00000000000E+00 0. -1.
         -2    1    1    2    0  503 -0.20357964315E+02  0.33052355217E+02 -0.13395287218E+03  0.13946424940E+03  0.00000000000E+00 0.  1.
<mgrwt>
<rscale>  2 0.82161013E+02</rscale>
<asrwt>0</asrwt>
<pdfrwt beam="1">  1       21 0.45194751E-02 0.82161013E+02</pdfrwt>
<pdfrwt beam="2">  1       21 0.49599896E-01 0.82161013E+02</pdfrwt>
<totfact> 0.12267874E+06</totfact>
</mgrwt>
</event>
<event>
 5    1  0.1590180E+000  0.7036165E+02  0.7546771E-02  0.1358868E+00
         21   -1    0    0  503  502  0.00000000000E+00  0.00000000000E+00  0.18024688530E+03  0.18024688530E+03  0.00000000000E+00 0.  1.
         21   -1    0    0  501  503 -0.00000000000E+00 -0.00000000000E+00 -0.34378339512E+02  0.34378339512E+02  0.00000000000E+00 0.  1.
         24    1    1    2    0    0  0.69205449984E+01  0.36487166217E+02  0.70310032789E+02  0.11309254576E+03  0.80419002446E+02 0.  0.
          1    1    1    2  501    0 -0.20290759872E+02 -0.10334233434E+02  0.26433252813E+01  0.22923753738E+02  0.00000000000E+00 0. -1.
         -2    1    1    2    0  502  0.13370214874E+02 -0.26152932783E+02  0.72915187715E+02  0.78608925311E+02  0.00000000000E+00 0.  1.
<mgrwt>
<rscale>  2 0.70361647E+02</rscale>
<asrwt>0</asrwt>
<pdfrwt beam="1">  1       21 0.27730290E-01 0.70361647E+02</pdfrwt>
<pdfrwt beam="2">  1       21 0.52889754E-02 0.70361647E+02</pdfrwt>
<totfact> 0.29223517E+06</totfact>
</mgrwt>
</event>
<event>
 5    1  0.1590180E+000  0.8183982E+02  0.7546771E-02  0.1323910E+00
         21   -1    0    0  501  502  0.00000000000E+00  0.00000000000E+00  0.10440677586E+04  0.10440677586E+04  0.00000000000E+00 0.  1.
         21   -1    0    0  502  503 -0.00000000000E+00 -0.00000000000E+00 -0.18400275500E+02  0.18400275500E+02  0.00000000000E+00 0. -1.
         24    1    1    2    0    0 -0.25061053218E+01 -0.23827857172E+02  0.93834486473E+03  0.94208935270E+03  0.80419002446E+02 0.  1.
          1    1    1    2  501    0 -0.35506560352E+02  0.11941767340E+01  0.55441169114E+02  0.65847286344E+02  0.00000000000E+00 0. -1.
         -2    1    1    2    0  503  0.38012665674E+02  0.22633680438E+02  0.31881449282E+02  0.54531395087E+02  0.00000000000E+00 0.  1.
<mgrwt>
<rscale>  2 0.81839824E+02</rscale>
<asrwt>0</asrwt>
<pdfrwt beam="1">  1       21 0.16062576E+00 0.81839824E+02</pdfrwt>
<pdfrwt beam="2">  1       21 0.28308124E-02 0.81839824E+02</pdfrwt>
<totfact> 0.18300964E+05</totfact>
</mgrwt>
</event>
<event>
 5    1  0.1590180E+000  0.7880135E+02  0.7546771E-02  0.1332488E+00
         21   -1    0    0  501  502  0.00000000000E+00  0.00000000000E+00  0.34120177317E+03  0.34120177317E+03  0.00000000000E+00 0. -1.
         21   -1    0    0  502  503 -0.00000000000E+00 -0.00000000000E+00 -0.68107967985E+02  0.68107967985E+02  0.00000000000E+00 0. -1.
         24    1    1    2    0    0 -0.51857532667E+01  0.31575479166E+02  0.32951899651E+02  0.92611805762E+02  0.80419002446E+02 0. -1.
          1    1    1    2  501    0  0.21546473752E+02  0.11889572139E+02  0.26354555020E+03  0.26469202762E+03  0.00000000000E+00 0. -1.
         -2    1    1    2    0  503 -0.16360720485E+02 -0.43465051304E+02 -0.23403644665E+02  0.52005907773E+02  0.00000000000E+00 0.  1.
<mgrwt>
<rscale>  2 0.78801354E+02</rscale>
<asrwt>0</asrwt>
<pdfrwt beam="1">  1       21 0.52492579E-01 0.78801354E+02</pdfrwt>
<pdfrwt beam="2">  1       21 0.10478149E-01 0.78801354E+02</pdfrwt>
<totfact> 0.26403059E+05</totfact>
</mgrwt>
</event>
<event>
 5    1  0.1590180E+000  0.7054985E+02  0.7546771E-02  0.1358233E+00
         21   -1    0    0  501  502  0.00000000000E+00  0.00000000000E+00  0.10936150201E+03  0.10936150201E+03  0.00000000000E+00 0. -1.
         21   -1    0    0  502  503 -0.00000000000E+00 -0.00000000000E+00 -0.21885094701E+03  0.21885094701E+03  0.00000000000E+00 0.  1.
         24    1    1    2    0    0  0.23812912601E+02  0.73698813067E+01  0.50422682360E+02  0.98137825571E+02  0.80419002446E+02 0.  0.
          1    1    1    2  501    0 -0.35607723992E+01  0.21415842735E+02  0.29942728001E+02  0.36984920985E+02  0.00000000000E+00 0. -1.
         -2    1    1    2    0  503 -0.20252140202E+02 -0.28785724041E+02 -0.18985485536E+03  0.19308970246E+03  0.00000000000E+00 0.  1.
<mgrwt>
<rscale>  2 0.70549855E+02</rscale>
<asrwt>0</asrwt>
<pdfrwt beam="1">  1       21 0.16824847E-01 0.70549855E+02</pdfrwt>
<pdfrwt beam="2">  1       21 0.33669376E-01 0.70549855E+02</pdfrwt>
<totfact> 0.27718454E+05</totfact>
</mgrwt>
</event>
<event>
 5    1  0.1590180E+000  0.7503625E+02  0.7546771E-02  0.1343759E+00
         21   -1    0    0  503  502  0.00000000000E+00  0.00000000000E+00  0.20066077598E+02  0.20066077598E+02  0.00000000000E+00 0.  1.
         21   -1    0    0  501  503 -0.00000000000E+00 -0.00000000000E+00 -0.29897568591E+03  0.29897568591E+03  0.00000000000E+00 0. -1.
         24    1    1    2    0    0 -0.33853067545E+01  0.15427671834E+02 -0.15206448595E+03  0.17274344329E+03  0.80419002446E+02 0. -1.
          1    1    1    2  501    0 -0.49574689879E+01 -0.40958657741E+02 -0.10066006429E+03  0.10878711635E+03  0.00000000000E+00 0. -1.
         -2    1    1    2    0  502  0.83427757425E+01  0.25530985907E+02 -0.26185058077E+02  0.37511203859E+02  0.00000000000E+00 0.  1.
<mgrwt>
<rscale>  2 0.75036250E+02</rscale>
<asrwt>0</asrwt>
<pdfrwt beam="1">  1       21 0.30870888E-02 0.75036250E+02</pdfrwt>
<pdfrwt beam="2">  1       21 0.45996261E-01 0.75036250E+02</pdfrwt>
<totfact> 0.26558421E+06</totfact>
</mgrwt>
</event>
<event>
 5    1  0.1590180E+000  0.7361691E+02  0.7546771E-02  0.1348208E+00
         21   -1    0    0  501  502  0.00000000000E+00  0.00000000000E+00  0.23930340137E+03  0.23930340137E+03  0.00000000000E+00 0.  1.
         21   -1    0    0  502  503 -0.00000000000E+00 -0.00000000000E+00 -0.10004752288E+03  0.10004752288E+03  0.00000000000E+00 0.  1.
         24    1    1    2    0    0 -0.15138266824E+01 -0.10845408317E+02  0.13111497931E+03  0.15420203730E+03  0.80419002446E+02 0.  1.
          1    1    1    2  501    0  0.11381845631E+02  0.36686495525E+02  0.90475629529E+02  0.98291835380E+02  0.00000000000E+00 0. -1.
         -2    1    1    2    0  503 -0.98680189486E+01 -0.25841087207E+02 -0.82334730348E+02  0.86857051570E+02  0.00000000000E+00 0.  1.
<mgrwt>
<rscale>  2 0.73616911E+02</rscale>
<asrwt>0</asrwt>
<pdfrwt beam="1">  1       21 0.36815908E-01 0.73616911E+02</pdfrwt>
<pdfrwt beam="2">  1       21 0.15391927E-01 0.73616911E+02</pdfrwt>
<totfact> 0.27322914E+05</totfact>
</mgrwt>
</event>
<event>
 5    1  0.1590180E+000  0.6809992E+02  0.7546771E-02  0.1366676E+00
         21   -1    0    0  501  502  0.00000000000E+00  0.00000000000E+00  0.20294514899E+04  0.20294514899E+04  0.00000000000E+00 0.  1.
         21   -1    0    0  502  503 -0.00000000000E+00 -0.00000000000E+00 -0.47484488265E+01  0.47484488265E+01  0.00000000000E+00 0. -1.
         24    1    1    2    0    0  0.98920003721E+00 -0.10596790394E+02  0.57742239253E+03  0.58309270775E+03  0.80419002446E+02 0.  0.
          1    1    1    2  501    0  0.99015852230E+01  0.30677429384E+02  0.13733384809E+04  0.13737167573E+04  0.00000000000E+00 0. -1.
         -2    1    1    2    0  503 -0.10890785260E+02 -0.20080638991E+02  0.73942167680E+02  0.77390473749E+02  0.00000000000E+00 0.  1.
<mgrwt>
<rscale>  2 0.68099916E+02</rscale>
<asrwt>0</asrwt>
<pdfrwt beam="1">  1       21 0.31222261E+00 0.68099916E+02</pdfrwt>
<pdfrwt beam="2">  1       21 0.73053221E-03 0.68099916E+02</pdfrwt>
<totfact> 0.20625989E+05</totfact>
</mgrwt>
</event>
<event>
 5    1  0.1590180E+000  0.6505128E+02  0.7546771E-02  0.1377779E+00
         21   -1    0    0  501  502  0.00000000000E+00  0.00000000000E+00  0.20117184035E+03  0.20117184035E+03  0.00000000000E+00 0. -1.
         21   -1    0    0  502  503 -0.00000000000E+00 -0.00000000000E+00 -0.92492740691E+02  0.92492740691E+02  0.00000000000E+00 0.  1.
         24    1    1    2    0    0  0.78765122130E+01  0.46933640597E+01 -0.60018634603E+01  0.81162216765E+02  0.80419002446E+02 0. -1.
          1    1    1    2  501    0 -0.20359933512E+02 -0.20585853040E+02  0.16014912747E+03  0.16274534484E+03  0.00000000000E+00 0. -1.
         -2    1    1    2    0  503  0.12483421299E+02  0.15892488980E+02 -0.45468164352E+02  0.49757019433E+02  0.00000000000E+00 0.  1.
<mgrwt>
<rscale>  2 0.65051282E+02</rscale>
<asrwt>0</asrwt>
<pdfrwt beam="1">  1       21 0.30949514E-01 0.65051282E+02</pdfrwt>
<pdfrwt beam="2">  1       21 0.14229652E-01 0.65051282E+02</pdfrwt>
<totfact> 0.43837310E+05</totfact>
</mgrwt>
</event>
<event>
 5    1  0.1590180E+000  0.7596105E+02  0.7546771E-02  0.1340921E+00
         21   -1    0    0  503  502  0.00000000000E+00  0.00000000000E+00  0.12511552611E+04  0.12511552611E+04  0.00000000000E+00 0.  1.
         21   -1    0    0  501  503 -0.00000000000E+00 -0.00000000000E+00 -0.89296982714E+01  0.89296982714E+01  0.00000000000E+00 0. -1.
         24    1    1    2    0    0 -0.16060710518E+02  0.38009212202E+01  0.98929560381E+03  0.99269602653E+03  0.80419002446E+02 0.  0.
          1    1    1    2  501    0  0.41387260252E+02 -0.12193475055E+02  0.67924060193E+02  0.80469025707E+02  0.00000000000E+00 0. -1.
         -2    1    1    2    0  502 -0.25326549734E+02  0.83925538348E+01  0.18500589882E+03  0.18691990712E+03  0.00000000000E+00 0.  1.
<mgrwt>
<rscale>  2 0.75961051E+02</rscale>
<asrwt>0</asrwt>
<pdfrwt beam="1">  1       21 0.19248529E+00 0.75961051E+02</pdfrwt>
<pdfrwt beam="2">  1       21 0.13738007E-02 0.75961051E+02</pdfrwt>
<totfact> 0.35837910E+05</totfact>
</mgrwt>
</event>
<event>
 5    1  0.1590180E+000  0.1069940E+03  0.7546771E-02  0.1266240E+00
         21   -1    0    0  501  502  0.00000000000E+00  0.00000000000E+00  0.27398330899E+03  0.27398330899E+03  0.00000000000E+00 0.  1.
         21   -1    0    0  502  503 -0.00000000000E+00 -0.00000000000E+00 -0.47451283593E+02  0.47451283593E+02  0.00000000000E+00 0. -1.
         24    1    1    2    0    0 -0.91841401400E+02 -0.22505013670E+01  0.12342413783E+03  0.17361060314E+03  0.80419002446E+02 0.  1.
          1    1    1    2  501    0  0.56749725421E+02  0.24157372942E+01  0.96704839011E+02  0.11215254348E+03  0.00000000000E+00 0. -1.
         -2    1    1    2    0  503  0.35091675980E+02 -0.16523592711E+00  0.64030485489E+01  0.35671445957E+02  0.00000000000E+00 0.  1.
<mgrwt>
<rscale>  2 0.10699396E+03</rscale>
<asrwt>0</asrwt>
<pdfrwt beam="1">  1       21 0.42151277E-01 0.10699396E+03</pdfrwt>
<pdfrwt beam="2">  1       21 0.73001977E-02 0.10699396E+03</pdfrwt>
<totfact> 0.76490945E+05</totfact>
</mgrwt>
</event>
<event>
 5    1  0.1590180E+000  0.7864405E+02  0.7546771E-02  0.1332944E+00
         21   -1    0    0  501  502  0.00000000000E+00  0.00000000000E+00  0.11187396086E+02  0.11187396086E+02  0.00000000000E+00 0.  1.
         21   -1    0    0  502  503 -0.00000000000E+00 -0.00000000000E+00 -0.14788568387E+04  0.14788568387E+04  0.00000000000E+00 0.  1.
         24    1    1    2    0    0 -0.19741133786E+02  0.30046186085E+02 -0.18679664064E+03  0.20652526860E+03  0.80419002446E+02 0.  1.
          1    1    1    2  501    0  0.25011908499E+02  0.11351336872E+02 -0.20436360209E+03  0.20620118883E+03  0.00000000000E+00 0. -1.
         -2    1    1    2    0  503 -0.52707747128E+01 -0.41397522956E+02 -0.10765091999E+04  0.10773177774E+04  0.00000000000E+00 0.  1.
<mgrwt>
<rscale>  2 0.78644054E+02</rscale>
<asrwt>0</asrwt>
<pdfrwt beam="1">  1       21 0.17211387E-02 0.78644054E+02</pdfrwt>
<pdfrwt beam="2">  1       21 0.22751632E+00 0.78644054E+02</pdfrwt>
<totfact> 0.15493018E+05</totfact>
</mgrwt>
</event>
<event>
 5    1  0.1590180E+000  0.7160343E+02  0.7546771E-02  0.1354724E+00
         21   -1    0    0  503  502  0.00000000000E+00  0.00000000000E+00  0.10518144918E+03  0.10518144918E+03  0.00000000000E+00 0. -1.
         21   -1    0    0  501  503 -0.00000000000E+00 -0.00000000000E+00 -0.97699482474E+02  0.97699482474E+02  0.00000000000E+00 0.  1.
         24    1    1    2    0    0  0.24164789305E+02 -0.34660165358E+02  0.72411415507E+02  0.11617182599E+03  0.80419002446E+02 0. -1.
          1    1    1    2  501    0 -0.25213167921E+02  0.91350019442E+01 -0.50977532490E+02  0.57600875999E+02  0.00000000000E+00 0. -1.
         -2    1    1    2    0  502  0.10483786161E+01  0.25525163414E+02 -0.13951916313E+02  0.29108229658E+02  0.00000000000E+00 0.  1.
<mgrwt>
<rscale>  2 0.71603429E+02</rscale>
<asrwt>0</asrwt>
<pdfrwt beam="1">  1       21 0.16181762E-01 0.71603429E+02</pdfrwt>
<pdfrwt beam="2">  1       21 0.15030689E-01 0.71603429E+02</pdfrwt>
<totfact> 0.13121920E+06</totfact>
</mgrwt>
</event>
<event>
 5    1  0.1590180E+000  0.8000263E+02  0.7546771E-02  0.1329044E+00
         21   -1    0    0  501  502  0.00000000000E+00  0.00000000000E+00  0.58264710378E+01  0.58264710378E+01  0.00000000000E+00 0.  1.
         21   -1    0    0  502  503 -0.00000000000E+00 -0.00000000000E+00 -0.11268267199E+04  0.11268267199E+04  0.00000000000E+00 0. -1.
         24    1    1    2    0    0  0.83182860646E+01  0.22672869609E+02 -0.55797901263E+03  0.56426150621E+03  0.80419002446E+02 0.  1.
          1    1    1    2  501    0 -0.28058718681E+02 -0.40613394946E+02 -0.30159220861E+03  0.30560530074E+03  0.00000000000E+00 0. -1.
         -2    1    1    2    0  503  0.19740432616E+02  0.17940525337E+02 -0.26142902766E+03  0.26278638403E+03  0.00000000000E+00 0.  1.
<mgrwt>
<rscale>  2 0.80002626E+02</rscale>
<asrwt>0</asrwt>
<pdfrwt beam="1">  1       21 0.89638071E-03 0.80002626E+02</pdfrwt>
<pdfrwt beam="2">  1       21 0.17335785E+00 0.80002626E+02</pdfrwt>
<totfact> 0.92591097E+05</totfact>
</mgrwt>
</event>
<event>
 5    1  0.1590180E+000  0.7323772E+02  0.7546771E-02  0.1349417E+00
         21   -1    0    0  503  502  0.00000000000E+00  0.00000000000E+00  0.10245050454E+02  0.10245050454E+02  0.00000000000E+00 0.  1.
         21   -1    0    0  501  503 -0.00000000000E+00 -0.00000000000E+00 -0.10814685106E+04  0.10814685106E+04  0.00000000000E+00 0.  1.
         24    1    1    2    0    0  0.37213726190E+02  0.29076721718E+02 -0.73422432612E+03  0.74012356683E+03  0.80419002446E+02 0.  1.
          1    1    1    2  501    0 -0.29404126183E+02 -0.76117707420E+01 -0.32377509628E+03  0.32519663999E+03  0.00000000000E+00 0. -1.
         -2    1    1    2    0  502 -0.78096000076E+01 -0.21464950976E+02 -0.13224037728E+02  0.26393354212E+02  0.00000000000E+00 0.  1.
<mgrwt>
<rscale>  2 0.73237717E+02</rscale>
<asrwt>0</asrwt>
<pdfrwt beam="1">  1       21 0.15761613E-02 0.73237717E+02</pdfrwt>
<pdfrwt beam="2">  1       21 0.16637980E+00 0.73237717E+02</pdfrwt>
<totfact> 0.42729415E+05</totfact>
</mgrwt>
</event>
<event>
 5    1  0.1590180E+000  0.7996914E+02  0.7546771E-02  0.1329139E+00
         21   -1    0    0  503  502  0.00000000000E+00  0.00000000000E+00  0.79993173272E+01  0.79993173272E+01  0.00000000000E+00 0.  1.
         21   -1    0    0  501  503 -0.00000000000E+00 -0.00000000000E+00 -0.20830780803E+04  0.20830780803E+04  0.00000000000E+00 0. -1.
         24    1    1    2    0    0  0.26355206952E+02 -0.16317459321E+02 -0.45606822072E+03  0.46414038212E+03  0.80419002446E+02 0. -1.
          1    1    1    2  501    0  0.70044585049E+01  0.34879521858E+02 -0.15257575110E+04  0.15261722137E+04  0.00000000000E+00 0. -1.
         -2    1    1    2    0  502 -0.33359665457E+02 -0.18562062536E+02 -0.93253031207E+02  0.10076480176E+03  0.00000000000E+00 0.  1.
<mgrwt>
<rscale>  2 0.79969143E+02</rscale>
<asrwt>0</asrwt>
<pdfrwt beam="1">  1       21 0.12306633E-02 0.79969143E+02</pdfrwt>
<pdfrwt beam="2">  1       21 0.32047378E+00 0.79969143E+02</pdfrwt>
<totfact> 0.80861280E+04</totfact>
</mgrwt>
</event>
<event>
 5    1  0.1590180E+000  0.8763736E+02  0.7546771E-02  0.1308676E+00
         21   -1    0    0  501  502  0.00000000000E+00  0.00000000000E+00  0.20428624280E+02  0.20428624280E+02  0.00000000000E+00 0.  1.
         21   -1    0    0  502  503 -0.00000000000E+00 -0.00000000000E+00 -0.93187284225E+03  0.93187284225E+03  0.00000000000E+00 0.  1.
         24    1    1    2    0    0  0.48585431075E+02  0.70278401640E+01 -0.30990149254E+03  0.32390752644E+03  0.80419002446E+02 0.  0.
          1    1    1    2  501    0 -0.54961703052E+02  0.15934441442E+02 -0.48999066707E+02  0.75336603086E+02  0.00000000000E+00 0. -1.
         -2    1    1    2    0  503  0.63762719767E+01 -0.22962281606E+02 -0.55254365872E+03  0.55305733701E+03  0.00000000000E+00 0.  1.
<mgrwt>
<rscale>  2 0.87637362E+02</rscale>
<asrwt>0</asrwt>
<pdfrwt beam="1">  1       21 0.31428660E-02 0.87637362E+02</pdfrwt>
<pdfrwt beam="2">  1       21 0.14336502E+00 0.87637362E+02</pdfrwt>
<totfact> 0.20579101E+05</totfact>
</mgrwt>
</event>
<event>
 5    1  0.1590180E+000  0.8694086E+02  0.7546771E-02  0.1310434E+00
         21   -1    0    0  503  502  0.00000000000E+00  0.00000000000E+00  0.26845177809E+02  0.26845177809E+02  0.00000000000E+00 0.  1.
         21   -1    0    0  501  503 -0.00000000000E+00 -0.00000000000E+00 -0.45291025246E+03  0.45291025246E+03  0.00000000000E+00 0. -1.
         24    1    1    2    0    0  0.22764253697E+02  0.15375334274E+02 -0.32141559528E+03  0.33246024272E+03  0.80419002446E+02 0.  0.
          1    1    1    2  501    0 -0.14298957071E+02  0.35005502233E+02 -0.84137446264E+02  0.92243998307E+02  0.00000000000E+00 0. -1.
         -2    1    1    2    0  502 -0.84652966264E+01 -0.50380836507E+02 -0.20512033109E+02  0.55051189237E+02  0.00000000000E+00 0.  1.
<mgrwt>
<rscale>  2 0.86940859E+02</rscale>
<asrwt>0</asrwt>
<pdfrwt beam="1">  1       21 0.41300274E-02 0.86940859E+02</pdfrwt>
<pdfrwt beam="2">  1       21 0.69678499E-01 0.86940859E+02</pdfrwt>
<totfact> 0.69990235E+05</totfact>
</mgrwt>
</event>
<event>
 5    1  0.1590180E+000  0.1276878E+03  0.7546771E-02  0.1230928E+00
         21   -1    0    0  503  502  0.00000000000E+00  0.00000000000E+00  0.25820064963E+03  0.25820064963E+03  0.00000000000E+00 0.  1.
         21   -1    0    0  501  503 -0.00000000000E+00 -0.00000000000E+00 -0.12985965053E+03  0.12985965053E+03  0.00000000000E+00 0. -1.
         24    1    1    2    0    0 -0.95507223709E+02 -0.17421363990E+02 -0.34945707655E+02  0.13081877595E+03  0.80419002446E+02 0. -1.
          1    1    1    2  501    0  0.51175679692E+02  0.52097600698E+02 -0.11218230184E+02  0.73884767571E+02  0.00000000000E+00 0. -1.
         -2    1    1    2    0  502  0.44331544017E+02 -0.34676236708E+02  0.17450493694E+03  0.18335675663E+03  0.00000000000E+00 0.  1.
<mgrwt>
<rscale>  2 0.12768779E+03</rscale>
<asrwt>0</asrwt>
<pdfrwt beam="1">  1       21 0.39723177E-01 0.12768779E+03</pdfrwt>
<pdfrwt beam="2">  1       21 0.19978408E-01 0.12768779E+03</pdfrwt>
<totfact> 0.14432509E+05</totfact>
</mgrwt>
</event>
<event>
 5    1  0.1590180E+000  0.1155602E+03  0.7546771E-02  0.1250606E+00
         21   -1    0    0  503  502  0.00000000000E+00  0.00000000000E+00  0.18399435873E+04  0.18399435873E+04  0.00000000000E+00 0.  1.
         21   -1    0    0  501  503 -0.00000000000E+00 -0.00000000000E+00 -0.62310083307E+02  0.62310083307E+02  0.00000000000E+00 0. -1.
         24    1    1    2    0    0  0.97836143272E+02 -0.23680466135E+02  0.13009728093E+03  0.18309886364E+03  0.80419002446E+02 0. -1.
          1    1    1    2  501    0 -0.67560331004E+02  0.24839313844E+02  0.64484960701E+00  0.71984759975E+02  0.00000000000E+00 0. -1.
         -2    1    1    2    0  502 -0.30275812268E+02 -0.11588477086E+01  0.16468913735E+04  0.16471700470E+04  0.00000000000E+00 0.  1.
<mgrwt>
<rscale>  2 0.11556021E+03</rscale>
<asrwt>0</asrwt>
<pdfrwt beam="1">  1       21 0.28306820E+00 0.11556021E+03</pdfrwt>
<pdfrwt beam="2">  1       21 0.95861681E-02 0.11556021E+03</pdfrwt>
<totfact> 0.41647551E+03</totfact>
</mgrwt>
</event>
<event>
 5    1  0.1590180E+000  0.9004568E+02  0.7546771E-02  0.1302741E+00
         21   -1    0    0  503  502  0.00000000000E+00  0.00000000000E+00  0.39954372624E+03  0.39954372624E+03  0.00000000000E+00 0. -1.
         21   -1    0    0  501  503 -0.00000000000E+00 -0.00000000000E+00 -0.28759343489E+02  0.28759343489E+02  0.00000000000E+00 0.  1.
         24    1    1    2    0    0 -0.32524883928E+02 -0.53493859351E+02  0.87237060140E+02  0.13415282956E+03  0.80419002446E+02 0.  1.
          1    1    1    2  501    0  0.35289785072E+01  0.48650938621E+02  0.18359233836E+03  0.18996187571E+03  0.00000000000E+00 0. -1.
         -2    1    1    2    0  502  0.28995905420E+02  0.48429207300E+01  0.99954984249E+02  0.10418836446E+03  0.00000000000E+00 0.  1.
<mgrwt>
<rscale>  2 0.90045683E+02</rscale>
<asrwt>0</asrwt>
<pdfrwt beam="1">  1       21 0.61468262E-01 0.90045683E+02</pdfrwt>
<pdfrwt beam="2">  1       21 0.44245147E-02 0.90045683E+02</pdfrwt>
<totfact> 0.81624660E+05</totfact>
</mgrwt>
</event>
<event>
 5    1  0.1590180E+000  0.1097924E+03  0.7546771E-02  0.1260955E+00
         21   -1    0    0  503  502  0.00000000000E+00  0.00000000000E+00  0.20514439741E+03  0.20514439741E+03  0.00000000000E+00 0.  1.
         21   -1    0    0  501  503 -0.00000000000E+00 -0.00000000000E+00 -0.17508802973E+03  0.17508802973E+03  0.00000000000E+00 0. -1.
         24    1    1    2    0    0  0.51233320221E+02 -0.54791864056E+02  0.39778478261E+01  0.11004563006E+03  0.80419002446E+02 0.  0.
          1    1    1    2  501    0  0.14071060595E+02  0.40344151189E+02 -0.11030206940E+03  0.11828859537E+03  0.00000000000E+00 0. -1.
         -2    1    1    2    0  502 -0.65304380816E+02  0.14447712868E+02  0.13638058925E+03  0.15189820171E+03  0.00000000000E+00 0.  1.
<mgrwt>
<rscale>  2 0.10979238E+03</rscale>
<asrwt>0</asrwt>
<pdfrwt beam="1">  1       21 0.31560677E-01 0.10979238E+03</pdfrwt>
<pdfrwt beam="2">  1       21 0.26936620E-01 0.10979238E+03</pdfrwt>
<totfact> 0.13042634E+05</totfact>
</mgrwt>
</event>
<event>
 5    1  0.1590180E+000  0.6291046E+02  0.7546771E-02  0.1386008E+00
         21   -1    0    0  501  502  0.00000000000E+00  0.00000000000E+00  0.69868765498E+03  0.69868765498E+03  0.00000000000E+00 0.  1.
         21   -1    0    0  502  503 -0.00000000000E+00 -0.00000000000E+00 -0.59155325685E+01  0.59155325685E+01  0.00000000000E+00 0. -1.
         24    1    1    2    0    0 -0.63993613756E+01  0.11409584192E+02  0.49625856146E+03  0.50290248182E+03  0.80419002446E+02 0.  0.
          1    1    1    2  501    0 -0.14157062502E+02 -0.17869014232E+02  0.12297819131E+03  0.12507341695E+03  0.00000000000E+00 0. -1.
         -2    1    1    2    0  503  0.20556423877E+02  0.64594300399E+01  0.73535369637E+02  0.76627288786E+02  0.00000000000E+00 0.  1.
<mgrwt>
<rscale>  2 0.62910457E+02</rscale>
<asrwt>0</asrwt>
<pdfrwt beam="1">  1       21 0.10749034E+00 0.62910457E+02</pdfrwt>
<pdfrwt beam="2">  1       21 0.91008248E-03 0.62910457E+02</pdfrwt>
<totfact> 0.29292163E+06</totfact>
</mgrwt>
</event>
<event>
 5    1  0.1590180E+000  0.6521909E+02  0.7546771E-02  0.1377149E+00
         21   -1    0    0  503  502  0.00000000000E+00  0.00000000000E+00  0.19498837978E+03  0.19498837978E+03  0.00000000000E+00 0.  1.
         21   -1    0    0  501  503 -0.00000000000E+00 -0.00000000000E+00 -0.86195638432E+03  0.86195638432E+03  0.00000000000E+00 0. -1.
         24    1    1    2    0    0 -0.10676133903E+02 -0.20534809700E+02 -0.15803941654E+03  0.17882765832E+03  0.80419002446E+02 0.  0.
          1    1    1    2  501    0 -0.10114131006E+02  0.23660022404E+02 -0.69268458185E+03  0.69316233469E+03  0.00000000000E+00 0. -1.
         -2    1    1    2    0  502  0.20790264909E+02 -0.31252127038E+01  0.18375599385E+03  0.18495477108E+03  0.00000000000E+00 0.  1.
<mgrwt>
<rscale>  2 0.65219089E+02</rscale>
<asrwt>0</asrwt>
<pdfrwt beam="1">  1       21 0.29998212E-01 0.65219089E+02</pdfrwt>
<pdfrwt beam="2">  1       21 0.13260867E+00 0.65219089E+02</pdfrwt>
<totfact> 0.51387169E+03</totfact>
</mgrwt>
</event>
<event>
 5    1  0.1590180E+000  0.7581705E+02  0.7546771E-02  0.1341359E+00
         21   -1    0    0  503  502  0.00000000000E+00  0.00000000000E+00  0.43328179994E+02  0.43328179994E+02  0.00000000000E+00 0.  1.
         21   -1    0    0  501  503 -0.00000000000E+00 -0.00000000000E+00 -0.17141948341E+03  0.17141948341E+03  0.00000000000E+00 0.  1.
         24    1    1    2    0    0 -0.35788988330E+01  0.52722651221E+02 -0.10458135605E+03  0.14211601759E+03  0.80419002446E+02 0.  1.
          1    1    1    2  501    0 -0.64808472904E+01 -0.27469712602E+02 -0.33379545809E+02  0.43712476142E+02  0.00000000000E+00 0. -1.
         -2    1    1    2    0  502  0.10059746123E+02 -0.25252938619E+02  0.98695984419E+01  0.28919169669E+02  0.00000000000E+00 0.  1.
<mgrwt>
<rscale>  2 0.75817050E+02</rscale>
<asrwt>0</asrwt>
<pdfrwt beam="1">  1       21 0.66658739E-02 0.75817050E+02</pdfrwt>
<pdfrwt beam="2">  1       21 0.26372228E-01 0.75817050E+02</pdfrwt>
<totfact> 0.21911298E+06</totfact>
</mgrwt>
</event>
<event>
 5    1  0.1590180E+000  0.9197664E+02  0.7546771E-02  0.1298134E+00
         21   -1    0    0  501  502  0.00000000000E+00  0.00000000000E+00  0.13621214586E+03  0.13621214586E+03  0.00000000000E+00 0. -1.
         21   -1    0    0  502  503 -0.00000000000E+00 -0.00000000000E+00 -0.93393681970E+02  0.93393681970E+02  0.00000000000E+00 0.  1.
         24    1    1    2    0    0  0.13463006857E+02  0.24323329936E+02  0.24254445214E+02  0.88478082031E+02  0.80419002446E+02 0. -1.
          1    1    1    2  501    0 -0.52519996643E+02  0.61726182177E+00  0.59449908834E+02  0.79328574422E+02  0.00000000000E+00 0. -1.
         -2    1    1    2    0  503  0.39056989786E+02 -0.24940591758E+02 -0.40885890160E+02  0.61799171374E+02  0.00000000000E+00 0.  1.
<mgrwt>
<rscale>  2 0.91976643E+02</rscale>
<asrwt>0</asrwt>
<pdfrwt beam="1">  1       21 0.20955715E-01 0.91976643E+02</pdfrwt>
<pdfrwt beam="2">  1       21 0.14368259E-01 0.91976643E+02</pdfrwt>
<totfact> 0.89588303E+05</totfact>
</mgrwt>
</event>
<event>
 5    1  0.1590180E+000  0.6882268E+02  0.7546771E-02  0.1364143E+00
         21   -1    0    0  501  502  0.00000000000E+00  0.00000000000E+00  0.30815028795E+03  0.30815028795E+03  0.00000000000E+00 0.  1.
         21   -1    0    0  502  503 -0.00000000000E+00 -0.00000000000E+00 -0.41630167697E+02  0.41630167697E+02  0.00000000000E+00 0. -1.
         24    1    1    2    0    0 -0.43413563366E+02  0.42194565404E+01  0.35166420753E+02  0.98012419624E+02  0.80419002446E+02 0.  0.
          1    1    1    2  501    0  0.22176563483E+02 -0.97322937611E+01  0.22834052266E+03  0.22962123551E+03  0.00000000000E+00 0. -1.
         -2    1    1    2    0  503  0.21236999884E+02  0.55128372207E+01  0.30131768426E+01  0.22146800513E+02  0.00000000000E+00 0.  1.
<mgrwt>
<rscale>  2 0.68822683E+02</rscale>
<asrwt>0</asrwt>
<pdfrwt beam="1">  1       21 0.47407735E-01 0.68822683E+02</pdfrwt>
<pdfrwt beam="2">  1       21 0.64046414E-02 0.68822683E+02</pdfrwt>
<totfact> 0.75006495E+05</totfact>
</mgrwt>
</event>
<event>
 5    1  0.1590180E+000  0.9527295E+02  0.7546771E-02  0.1290563E+00
         21   -1    0    0  501  502  0.00000000000E+00  0.00000000000E+00  0.22312353089E+03  0.22312353089E+03  0.00000000000E+00 0. -1.
         21   -1    0    0  502  503 -0.00000000000E+00 -0.00000000000E+00 -0.63331905711E+02  0.63331905711E+02  0.00000000000E+00 0.  1.
         24    1    1    2    0    0 -0.43619648857E+01 -0.11667644422E+02  0.46571860705E+02  0.93762011646E+02  0.80419002446E+02 0.  1.
          1    1    1    2  501    0  0.15240606502E+02 -0.47046997652E+02  0.12264494984E+03  0.13224023516E+03  0.00000000000E+00 0. -1.
         -2    1    1    2    0  503 -0.10878641616E+02  0.58714642073E+02 -0.94251853634E+01  0.60453189795E+02  0.00000000000E+00 0.  1.
<mgrwt>
<rscale>  2 0.95272950E+02</rscale>
<asrwt>0</asrwt>
<pdfrwt beam="1">  1       21 0.34326697E-01 0.95272950E+02</pdfrwt>
<pdfrwt beam="2">  1       21 0.97433702E-02 0.95272950E+02</pdfrwt>
<totfact> 0.69769239E+05</totfact>
</mgrwt>
</event>
<event>
 5    1  0.1590180E+000  0.1212459E+03  0.7546771E-02  0.1241056E+00
         21   -1    0    0  503  502  0.00000000000E+00  0.00000000000E+00  0.11600852752E+03  0.11600852752E+03  0.00000000000E+00 0.  1.
         21   -1    0    0  501  503 -0.00000000000E+00 -0.00000000000E+00 -0.15665104881E+03  0.15665104881E+03  0.00000000000E+00 0. -1.
         24    1    1    2    0    0 -0.63736641242E+02  0.55363737663E+02 -0.57535462492E+02  0.13001941502E+03  0.80419002446E+02 0. -1.
          1    1    1    2  501    0  0.19706244972E+02  0.26451209581E+02 -0.24338023791E+02  0.40991974596E+02  0.00000000000E+00 0. -1.
         -2    1    1    2    0  502  0.44030396270E+02 -0.81814947244E+02  0.41230964992E+02  0.10164818672E+03  0.00000000000E+00 0.  1.
<mgrwt>
<rscale>  2 0.12124589E+03</rscale>
<asrwt>0</asrwt>
<pdfrwt beam="1">  1       21 0.17847466E-01 0.12124589E+03</pdfrwt>
<pdfrwt beam="2">  1       21 0.24100161E-01 0.12124589E+03</pdfrwt>
<totfact> 0.46756535E+05</totfact>
</mgrwt>
</event>
<event>
 5    1  0.1590180E+000  0.8615513E+02  0.7546771E-02  0.1312439E+00
         21   -1    0    0  501  502  0.00000000000E+00  0.00000000000E+00  0.27854707264E+03  0.27854707264E+03  0.00000000000E+00 0. -1.
         21   -1    0    0  502  503 -0.00000000000E+00 -0.00000000000E+00 -0.10799880520E+03  0.10799880520E+03  0.00000000000E+00 0.  1.
         24    1    1    2    0    0  0.29741321435E+02 -0.47612951372E+02  0.40387516801E+02  0.10606557786E+03  0.80419002446E+02 0.  1.
          1    1    1    2  501    0  0.55113959266E+01  0.37015950937E+02  0.19896165345E+03  0.20245072401E+03  0.00000000000E+00 0. -1.
         -2    1    1    2    0  503 -0.35252717362E+02  0.10597000435E+02 -0.68800902809E+02  0.78029575975E+02  0.00000000000E+00 0.  1.
<mgrwt>
<rscale>  2 0.86155134E+02</rscale>
<asrwt>0</asrwt>
<pdfrwt beam="1">  1       21 0.42853396E-01 0.86155134E+02</pdfrwt>
<pdfrwt beam="2">  1       21 0.16615201E-01 0.86155134E+02</pdfrwt>
<totfact> 0.17609749E+05</totfact>
</mgrwt>
</event>
<event>
 5    1  0.1590180E+000  0.8263884E+02  0.7546771E-02  0.1321725E+00
         21   -1    0    0  503  502  0.00000000000E+00  0.00000000000E+00  0.45764280693E+02  0.45764280693E+02  0.00000000000E+00 0.  1.
         21   -1    0    0  501  503 -0.00000000000E+00 -0.00000000000E+00 -0.16787883131E+03  0.16787883131E+03  0.00000000000E+00 0.  1.
         24    1    1    2    0    0  0.39809953368E+02  0.33653058934E+01 -0.74438258098E+02  0.11663802079E+03  0.80419002446E+02 0.  1.
          1    1    1    2  501    0 -0.25297611162E+02  0.29913248103E+02 -0.46332304025E+02  0.60674986105E+02  0.00000000000E+00 0. -1.
         -2    1    1    2    0  502 -0.14512342206E+02 -0.33278553997E+02 -0.13439884987E+01  0.36330105112E+02  0.00000000000E+00 0.  1.
<mgrwt>
<rscale>  2 0.82638843E+02</rscale>
<asrwt>0</asrwt>
<pdfrwt beam="1">  1       21 0.70406584E-02 0.82638843E+02</pdfrwt>
<pdfrwt beam="2">  1       21 0.25827513E-01 0.82638843E+02</pdfrwt>
<totfact> 0.20854631E+06</totfact>
</mgrwt>
</event>
<event>
 5    1  0.1590180E+000  0.8199633E+02  0.7546771E-02  0.1323480E+00
         21   -1    0    0  501  502  0.00000000000E+00  0.00000000000E+00  0.28525644558E+03  0.28525644558E+03  0.00000000000E+00 0. -1.
         21   -1    0    0  502  503 -0.00000000000E+00 -0.00000000000E+00 -0.14716227206E+03  0.14716227206E+03  0.00000000000E+00 0.  1.
         24    1    1    2    0    0  0.33336061526E+02  0.44234839732E+02 -0.26370011478E+02  0.10114646560E+03  0.80419002446E+02 0. -1.
          1    1    1    2  501    0 -0.12921412722E+02 -0.44073786707E+02  0.24444738246E+03  0.24872471604E+03  0.00000000000E+00 0. -1.
         -2    1    1    2    0  503 -0.20414648804E+02 -0.16105302503E+00 -0.79983197460E+02  0.82547536001E+02  0.00000000000E+00 0.  1.
<mgrwt>
<rscale>  2 0.81996331E+02</rscale>
<asrwt>0</asrwt>
<pdfrwt beam="1">  1       21 0.43885607E-01 0.81996331E+02</pdfrwt>
<pdfrwt beam="2">  1       21 0.22640349E-01 0.81996331E+02</pdfrwt>
<totfact> 0.95744529E+04</totfact>
</mgrwt>
</event>
<event>
 5    1  0.1590180E+000  0.1357592E+03  0.7546771E-02  0.1219152E+00
         21   -1    0    0  503  502  0.00000000000E+00  0.00000000000E+00  0.13653397429E+03  0.13653397429E+03  0.00000000000E+00 0. -1.
         21   -1    0    0  501  503 -0.00000000000E+00 -0.00000000000E+00 -0.28838064807E+03  0.28838064807E+03  0.00000000000E+00 0. -1.
         24    1    1    2    0    0  0.22131383334E+02  0.10619256025E+03 -0.19663424329E+03  0.23853490220E+03  0.80419002446E+02 0. -1.
          1    1    1    2  501    0 -0.45401575261E+02 -0.10354970588E+03 -0.22368535854E+02  0.11525708664E+03  0.00000000000E+00 0. -1.
         -2    1    1    2    0  502  0.23270191927E+02 -0.26428543639E+01  0.67156105366E+02  0.71122633524E+02  0.00000000000E+00 0.  1.
<mgrwt>
<rscale>  2 0.13575916E+03</rscale>
<asrwt>0</asrwt>
<pdfrwt beam="1">  1       21 0.21005227E-01 0.13575916E+03</pdfrwt>
<pdfrwt beam="2">  1       21 0.44366253E-01 0.13575916E+03</pdfrwt>
<totfact> 0.10496558E+05</totfact>
</mgrwt>
</event>
<event>
 5    1  0.1590180E+000  0.7517170E+02  0.7546771E-02  0.1343340E+00
         21   -1    0    0  501  502  0.00000000000E+00  0.00000000000E+00  0.69320784719E+01  0.69320784719E+01  0.00000000000E+00 0.  1.
         21   -1    0    0  502  503 -0.00000000000E+00 -0.00000000000E+00 -0.10076367034E+04  0.10076367034E+04  0.00000000000E+00 0.  1.
         24    1    1    2    0    0  0.20679169688E+01  0.14115790921E+01 -0.39097981032E+03  0.39917251517E+03  0.80419002446E+02 0.  1.
          1    1    1    2  501    0  0.14651667624E+02 -0.31905389765E+02 -0.13816836675E+03  0.14255919062E+03  0.00000000000E+00 0. -1.
         -2    1    1    2    0  503 -0.16719584593E+02  0.30493810673E+02 -0.47155644788E+03  0.47283707610E+03  0.00000000000E+00 0.  1.
<mgrwt>
<rscale>  2 0.75171703E+02</rscale>
<asrwt>0</asrwt>
<pdfrwt beam="1">  1       21 0.10664738E-02 0.75171703E+02</pdfrwt>
<pdfrwt beam="2">  1       21 0.15502100E+00 0.75171703E+02</pdfrwt>
<totfact> 0.94609942E+05</totfact>
</mgrwt>
</event>
<event>
 5    1  0.1590180E+000  0.6912830E+02  0.7546771E-02  0.1363083E+00
         21   -1    0    0  503  502  0.00000000000E+00  0.00000000000E+00  0.52852485233E+02  0.52852485233E+02  0.00000000000E+00 0.  1.
         21   -1    0    0  501  503 -0.00000000000E+00 -0.00000000000E+00 -0.40148790216E+03  0.40148790216E+03  0.00000000000E+00 0. -1.
         24    1    1    2    0    0 -0.84091000885E+01  0.42857736911E+02 -0.51206204581E+02  0.10486558024E+03  0.80419002446E+02 0.  1.
          1    1    1    2  501    0  0.12256092717E+02 -0.19225481164E+02 -0.31744773486E+03  0.31826544786E+03  0.00000000000E+00 0. -1.
         -2    1    1    2    0  502 -0.38469926282E+01 -0.23632255747E+02  0.20018522511E+02  0.31209359293E+02  0.00000000000E+00 0.  1.
<mgrwt>
<rscale>  2 0.69128297E+02</rscale>
<asrwt>0</asrwt>
<pdfrwt beam="1">  1       21 0.81311517E-02 0.69128297E+02</pdfrwt>
<pdfrwt beam="2">  1       21 0.61767368E-01 0.69128297E+02</pdfrwt>
<totfact> 0.29166575E+05</totfact>
</mgrwt>
</event>
<event>
 5    1  0.1590180E+000  0.7694675E+02  0.7546771E-02  0.1337946E+00
         21   -1    0    0  503  502  0.00000000000E+00  0.00000000000E+00  0.30937054285E+04  0.30937054285E+04  0.00000000000E+00 0. -1.
         21   -1    0    0  501  503 -0.00000000000E+00 -0.00000000000E+00 -0.58025206574E+01  0.58025206574E+01  0.00000000000E+00 0. -1.
         24    1    1    2    0    0 -0.25239117700E+02 -0.25714244567E+02  0.12369454026E+04  0.12400803928E+04  0.80419002446E+02 0. -1.
          1    1    1    2  501    0  0.41034939907E+02  0.75914478075E+01  0.10069432370E+03  0.10899928073E+03  0.00000000000E+00 0. -1.
         -2    1    1    2    0  502 -0.15795822206E+02  0.18122796760E+02  0.17502631815E+04  0.17504282757E+04  0.00000000000E+00 0.  1.
<mgrwt>
<rscale>  2 0.76946750E+02</rscale>
<asrwt>0</asrwt>
<pdfrwt beam="1">  1       21 0.47595336E+00 0.76946750E+02</pdfrwt>
<pdfrwt beam="2">  1       21 0.89269796E-03 0.76946750E+02</pdfrwt>
<totfact> 0.15813621E+04</totfact>
</mgrwt>
</event>
<event>
 5    1  0.1590180E+000  0.8445891E+02  0.7546771E-02  0.1316854E+00
         21   -1    0    0  503  502  0.00000000000E+00  0.00000000000E+00  0.89968258707E+03  0.89968258707E+03  0.00000000000E+00 0. -1.
         21   -1    0    0  501  503 -0.00000000000E+00 -0.00000000000E+00 -0.92893435535E+01  0.92893435535E+01  0.00000000000E+00 0. -1.
         24    1    1    2    0    0 -0.30493683321E+02 -0.91192698499E+01  0.55541285436E+03  0.56210646727E+03  0.80419002446E+02 0. -1.
          1    1    1    2  501    0  0.29494194188E+02  0.41014639482E+02  0.13098763865E+03  0.14039184315E+03  0.00000000000E+00 0. -1.
         -2    1    1    2    0  502  0.99948913368E+00 -0.31895369632E+02  0.20399275051E+03  0.20647362021E+03  0.00000000000E+00 0.  1.
<mgrwt>
<rscale>  2 0.84458906E+02</rscale>
<asrwt>0</asrwt>
<pdfrwt beam="1">  1       21 0.13841264E+00 0.84458906E+02</pdfrwt>
<pdfrwt beam="2">  1       21 0.14291305E-02 0.84458906E+02</pdfrwt>
<totfact> 0.79485896E+05</totfact>
</mgrwt>
</event>
<event>
 5    1  0.1590180E+000  0.9161394E+02  0.7546771E-02  0.1298990E+00
         21   -1    0    0  503  502  0.00000000000E+00  0.00000000000E+00  0.41989221033E+02  0.41989221033E+02  0.00000000000E+00 0.  1.
         21   -1    0    0  501  503 -0.00000000000E+00 -0.00000000000E+00 -0.38435493921E+03  0.38435493921E+03  0.00000000000E+00 0.  1.
         24    1    1    2    0    0  0.73379758239E+02  0.83407595335E+01 -0.28272712776E+03  0.30307755099E+03  0.80419002446E+02 0.  1.
          1    1    1    2  501    0 -0.31384957287E+02 -0.62140998249E+01 -0.72540824238E+02  0.79283048388E+02  0.00000000000E+00 0. -1.
         -2    1    1    2    0  502 -0.41994800952E+02 -0.21266597085E+01  0.12902233822E+02  0.43983560863E+02  0.00000000000E+00 0.  1.
<mgrwt>
<rscale>  2 0.91613941E+02</rscale>
<asrwt>0</asrwt>
<pdfrwt beam="1">  1       21 0.64598801E-02 0.91613941E+02</pdfrwt>
<pdfrwt beam="2">  1       21 0.59131530E-01 0.91613941E+02</pdfrwt>
<totfact> 0.47064713E+05</totfact>
</mgrwt>
</event>
<event>
 5    1  0.1590180E+000  0.6795401E+02  0.7546771E-02  0.1367192E+00
         21   -1    0    0  501  502  0.00000000000E+00  0.00000000000E+00  0.18961646789E+02  0.18961646789E+02  0.00000000000E+00 0.  1.
         21   -1    0    0  502  503 -0.00000000000E+00 -0.00000000000E+00 -0.36638428503E+03  0.36638428503E+03  0.00000000000E+00 0. -1.
         24    1    1    2    0    0  0.12720005529E+02  0.20119363341E+02 -0.13849387355E+03  0.16190848121E+03  0.80419002446E+02 0.  1.
          1    1    1    2  501    0 -0.21412635879E+02  0.78076428674E+01 -0.14930367518E+02  0.27246580275E+02  0.00000000000E+00 0. -1.
         -2    1    1    2    0  503  0.86926303506E+01 -0.27927006208E+02 -0.19399839717E+03  0.19619087033E+03  0.00000000000E+00 0.  1.
<mgrwt>
<rscale>  2 0.67954012E+02</rscale>
<asrwt>0</asrwt>
<pdfrwt beam="1">  1       21 0.29171765E-02 0.67954012E+02</pdfrwt>
<pdfrwt beam="2">  1       21 0.56366812E-01 0.67954012E+02</pdfrwt>
<totfact> 0.19157161E+06</totfact>
</mgrwt>
</event>
<event>
 5    1  0.1590180E+000  0.7691876E+02  0.7546771E-02  0.1338030E+00
         21   -1    0    0  501  502  0.00000000000E+00  0.00000000000E+00  0.17471763273E+03  0.17471763273E+03  0.00000000000E+00 0. -1.
         21   -1    0    0  502  503 -0.00000000000E+00 -0.00000000000E+00 -0.10190820218E+03  0.10190820218E+03  0.00000000000E+00 0. -1.
         24    1    1    2    0    0  0.18149496057E+02  0.13427290054E+02 -0.37062213910E+02  0.91381179570E+02  0.80419002446E+02 0. -1.
          1    1    1    2  501    0  0.25068281940E+02 -0.98852604277E+01  0.13327334855E+03  0.13597030031E+03  0.00000000000E+00 0. -1.
         -2    1    1    2    0  503 -0.43217777997E+02 -0.35420296263E+01 -0.23401704086E+02  0.49274355024E+02  0.00000000000E+00 0.  1.
<mgrwt>
<rscale>  2 0.76918764E+02</rscale>
<asrwt>0</asrwt>
<pdfrwt beam="1">  1       21 0.26879636E-01 0.76918764E+02</pdfrwt>
<pdfrwt beam="2">  1       21 0.15678185E-01 0.76918764E+02</pdfrwt>
<totfact> 0.48210095E+05</totfact>
</mgrwt>
</event>
<event>
 5    1  0.1590180E+000  0.8370660E+02  0.7546771E-02  0.1318850E+00
         21   -1    0    0  503  502  0.00000000000E+00  0.00000000000E+00  0.10977566003E+04  0.10977566003E+04  0.00000000000E+00 0.  1.
         21   -1    0    0  501  503 -0.00000000000E+00 -0.00000000000E+00 -0.30447917378E+02  0.30447917378E+02  0.00000000000E+00 0.  1.
         24    1    1    2    0    0 -0.41198043550E+01 -0.62391515045E+02  0.19386331607E+03  0.21899743197E+03  0.80419002446E+02 0.  1.
          1    1    1    2  501    0 -0.79239956612E+01  0.28367327101E+02 -0.51248535642E+01  0.29895803688E+02  0.00000000000E+00 0. -1.
         -2    1    1    2    0  502  0.12043800016E+02  0.34024187944E+02  0.87857022042E+03  0.87931128202E+03  0.00000000000E+00 0.  1.
<mgrwt>
<rscale>  2 0.83706601E+02</rscale>
<asrwt>0</asrwt>
<pdfrwt beam="1">  1       21 0.16888560E+00 0.83706601E+02</pdfrwt>
<pdfrwt beam="2">  1       21 0.46842958E-02 0.83706601E+02</pdfrwt>
<totfact> 0.70306709E+04</totfact>
</mgrwt>
</event>
<event>
 5    1  0.1590180E+000  0.9136146E+02  0.7546771E-02  0.1299588E+00
         21   -1    0    0  503  502  0.00000000000E+00  0.00000000000E+00  0.32352104819E+02  0.32352104819E+02  0.00000000000E+00 0.  1.
         21   -1    0    0  501  503 -0.00000000000E+00 -0.00000000000E+00 -0.34832991733E+03  0.34832991733E+03  0.00000000000E+00 0.  1.
         24    1    1    2    0    0 -0.44140985120E+02 -0.56962185688E+02 -0.19531272252E+03  0.22317569916E+03  0.80419002446E+02 0.  1.
          1    1    1    2  501    0  0.28150641774E+02  0.20192779169E+02 -0.11097398913E+03  0.11625589545E+03  0.00000000000E+00 0. -1.
         -2    1    1    2    0  502  0.15990343347E+02  0.36769406518E+02 -0.96911008615E+01  0.41250427537E+02  0.00000000000E+00 0.  1.
<mgrwt>
<rscale>  2 0.91361457E+02</rscale>
<asrwt>0</asrwt>
<pdfrwt beam="1">  1       21 0.49772472E-02 0.91361457E+02</pdfrwt>
<pdfrwt beam="2">  1       21 0.53589215E-01 0.91361457E+02</pdfrwt>
<totfact> 0.89406294E+05</totfact>
</mgrwt>
</event>
<event>
 5    1  0.1590180E+000  0.6195184E+02  0.7546771E-02  0.1389819E+00
         21   -1    0    0  501  502  0.00000000000E+00  0.00000000000E+00  0.16287709226E+03  0.16287709226E+03  0.00000000000E+00 0.  1.
         21   -1    0    0  502  503 -0.00000000000E+00 -0.00000000000E+00 -0.32414096101E+02  0.32414096101E+02  0.00000000000E+00 0. -1.
         24    1    1    2    0    0  0.35291817224E+00 -0.42232563119E+01  0.64133904799E+02  0.10294821098E+03  0.80419002446E+02 0. -1.
          1    1    1    2  501    0  0.20671280548E+02 -0.35189194757E+01  0.66717653925E+02  0.69935184128E+02  0.00000000000E+00 0. -1.
         -2    1    1    2    0  503 -0.21024198720E+02  0.77421757877E+01 -0.38856256174E+00  0.22407793256E+02  0.00000000000E+00 0.  1.
<mgrwt>
<rscale>  2 0.61951838E+02</rscale>
<asrwt>0</asrwt>
<pdfrwt beam="1">  1       21 0.25058014E-01 0.61951838E+02</pdfrwt>
<pdfrwt beam="2">  1       21 0.49867841E-02 0.61951838E+02</pdfrwt>
<totfact> 0.38579032E+06</totfact>
</mgrwt>
</event>
<event>
 5    1  0.1590180E+000  0.1599327E+03  0.7546771E-02  0.1188773E+00
         21   -1    0    0  503  502  0.00000000000E+00  0.00000000000E+00  0.40522701529E+03  0.40522701529E+03  0.00000000000E+00 0.  1.
         21   -1    0    0  501  503 -0.00000000000E+00 -0.00000000000E+00 -0.26791621027E+03  0.26791621027E+03  0.00000000000E+00 0.  1.
         24    1    1    2    0    0 -0.57910716923E+02  0.12359857219E+03 -0.20569999013E+03  0.25963428140E+03  0.80419002446E+02 0.  1.
          1    1    1    2  501    0  0.33778934788E+02 -0.13171970904E+03  0.99071995621E+02  0.16824493603E+03  0.00000000000E+00 0. -1.
         -2    1    1    2    0  502  0.24131782135E+02  0.81211368425E+01  0.24393879953E+03  0.24526400814E+03  0.00000000000E+00 0.  1.
<mgrwt>
<rscale>  2 0.15993273E+03</rscale>
<asrwt>0</asrwt>
<pdfrwt beam="1">  1       21 0.62342618E-01 0.15993273E+03</pdfrwt>
<pdfrwt beam="2">  1       21 0.41217878E-01 0.15993273E+03</pdfrwt>
<totfact> 0.13831217E+04</totfact>
</mgrwt>
</event>
<event>
 5    1  0.1590180E+000  0.9387075E+02  0.7546771E-02  0.1293740E+00
         21   -1    0    0  501  502  0.00000000000E+00  0.00000000000E+00  0.99232875689E+01  0.99232875689E+01  0.00000000000E+00 0.  1.
         21   -1    0    0  502  503 -0.00000000000E+00 -0.00000000000E+00 -0.11301420400E+04  0.11301420400E+04  0.00000000000E+00 0.  1.
         24    1    1    2    0    0  0.68433370852E+01 -0.34965561400E+02 -0.46574778807E+03  0.47398063230E+03  0.80419002446E+02 0.  1.
          1    1    1    2  501    0 -0.15999808754E+02 -0.30093854962E+02 -0.69204241820E+02  0.77141824405E+02  0.00000000000E+00 0. -1.
         -2    1    1    2    0  503  0.91564716690E+01  0.65059416362E+02 -0.58526672251E+03  0.58894287084E+03  0.00000000000E+00 0.  1.
<mgrwt>
<rscale>  2 0.93870755E+02</rscale>
<asrwt>0</asrwt>
<pdfrwt beam="1">  1       21 0.15266607E-02 0.93870755E+02</pdfrwt>
<pdfrwt beam="2">  1       21 0.17386789E+00 0.93870755E+02</pdfrwt>
<totfact> 0.39660997E+05</totfact>
</mgrwt>
</event>
<event>
 5    1  0.1590180E+000  0.8339144E+02  0.7546771E-02  0.1319693E+00
         21   -1    0    0  503  502  0.00000000000E+00  0.00000000000E+00  0.95228994905E+02  0.95228994905E+02  0.00000000000E+00 0.  1.
         21   -1    0    0  501  503 -0.00000000000E+00 -0.00000000000E+00 -0.28261195497E+03  0.28261195497E+03  0.00000000000E+00 0. -1.
         24    1    1    2    0    0 -0.10203469988E+02  0.14264890175E+02  0.25790128165E+02  0.86255113220E+02  0.80419002446E+02 0. -1.
          1    1    1    2  501    0  0.35334848758E+02  0.21049707367E+02 -0.23807236209E+03  0.24159903003E+03  0.00000000000E+00 0. -1.
         -2    1    1    2    0  502 -0.25131378770E+02 -0.35314597542E+02  0.24899273861E+02  0.49986806632E+02  0.00000000000E+00 0.  1.
<mgrwt>
<rscale>  2 0.83391442E+02</rscale>
<asrwt>0</asrwt>
<pdfrwt beam="1">  1       21 0.14650615E-01 0.83391442E+02</pdfrwt>
<pdfrwt beam="2">  1       21 0.43478762E-01 0.83391442E+02</pdfrwt>
<totfact> 0.21442221E+05</totfact>
</mgrwt>
</event>
<event>
 5    1  0.1590180E+000  0.6438181E+02  0.7546771E-02  0.1380312E+00
         21   -1    0    0  501  502  0.00000000000E+00  0.00000000000E+00  0.55283243147E+03  0.55283243147E+03  0.00000000000E+00 0.  1.
         21   -1    0    0  502  503 -0.00000000000E+00 -0.00000000000E+00 -0.96559182317E+01  0.96559182317E+01  0.00000000000E+00 0. -1.
         24    1    1    2    0    0 -0.35925852738E+02  0.47642724619E+01  0.26023886834E+03  0.27478145813E+03  0.80419002446E+02 0. -1.
          1    1    1    2  501    0  0.16732156521E+02 -0.11401135186E+02  0.23182288521E+03  0.23270539541E+03  0.00000000000E+00 0. -1.
         -2    1    1    2    0  503  0.19193696217E+02  0.66368627241E+01  0.51114759689E+02  0.55001496155E+02  0.00000000000E+00 0.  1.
<mgrwt>
<rscale>  2 0.64381806E+02</rscale>
<asrwt>0</asrwt>
<pdfrwt beam="1">  1       21 0.85051119E-01 0.64381806E+02</pdfrwt>
<pdfrwt beam="2">  1       21 0.14855263E-02 0.64381806E+02</pdfrwt>
<totfact> 0.23232503E+06</totfact>
</mgrwt>
</event>
<event>
 5    1  0.1590180E+000  0.8863951E+02  0.7546771E-02  0.1306180E+00
         21   -1    0    0  503  502  0.00000000000E+00  0.00000000000E+00  0.52920944357E+02  0.52920944357E+02  0.00000000000E+00 0.  1.
         21   -1    0    0  501  503 -0.00000000000E+00 -0.00000000000E+00 -0.29763572042E+03  0.29763572042E+03  0.00000000000E+00 0. -1.
         24    1    1    2    0    0 -0.32445087009E+02 -0.36849274623E+01 -0.12311490561E+03  0.15063451895E+03  0.80419002446E+02 0.  1.
          1    1    1    2  501    0  0.15968786541E+02 -0.40388573499E+02 -0.14210653137E+03  0.14859510514E+03  0.00000000000E+00 0. -1.
         -2    1    1    2    0  502  0.16476300467E+02  0.44073500961E+02  0.20506660916E+02  0.51327040690E+02  0.00000000000E+00 0.  1.
<mgrwt>
<rscale>  2 0.88639505E+02</rscale>
<asrwt>0</asrwt>
<pdfrwt beam="1">  1       21 0.81416836E-02 0.88639505E+02</pdfrwt>
<pdfrwt beam="2">  1       21 0.45790112E-01 0.88639505E+02</pdfrwt>
<totfact> 0.53731422E+05</totfact>
</mgrwt>
</event>
<event>
 5    1  0.1590180E+000  0.1016072E+03  0.7546771E-02  0.1276952E+00
         21   -1    0    0  501  502  0.00000000000E+00  0.00000000000E+00  0.29634202908E+02  0.29634202908E+02  0.00000000000E+00 0. -1.
         21   -1    0    0  502  503 -0.00000000000E+00 -0.00000000000E+00 -0.45641385630E+03  0.45641385630E+03  0.00000000000E+00 0.  1.
         24    1    1    2    0    0  0.15024781897E+02 -0.55788295830E+02 -0.32268366591E+03  0.33753524590E+03  0.80419002446E+02 0.  1.
          1    1    1    2  501    0  0.36135976858E+02  0.29640409856E+02 -0.33561933698E+02  0.57539257151E+02  0.00000000000E+00 0. -1.
         -2    1    1    2    0  503 -0.51160758755E+02  0.26147885974E+02 -0.70534053779E+02  0.90973556157E+02  0.00000000000E+00 0.  1.
<mgrwt>
<rscale>  2 0.10160718E+03</rscale>
<asrwt>0</asrwt>
<pdfrwt beam="1">  1       21 0.45591078E-02 0.10160718E+03</pdfrwt>
<pdfrwt beam="2">  1       21 0.70217521E-01 0.10160718E+03</pdfrwt>
<totfact> 0.58452659E+05</totfact>
</mgrwt>
</event>
<event>
 5    1  0.1590180E+000  0.7023704E+02  0.7546771E-02  0.1359289E+00
         21   -1    0    0  501  502  0.00000000000E+00  0.00000000000E+00  0.83642173077E+02  0.83642173077E+02  0.00000000000E+00 0. -1.
         21   -1    0    0  502  503 -0.00000000000E+00 -0.00000000000E+00 -0.15113572953E+03  0.15113572953E+03  0.00000000000E+00 0.  1.
         24    1    1    2    0    0  0.13537125800E+02  0.20691966127E+02 -0.94186446954E+02  0.12629217704E+03  0.80419002446E+02 0.  0.
          1    1    1    2  501    0 -0.28556976246E+02  0.25457903622E+01  0.59212181628E+02  0.65788026221E+02  0.00000000000E+00 0. -1.
         -2    1    1    2    0  503  0.15019850446E+02 -0.23237756489E+02 -0.32519291126E+02  0.42697699346E+02  0.00000000000E+00 0.  1.
<mgrwt>
<rscale>  2 0.70237044E+02</rscale>
<asrwt>0</asrwt>
<pdfrwt beam="1">  1       21 0.12868027E-01 0.70237044E+02</pdfrwt>
<pdfrwt beam="2">  1       21 0.23251650E-01 0.70237044E+02</pdfrwt>
<totfact> 0.89380260E+05</totfact>
</mgrwt>
</event>
<event>
 5    1  0.1590180E+000  0.6588294E+02  0.7546771E-02  0.1374681E+00
         21   -1    0    0  501  502  0.00000000000E+00  0.00000000000E+00  0.10869710798E+03  0.10869710798E+03  0.00000000000E+00 0. -1.
         21   -1    0    0  502  503 -0.00000000000E+00 -0.00000000000E+00 -0.40238461328E+02  0.40238461328E+02  0.00000000000E+00 0.  1.
         24    1    1    2    0    0 -0.20988280197E+01 -0.81601775558E-02  0.40119491216E+02  0.89895465266E+02  0.80419002446E+02 0.  0.
          1    1    1    2  501    0  0.23442247374E+02  0.12523043404E+02  0.18651719402E+02  0.32469250295E+02  0.00000000000E+00 0. -1.
         -2    1    1    2    0  503 -0.21343419355E+02 -0.12514883226E+02  0.96874360319E+01  0.26570853746E+02  0.00000000000E+00 0.  1.
<mgrwt>
<rscale>  2 0.65882935E+02</rscale>
<asrwt>0</asrwt>
<pdfrwt beam="1">  1       21 0.16722632E-01 0.65882935E+02</pdfrwt>
<pdfrwt beam="2">  1       21 0.61905325E-02 0.65882935E+02</pdfrwt>
<totfact> 0.56465991E+06</totfact>
</mgrwt>
</event>
<event>
 5    1  0.1590180E+000  0.9421986E+02  0.7546771E-02  0.1292943E+00
         21   -1    0    0  503  502  0.00000000000E+00  0.00000000000E+00  0.12364505093E+03  0.12364505093E+03  0.00000000000E+00 0. -1.
         21   -1    0    0  501  503 -0.00000000000E+00 -0.00000000000E+00 -0.82521217016E+02  0.82521217016E+02  0.00000000000E+00 0. -1.
         24    1    1    2    0    0 -0.30568047633E+02 -0.62214604168E+02  0.25750900301E+02  0.10924919830E+03  0.80419002446E+02 0. -1.
          1    1    1    2  501    0  0.39820304611E+02  0.33297195325E+02 -0.14939264046E+02  0.54014271133E+02  0.00000000000E+00 0. -1.
         -2    1    1    2    0  502 -0.92522569780E+01  0.28917408844E+02  0.30312197656E+02  0.42902798512E+02  0.00000000000E+00 0.  1.
<mgrwt>
<rscale>  2 0.94219856E+02</rscale>
<asrwt>0</asrwt>
<pdfrwt beam="1">  1       21 0.19022315E-01 0.94219856E+02</pdfrwt>
<pdfrwt beam="2">  1       21 0.12695572E-01 0.94219856E+02</pdfrwt>
<totfact> 0.13327017E+06</totfact>
</mgrwt>
</event>
<event>
 5    1  0.1590180E+000  0.7361257E+02  0.7546771E-02  0.1348222E+00
         21   -1    0    0  503  502  0.00000000000E+00  0.00000000000E+00  0.29805358893E+02  0.29805358893E+02  0.00000000000E+00 0. -1.
         21   -1    0    0  501  503 -0.00000000000E+00 -0.00000000000E+00 -0.37278380033E+03  0.37278380033E+03  0.00000000000E+00 0.  1.
         24    1    1    2    0    0  0.75821572399E+01  0.20947549470E+02 -0.20215252568E+03  0.21869876207E+03  0.80419002446E+02 0.  1.
          1    1    1    2  501    0 -0.26301680944E+02 -0.32477596075E+02 -0.15310631900E+03  0.15870764816E+03  0.00000000000E+00 0. -1.
         -2    1    1    2    0  502  0.18719523704E+02  0.11530046605E+02  0.12280403251E+02  0.25182748984E+02  0.00000000000E+00 0.  1.
<mgrwt>
<rscale>  2 0.73612571E+02</rscale>
<asrwt>0</asrwt>
<pdfrwt beam="1">  1       21 0.45854400E-02 0.73612571E+02</pdfrwt>
<pdfrwt beam="2">  1       21 0.57351352E-01 0.73612571E+02</pdfrwt>
<totfact> 0.88699684E+05</totfact>
</mgrwt>
</event>
<event>
 5    1  0.1590180E+000  0.8248074E+02  0.7546771E-02  0.1322155E+00
         21   -1    0    0  501  502  0.00000000000E+00  0.00000000000E+00  0.54150793147E+02  0.54150793147E+02  0.00000000000E+00 0. -1.
         21   -1    0    0  502  503 -0.00000000000E+00 -0.00000000000E+00 -0.28095830145E+03  0.28095830145E+03  0.00000000000E+00 0.  1.
         24    1    1    2    0    0  0.30633996070E+02 -0.41623569373E+02 -0.24408269725E+03  0.26213458813E+03  0.80419002446E+02 0.  1.
          1    1    1    2  501    0 -0.27148732617E+02 -0.44755225825E+00  0.14215422784E+02  0.30648527381E+02  0.00000000000E+00 0. -1.
         -2    1    1    2    0  503 -0.34852634534E+01  0.42071121631E+02  0.30597661626E+01  0.42325979087E+02  0.00000000000E+00 0.  1.
<mgrwt>
<rscale>  2 0.82480742E+02</rscale>
<asrwt>0</asrwt>
<pdfrwt beam="1">  1       21 0.83308912E-02 0.82480742E+02</pdfrwt>
<pdfrwt beam="2">  1       21 0.43224354E-01 0.82480742E+02</pdfrwt>
<totfact> 0.57980177E+05</totfact>
</mgrwt>
</event>
<event>
 5    1  0.1590180E+000  0.7168546E+02  0.7546771E-02  0.1354454E+00
         21   -1    0    0  501  502  0.00000000000E+00  0.00000000000E+00  0.13708209845E+02  0.13708209845E+02  0.00000000000E+00 0.  1.
         21   -1    0    0  502  503 -0.00000000000E+00 -0.00000000000E+00 -0.65161814180E+03  0.65161814180E+03  0.00000000000E+00 0.  1.
         24    1    1    2    0    0  0.72656063358E+01  0.13320690130E+02 -0.53995137936E+03  0.54611806218E+03  0.80419002446E+02 0.  1.
          1    1    1    2  501    0  0.26381930023E+02 -0.46813674719E+01 -0.18709850332E+02  0.32679962249E+02  0.00000000000E+00 0. -1.
         -2    1    1    2    0  503 -0.33647536359E+02 -0.86393226578E+01 -0.79248702264E+02  0.86528327209E+02  0.00000000000E+00 0.  1.
<mgrwt>
<rscale>  2 0.71685465E+02</rscale>
<asrwt>0</asrwt>
<pdfrwt beam="1">  1       21 0.21089557E-02 0.71685465E+02</pdfrwt>
<pdfrwt beam="2">  1       21 0.10024893E+00 0.71685465E+02</pdfrwt>
<totfact> 0.92515949E+05</totfact>
</mgrwt>
</event>
<event>
 5    1  0.1590180E+000  0.7423387E+02  0.7546771E-02  0.1346260E+00
         21   -1    0    0  503  502  0.00000000000E+00  0.00000000000E+00  0.90452302533E+01  0.90452302533E+01  0.00000000000E+00 0. -1.
         21   -1    0    0  501  503 -0.00000000000E+00 -0.00000000000E+00 -0.64494257925E+03  0.64494257925E+03  0.00000000000E+00 0.  1.
         24    1    1    2    0    0 -0.37120087757E+02  0.20553968826E+02 -0.46006321027E+03  0.46896240782E+03  0.80419002446E+02 0.  0.
          1    1    1    2  501    0 -0.22813903030E+00 -0.20190212860E+02 -0.58075246228E+02  0.61485209337E+02  0.00000000000E+00 0. -1.
         -2    1    1    2    0  502  0.37348226787E+02 -0.36375596620E+00 -0.11775889250E+03  0.12354019235E+03  0.00000000000E+00 0.  1.
<mgrwt>
<rscale>  2 0.74233874E+02</rscale>
<asrwt>0</asrwt>
<pdfrwt beam="1">  1       21 0.13915736E-02 0.74233874E+02</pdfrwt>
<pdfrwt beam="2">  1       21 0.99221959E-01 0.74233874E+02</pdfrwt>
<totfact> 0.18302780E+06</totfact>
</mgrwt>
</event>
<event>
 5    1  0.1590180E+000  0.9960457E+02  0.7546771E-02  0.1281130E+00
         21   -1    0    0  501  502  0.00000000000E+00  0.00000000000E+00  0.12505451619E+03  0.12505451619E+03  0.00000000000E+00 0.  1.
         21   -1    0    0  502  503 -0.00000000000E+00 -0.00000000000E+00 -0.12331698801E+03  0.12331698801E+03  0.00000000000E+00 0.  1.
         24    1    1    2    0    0  0.47722907720E+02  0.65257307376E+02  0.62778995915E+01  0.11420429092E+03  0.80419002446E+02 0.  1.
          1    1    1    2  501    0 -0.44974027491E+02 -0.41291181905E+02  0.47139328818E+02  0.77134565360E+02  0.00000000000E+00 0. -1.
         -2    1    1    2    0  503 -0.27488802282E+01 -0.23966125472E+02 -0.51679700228E+02  0.57032647916E+02  0.00000000000E+00 0.  1.
<mgrwt>
<rscale>  2 0.99604572E+02</rscale>
<asrwt>0</asrwt>
<pdfrwt beam="1">  1       21 0.19239156E-01 0.99604572E+02</pdfrwt>
<pdfrwt beam="2">  1       21 0.18971844E-01 0.99604572E+02</pdfrwt>
<totfact> 0.63540325E+05</totfact>
</mgrwt>
</event>
<event>
 5    1  0.1590180E+000  0.6903122E+02  0.7546771E-02  0.1363419E+00
         21   -1    0    0  501  502  0.00000000000E+00  0.00000000000E+00  0.13639908272E+03  0.13639908272E+03  0.00000000000E+00 0. -1.
         21   -1    0    0  502  503 -0.00000000000E+00 -0.00000000000E+00 -0.44439025500E+02  0.44439025500E+02  0.00000000000E+00 0.  1.
         24    1    1    2    0    0  0.25497115413E+02 -0.19628733686E+02  0.32276159266E+02  0.92435688410E+02  0.80419002446E+02 0.  1.
          1    1    1    2  501    0  0.16344286600E+01  0.23920236511E+02  0.55706589385E+02  0.60647120069E+02  0.00000000000E+00 0. -1.
         -2    1    1    2    0  503 -0.27131544073E+02 -0.42915028250E+01  0.39773085699E+01  0.27755299742E+02  0.00000000000E+00 0.  1.
<mgrwt>
<rscale>  2 0.69031222E+02</rscale>
<asrwt>0</asrwt>
<pdfrwt beam="1">  1       21 0.20984474E-01 0.69031222E+02</pdfrwt>
<pdfrwt beam="2">  1       21 0.68367732E-02 0.69031222E+02</pdfrwt>
<totfact> 0.31857931E+06</totfact>
</mgrwt>
</event>
<event>
 5    1  0.1590180E+000  0.9147055E+02  0.7546771E-02  0.1299329E+00
         21   -1    0    0  501  502  0.00000000000E+00  0.00000000000E+00  0.41277739561E+02  0.41277739561E+02  0.00000000000E+00 0. -1.
         21   -1    0    0  502  503 -0.00000000000E+00 -0.00000000000E+00 -0.24143001745E+03  0.24143001745E+03  0.00000000000E+00 0. -1.
         24    1    1    2    0    0 -0.15711622663E+01  0.44914713169E+02 -0.44471054605E+02  0.10229707064E+03  0.80419002446E+02 0. -1.
          1    1    1    2  501    0 -0.38649267091E+02 -0.23811499429E+02 -0.69915470370E+02  0.83360220421E+02  0.00000000000E+00 0. -1.
         -2    1    1    2    0  503  0.40220429357E+02 -0.21103213740E+02 -0.85765752916E+02  0.97050465950E+02  0.00000000000E+00 0.  1.
<mgrwt>
<rscale>  2 0.91470549E+02</rscale>
<asrwt>0</asrwt>
<pdfrwt beam="1">  1       21 0.63504215E-02 0.91470549E+02</pdfrwt>
<pdfrwt beam="2">  1       21 0.37143080E-01 0.91470549E+02</pdfrwt>
<totfact> 0.12422232E+06</totfact>
</mgrwt>
</event>
<event>
 5    1  0.1590180E+000  0.1441040E+03  0.7546771E-02  0.1207911E+00
         21   -1    0    0  501  502  0.00000000000E+00  0.00000000000E+00  0.54878732767E+02  0.54878732767E+02  0.00000000000E+00 0. -1.
         21   -1    0    0  502  503 -0.00000000000E+00 -0.00000000000E+00 -0.10329764146E+04  0.10329764146E+04  0.00000000000E+00 0.  1.
         24    1    1    2    0    0 -0.74211057513E+02  0.58566315506E+02 -0.11223821068E+03  0.16733776101E+03  0.80419002446E+02 0. -1.
          1    1    1    2  501    0  0.11369991855E+03 -0.40898571482E+02 -0.10994325503E+03  0.16336426768E+03  0.00000000000E+00 0. -1.
         -2    1    1    2    0  503 -0.39488861039E+02 -0.17667744024E+02 -0.75591621610E+03  0.75715311866E+03  0.00000000000E+00 0.  1.
<mgrwt>
<rscale>  2 0.14410397E+03</rscale>
<asrwt>0</asrwt>
<pdfrwt beam="1">  1       21 0.84428815E-02 0.14410397E+03</pdfrwt>
<pdfrwt beam="2">  1       21 0.15891946E+00 0.14410397E+03</pdfrwt>
<totfact> 0.28947847E+04</totfact>
</mgrwt>
</event>
<event>
 5    1  0.1590180E+000  0.7241615E+02  0.7546771E-02  0.1352064E+00
         21   -1    0    0  501  502  0.00000000000E+00  0.00000000000E+00  0.46754188404E+02  0.46754188404E+02  0.00000000000E+00 0.  1.
         21   -1    0    0  502  503 -0.00000000000E+00 -0.00000000000E+00 -0.11382391056E+03  0.11382391056E+03  0.00000000000E+00 0.  1.
         24    1    1    2    0    0  0.23172138060E+02 -0.17256397018E+02 -0.45681706601E+02  0.96895642279E+02  0.80419002446E+02 0.  1.
          1    1    1    2  501    0  0.12320923847E+02  0.20311760555E+02 -0.41866029451E+01  0.24122612328E+02  0.00000000000E+00 0. -1.
         -2    1    1    2    0  503 -0.35493061907E+02 -0.30553635368E+01 -0.17201412612E+02  0.39559844359E+02  0.00000000000E+00 0.  1.
<mgrwt>
<rscale>  2 0.72416145E+02</rscale>
<asrwt>0</asrwt>
<pdfrwt beam="1">  1       21 0.71929521E-02 0.72416145E+02</pdfrwt>
<pdfrwt beam="2">  1       21 0.17511371E-01 0.72416145E+02</pdfrwt>
<totfact> 0.40714386E+06</totfact>
</mgrwt>
</event>
<event>
 5    1  0.1590180E+000  0.7887356E+02  0.7546771E-02  0.1332279E+00
         21   -1    0    0  501  502  0.00000000000E+00  0.00000000000E+00  0.21619478705E+03  0.21619478705E+03  0.00000000000E+00 0.  1.
         21   -1    0    0  502  503 -0.00000000000E+00 -0.00000000000E+00 -0.41260069696E+02  0.41260069696E+02  0.00000000000E+00 0.  1.
         24    1    1    2    0    0  0.25472233522E+02  0.44425856945E+01  0.79994412175E+02  0.11633955983E+03  0.80419002446E+02 0.  1.
          1    1    1    2  501    0  0.22198373468E+02 -0.11636060892E+02  0.89093558902E+02  0.92551758144E+02  0.00000000000E+00 0. -1.
         -2    1    1    2    0  503 -0.47670606990E+02  0.71934751976E+01  0.58467462812E+01  0.48563538775E+02  0.00000000000E+00 0.  1.
<mgrwt>
<rscale>  2 0.78873561E+02</rscale>
<asrwt>0</asrwt>
<pdfrwt beam="1">  1       21 0.33260736E-01 0.78873561E+02</pdfrwt>
<pdfrwt beam="2">  1       21 0.63477031E-02 0.78873561E+02</pdfrwt>
<totfact> 0.15336370E+06</totfact>
</mgrwt>
</event>
<event>
 5    1  0.1590180E+000  0.8924843E+02  0.7546771E-02  0.1304682E+00
         21   -1    0    0  503  502  0.00000000000E+00  0.00000000000E+00  0.59983770923E+02  0.59983770923E+02  0.00000000000E+00 0.  1.
         21   -1    0    0  501  503 -0.00000000000E+00 -0.00000000000E+00 -0.21940622558E+03  0.21940622558E+03  0.00000000000E+00 0. -1.
         24    1    1    2    0    0  0.18594508870E+02  0.27546798669E+02 -0.97884780294E+02  0.13097033269E+03  0.80419002446E+02 0. -1.
          1    1    1    2  501    0 -0.34846593245E+02  0.20726782950E+02 -0.83598355820E+02  0.92911622997E+02  0.00000000000E+00 0. -1.
         -2    1    1    2    0  502  0.16252084375E+02 -0.48273581619E+02  0.22060681457E+02  0.55508040816E+02  0.00000000000E+00 0.  1.
<mgrwt>
<rscale>  2 0.89248427E+02</rscale>
<asrwt>0</asrwt>
<pdfrwt beam="1">  1       21 0.92282725E-02 0.89248427E+02</pdfrwt>
<pdfrwt beam="2">  1       21 0.33754804E-01 0.89248427E+02</pdfrwt>
<totfact> 0.79126758E+05</totfact>
</mgrwt>
</event>
<event>
 5    1  0.1590180E+000  0.1001402E+03  0.7546771E-02  0.1280001E+00
         21   -1    0    0  503  502  0.00000000000E+00  0.00000000000E+00  0.57783091253E+02  0.57783091253E+02  0.00000000000E+00 0. -1.
         21   -1    0    0  501  503 -0.00000000000E+00 -0.00000000000E+00 -0.48458706862E+03  0.48458706862E+03  0.00000000000E+00 0. -1.
         24    1    1    2    0    0 -0.73937797604E+02 -0.33650933508E+02 -0.40371691457E+02  0.12122818429E+03  0.80419002446E+02 0. -1.
          1    1    1    2  501    0  0.63349267642E+02  0.15918230206E+02 -0.39382520552E+03  0.39920522575E+03  0.00000000000E+00 0. -1.
         -2    1    1    2    0  502  0.10588529961E+02  0.17732703301E+02  0.73929196059E+01  0.21936749837E+02  0.00000000000E+00 0.  1.
<mgrwt>
<rscale>  2 0.10014021E+03</rscale>
<asrwt>0</asrwt>
<pdfrwt beam="1">  1       21 0.88897065E-02 0.10014021E+03</pdfrwt>
<pdfrwt beam="2">  1       21 0.74551856E-01 0.10014021E+03</pdfrwt>
<totfact> 0.16587817E+05</totfact>
</mgrwt>
</event>
<event>
 5    1  0.1590180E+000  0.1029131E+03  0.7546771E-02  0.1274287E+00
         21   -1    0    0  503  502  0.00000000000E+00  0.00000000000E+00  0.27990219584E+03  0.27990219584E+03  0.00000000000E+00 0.  1.
         21   -1    0    0  501  503 -0.00000000000E+00 -0.00000000000E+00 -0.41069990679E+02  0.41069990679E+02  0.00000000000E+00 0. -1.
         24    1    1    2    0    0  0.73626341414E+01 -0.63971456582E+02  0.12279914410E+03  0.16029161358E+03  0.80419002446E+02 0.  0.
          1    1    1    2  501    0  0.50642197653E+01  0.81311947125E+02  0.61357202687E+02  0.10199012398E+03  0.00000000000E+00 0. -1.
         -2    1    1    2    0  502 -0.12426853907E+02 -0.17340490544E+02  0.54675858374E+02  0.58690448961E+02  0.00000000000E+00 0.  1.
<mgrwt>
<rscale>  2 0.10291309E+03</rscale>
<asrwt>0</asrwt>
<pdfrwt beam="1">  1       21 0.43061875E-01 0.10291309E+03</pdfrwt>
<pdfrwt beam="2">  1       21 0.63184603E-02 0.10291309E+03</pdfrwt>
<totfact> 0.93625913E+05</totfact>
</mgrwt>
</event>
<event>
 5    1  0.1590180E+000  0.8044935E+02  0.7546771E-02  0.1327781E+00
         21   -1    0    0  501  502  0.00000000000E+00  0.00000000000E+00  0.48696321221E+02  0.48696321221E+02  0.00000000000E+00 0. -1.
         21   -1    0    0  502  503 -0.00000000000E+00 -0.00000000000E+00 -0.14171151073E+03  0.14171151073E+03  0.00000000000E+00 0. -1.
         24    1    1    2    0    0  0.31925221259E+02  0.36199776573E+01 -0.54959685515E+02  0.10256757274E+03  0.80419002446E+02 0. -1.
          1    1    1    2  501    0 -0.41288551207E+02  0.22168234081E+02 -0.87073698948E+01  0.47665431431E+02  0.00000000000E+00 0. -1.
         -2    1    1    2    0  503  0.93633299483E+01 -0.25788211738E+02 -0.29348134100E+02  0.40174827785E+02  0.00000000000E+00 0.  1.
<mgrwt>
<rscale>  2 0.80449349E+02</rscale>
<asrwt>0</asrwt>
<pdfrwt beam="1">  1       21 0.74917419E-02 0.80449349E+02</pdfrwt>
<pdfrwt beam="2">  1       21 0.21801771E-01 0.80449349E+02</pdfrwt>
<totfact> 0.25677723E+06</totfact>
</mgrwt>
</event>
<event>
 5    1  0.1590180E+000  0.1564748E+03  0.7546771E-02  0.1192735E+00
         21   -1    0    0  501  502  0.00000000000E+00  0.00000000000E+00  0.30084251244E+03  0.30084251244E+03  0.00000000000E+00 0. -1.
         21   -1    0    0  502  503 -0.00000000000E+00 -0.00000000000E+00 -0.10094268377E+03  0.10094268377E+03  0.00000000000E+00 0.  1.
         24    1    1    2    0    0 -0.51401552722E+02  0.56220719630E+02  0.74873204466E+02  0.13370153941E+03  0.80419002446E+02 0. -1.
          1    1    1    2  501    0  0.44919528367E+01 -0.12161600324E+03  0.14076502821E+03  0.18607907742E+03  0.00000000000E+00 0. -1.
         -2    1    1    2    0  503  0.46909599885E+02  0.65395283611E+02 -0.15738404015E+02  0.82004579390E+02  0.00000000000E+00 0.  1.
<mgrwt>
<rscale>  2 0.15647479E+03</rscale>
<asrwt>0</asrwt>
<pdfrwt beam="1">  1       21 0.46283463E-01 0.15647479E+03</pdfrwt>
<pdfrwt beam="2">  1       21 0.15529644E-01 0.15647479E+03</pdfrwt>
<totfact> 0.16659537E+05</totfact>
</mgrwt>
</event>
<event>
 5    1  0.1590180E+000  0.9030910E+02  0.7546771E-02  0.1302105E+00
         21   -1    0    0  501  502  0.00000000000E+00  0.00000000000E+00  0.63183595605E+03  0.63183595605E+03  0.00000000000E+00 0.  1.
         21   -1    0    0  502  503 -0.00000000000E+00 -0.00000000000E+00 -0.13309845097E+02  0.13309845097E+02  0.00000000000E+00 0. -1.
         24    1    1    2    0    0  0.12162657631E+02 -0.51614415781E+02  0.27393221963E+03  0.29037571362E+03  0.80419002446E+02 0. -1.
          1    1    1    2  501    0  0.21975799377E+02  0.44190642828E+02  0.19450292896E+03  0.20066673378E+03  0.00000000000E+00 0. -1.
         -2    1    1    2    0  503 -0.34138457007E+02  0.74237729536E+01  0.15009096236E+03  0.15410335374E+03  0.00000000000E+00 0.  1.
<mgrwt>
<rscale>  2 0.90309101E+02</rscale>
<asrwt>0</asrwt>
<pdfrwt beam="1">  1       21 0.97205509E-01 0.90309101E+02</pdfrwt>
<pdfrwt beam="2">  1       21 0.20476690E-02 0.90309101E+02</pdfrwt>
<totfact> 0.10436272E+06</totfact>
</mgrwt>
</event>
<event>
 5    1  0.1590180E+000  0.1010300E+03  0.7546771E-02  0.1278145E+00
         21   -1    0    0  503  502  0.00000000000E+00  0.00000000000E+00  0.24637060760E+03  0.24637060760E+03  0.00000000000E+00 0. -1.
         21   -1    0    0  501  503 -0.00000000000E+00 -0.00000000000E+00 -0.45500788030E+02  0.45500788030E+02  0.00000000000E+00 0.  1.
         24    1    1    2    0    0 -0.30286597548E+02  0.58393984889E+02  0.82567755387E+02  0.13270940301E+03  0.80419002446E+02 0.  0.
          1    1    1    2  501    0 -0.19969683982E+02 -0.39890335077E+02  0.23853743401E+02  0.50586838063E+02  0.00000000000E+00 0. -1.
         -2    1    1    2    0  502  0.50256281531E+02 -0.18503649812E+02  0.94448320784E+02  0.10857515456E+03  0.00000000000E+00 0.  1.
<mgrwt>
<rscale>  2 0.10103002E+03</rscale>
<asrwt>0</asrwt>
<pdfrwt beam="1">  1       21 0.37903170E-01 0.10103002E+03</pdfrwt>
<pdfrwt beam="2">  1       21 0.70001213E-02 0.10103002E+03</pdfrwt>
<totfact> 0.10140404E+06</totfact>
</mgrwt>
</event>
<event>
 5    1  0.1590180E+000  0.6306858E+02  0.7546771E-02  0.1385388E+00
         21   -1    0    0  501  502  0.00000000000E+00  0.00000000000E+00  0.12433874119E+03  0.12433874119E+03  0.00000000000E+00 0.  1.
         21   -1    0    0  502  503 -0.00000000000E+00 -0.00000000000E+00 -0.91799730068E+02  0.91799730068E+02  0.00000000000E+00 0.  1.
         24    1    1    2    0    0 -0.84708128571E+01  0.73598538586E+00  0.58996236714E+02  0.10010029094E+03  0.80419002446E+02 0.  1.
          1    1    1    2  501    0 -0.15434207125E+01  0.21147591340E+02  0.40046658543E+02  0.45313768629E+02  0.00000000000E+00 0. -1.
         -2    1    1    2    0  503  0.10014233570E+02 -0.21883576725E+02 -0.66503884134E+02  0.70724411692E+02  0.00000000000E+00 0.  1.
<mgrwt>
<rscale>  2 0.63068581E+02</rscale>
<asrwt>0</asrwt>
<pdfrwt beam="1">  1       21 0.19129037E-01 0.63068581E+02</pdfrwt>
<pdfrwt beam="2">  1       21 0.14123035E-01 0.63068581E+02</pdfrwt>
<totfact> 0.10802254E+06</totfact>
</mgrwt>
</event>
<event>
 5    1  0.1590180E+000  0.1005644E+03  0.7546771E-02  0.1279114E+00
         21   -1    0    0  501  502  0.00000000000E+00  0.00000000000E+00  0.21009452857E+03  0.21009452857E+03  0.00000000000E+00 0. -1.
         21   -1    0    0  502  503 -0.00000000000E+00 -0.00000000000E+00 -0.63785460846E+02  0.63785460846E+02  0.00000000000E+00 0. -1.
         24    1    1    2    0    0 -0.26044853510E+02 -0.66165860314E+02  0.14245149308E+03  0.17837011885E+03  0.80419002446E+02 0. -1.
          1    1    1    2  501    0  0.44884152830E+02  0.57766808742E+02 -0.44112082591E+01  0.73287448624E+02  0.00000000000E+00 0. -1.
         -2    1    1    2    0  503 -0.18839299320E+02  0.83990515719E+01  0.82687829087E+01  0.22222421942E+02  0.00000000000E+00 0.  1.
<mgrwt>
<rscale>  2 0.10056438E+03</rscale>
<asrwt>0</asrwt>
<pdfrwt beam="1">  1       21 0.32322235E-01 0.10056438E+03</pdfrwt>
<pdfrwt beam="2">  1       21 0.98131479E-02 0.10056438E+03</pdfrwt>
<totfact> 0.77460346E+05</totfact>
</mgrwt>
</event>
<event>
 5    1  0.1590180E+000  0.1049601E+03  0.7546771E-02  0.1270198E+00
         21   -1    0    0  501  502  0.00000000000E+00  0.00000000000E+00  0.47414370689E+02  0.47414370689E+02  0.00000000000E+00 0.  1.
         21   -1    0    0  502  503 -0.00000000000E+00 -0.00000000000E+00 -0.27081144224E+03  0.27081144224E+03  0.00000000000E+00 0.  1.
         24    1    1    2    0    0 -0.59101100046E+02 -0.20525246601E+02 -0.50331716887E+02  0.11364296482E+03  0.80419002446E+02 0.  1.
          1    1    1    2  501    0 -0.21737968728E+02  0.16136745669E+02 -0.31797443100E+02  0.41761360525E+02  0.00000000000E+00 0. -1.
         -2    1    1    2    0  503  0.80839068774E+02  0.43885009319E+01 -0.14126791157E+03  0.16282148759E+03  0.00000000000E+00 0.  1.
<mgrwt>
<rscale>  2 0.10496011E+03</rscale>
<asrwt>0</asrwt>
<pdfrwt beam="1">  1       21 0.72945185E-02 0.10496011E+03</pdfrwt>
<pdfrwt beam="2">  1       21 0.41663299E-01 0.10496011E+03</pdfrwt>
<totfact> 0.78387711E+05</totfact>
</mgrwt>
</event>
<event>
 5    1  0.1590180E+000  0.6344362E+02  0.7546771E-02  0.1383923E+00
         21   -1    0    0  503  502  0.00000000000E+00  0.00000000000E+00  0.15068862707E+03  0.15068862707E+03  0.00000000000E+00 0.  1.
         21   -1    0    0  501  503 -0.00000000000E+00 -0.00000000000E+00 -0.42236843509E+02  0.42236843509E+02  0.00000000000E+00 0. -1.
         24    1    1    2    0    0 -0.27964018308E+01 -0.16330970173E+02  0.12144437754E+02  0.83001348018E+02  0.80419002446E+02 0. -1.
          1    1    1    2  501    0  0.21222022060E+02  0.17720698742E+01  0.17108056952E+02  0.27316662765E+02  0.00000000000E+00 0. -1.
         -2    1    1    2    0  502 -0.18425620229E+02  0.14558900299E+02  0.79199288856E+02  0.82607459797E+02  0.00000000000E+00 0.  1.
<mgrwt>
<rscale>  2 0.63443625E+02</rscale>
<asrwt>0</asrwt>
<pdfrwt beam="1">  1       21 0.23182865E-01 0.63443625E+02</pdfrwt>
<pdfrwt beam="2">  1       21 0.64979760E-02 0.63443625E+02</pdfrwt>
<totfact> 0.28753674E+06</totfact>
</mgrwt>
</event>
<event>
 5    1  0.1590180E+000  0.1283902E+03  0.7546771E-02  0.1229864E+00
         21   -1    0    0  501  502  0.00000000000E+00  0.00000000000E+00  0.30071506608E+03  0.30071506608E+03  0.00000000000E+00 0. -1.
         21   -1    0    0  502  503 -0.00000000000E+00 -0.00000000000E+00 -0.61619853738E+02  0.61619853738E+02  0.00000000000E+00 0.  1.
         24    1    1    2    0    0  0.23702585340E+02  0.67794988437E+02  0.15983487046E+03  0.19280138687E+03  0.80419002446E+02 0. -1.
          1    1    1    2  501    0 -0.72502977726E+01  0.39627453646E+02  0.29928179138E+02  0.50185633470E+02  0.00000000000E+00 0. -1.
         -2    1    1    2    0  503 -0.16452287567E+02 -0.10742244208E+03  0.49332162747E+02  0.11934789948E+03  0.00000000000E+00 0.  1.
<mgrwt>
<rscale>  2 0.12839022E+03</rscale>
<asrwt>0</asrwt>
<pdfrwt beam="1">  1       21 0.46263855E-01 0.12839022E+03</pdfrwt>
<pdfrwt beam="2">  1       21 0.94799777E-02 0.12839022E+03</pdfrwt>
<totfact> 0.40341716E+05</totfact>
</mgrwt>
</event>
<event>
 5    1  0.1590180E+000  0.1071126E+03  0.7546771E-02  0.1266012E+00
         21   -1    0    0  501  502  0.00000000000E+00  0.00000000000E+00  0.18087572854E+03  0.18087572854E+03  0.00000000000E+00 0. -1.
         21   -1    0    0  502  503 -0.00000000000E+00 -0.00000000000E+00 -0.27869853097E+03  0.27869853097E+03  0.00000000000E+00 0.  1.
         24    1    1    2    0    0 -0.89094555045E+02 -0.19878448824E+02 -0.11412682603E+03  0.16680869534E+03  0.80419002446E+02 0. -1.
          1    1    1    2  501    0  0.65570970987E+02  0.21457435650E+02  0.14571582577E+03  0.16122368207E+03  0.00000000000E+00 0. -1.
         -2    1    1    2    0  503  0.23523584058E+02 -0.15789868264E+01 -0.12941180216E+03  0.13154188210E+03  0.00000000000E+00 0.  1.
<mgrwt>
<rscale>  2 0.10711259E+03</rscale>
<asrwt>0</asrwt>
<pdfrwt beam="1">  1       21 0.27827035E-01 0.10711259E+03</pdfrwt>
<pdfrwt beam="2">  1       21 0.42876697E-01 0.10711259E+03</pdfrwt>
<totfact> 0.67168292E+04</totfact>
</mgrwt>
</event>
<event>
 5    1  0.1590180E+000  0.9012744E+02  0.7546771E-02  0.1302543E+00
         21   -1    0    0  501  502  0.00000000000E+00  0.00000000000E+00  0.22285845943E+04  0.22285845943E+04  0.00000000000E+00 0.  1.
         21   -1    0    0  502  503 -0.00000000000E+00 -0.00000000000E+00 -0.12184558456E+02  0.12184558456E+02  0.00000000000E+00 0.  1.
         24    1    1    2    0    0  0.18301898338E+02 -0.69022414465E+02  0.20904133251E+04  0.20931779998E+04  0.80419002446E+02 0.  1.
          1    1    1    2  501    0  0.45224593201E+00  0.23094092532E+02  0.64956515180E+02  0.68941210466E+02  0.00000000000E+00 0. -1.
         -2    1    1    2    0  503 -0.18754144270E+02  0.45928321934E+02  0.61030195609E+02  0.78649942524E+02  0.00000000000E+00 0.  1.
<mgrwt>
<rscale>  2 0.90127437E+02</rscale>
<asrwt>0</asrwt>
<pdfrwt beam="1">  1       21 0.34285884E+00 0.90127437E+02</pdfrwt>
<pdfrwt beam="2">  1       21 0.18745492E-02 0.90127437E+02</pdfrwt>
<totfact> 0.30575726E+04</totfact>
</mgrwt>
</event>
<event>
 5    1  0.1590180E+000  0.8601319E+02  0.7546771E-02  0.1312804E+00
         21   -1    0    0  503  502  0.00000000000E+00  0.00000000000E+00  0.49636731981E+02  0.49636731981E+02  0.00000000000E+00 0.  1.
         21   -1    0    0  501  503 -0.00000000000E+00 -0.00000000000E+00 -0.87923681234E+03  0.87923681234E+03  0.00000000000E+00 0. -1.
         24    1    1    2    0    0 -0.22222787855E+01 -0.58095183769E+02 -0.44545443651E+03  0.45637359681E+03  0.80419002446E+02 0.  1.
          1    1    1    2  501    0  0.22458647710E+02  0.22153508577E+02 -0.41796929648E+03  0.41915808665E+03  0.00000000000E+00 0. -1.
         -2    1    1    2    0  502 -0.20236368925E+02  0.35941675192E+02  0.33823652638E+02  0.53341860866E+02  0.00000000000E+00 0.  1.
<mgrwt>
<rscale>  2 0.86013188E+02</rscale>
<asrwt>0</asrwt>
<pdfrwt beam="1">  1       21 0.76364206E-02 0.86013188E+02</pdfrwt>
<pdfrwt beam="2">  1       21 0.13526720E+00 0.86013188E+02</pdfrwt>
<totfact> 0.54469269E+04</totfact>
</mgrwt>
</event>
<event>
 5    1  0.1590180E+000  0.1116201E+03  0.7546771E-02  0.1257599E+00
         21   -1    0    0  503  502  0.00000000000E+00  0.00000000000E+00  0.74760913979E+02  0.74760913979E+02  0.00000000000E+00 0.  1.
         21   -1    0    0  501  503 -0.00000000000E+00 -0.00000000000E+00 -0.25983867683E+03  0.25983867683E+03  0.00000000000E+00 0.  1.
         24    1    1    2    0    0 -0.15773565543E+00 -0.97082259470E+02 -0.18077674783E+03  0.22039155722E+03  0.80419002446E+02 0.  1.
          1    1    1    2  501    0  0.17571836896E+01  0.20007861535E+02 -0.27178068666E+02  0.33794224863E+02  0.00000000000E+00 0. -1.
         -2    1    1    2    0  502 -0.15994480341E+01  0.77074397936E+02  0.22877053638E+02  0.80413808729E+02  0.00000000000E+00 0.  1.
<mgrwt>
<rscale>  2 0.11162008E+03</rscale>
<asrwt>0</asrwt>
<pdfrwt beam="1">  1       21 0.11501679E-01 0.11162008E+03</pdfrwt>
<pdfrwt beam="2">  1       21 0.39975182E-01 0.11162008E+03</pdfrwt>
<totfact> 0.38685278E+05</totfact>
</mgrwt>
</event>
<event>
 5    1  0.1590180E+000  0.8420731E+02  0.7546771E-02  0.1317519E+00
         21   -1    0    0  501  502  0.00000000000E+00  0.00000000000E+00  0.11217245776E+03  0.11217245776E+03  0.00000000000E+00 0.  1.
         21   -1    0    0  502  503 -0.00000000000E+00 -0.00000000000E+00 -0.89509938267E+02  0.89509938267E+02  0.00000000000E+00 0. -1.
         24    1    1    2    0    0  0.50178494773E+02  0.25442237542E+02  0.93513546611E+01  0.98589312693E+02  0.80419002446E+02 0. -1.
          1    1    1    2  501    0 -0.36985078424E+02  0.47805781610E+01  0.44254030531E+02  0.57872006807E+02  0.00000000000E+00 0. -1.
         -2    1    1    2    0  503 -0.13193416349E+02 -0.30222815703E+02 -0.30942865703E+02  0.45221076523E+02  0.00000000000E+00 0.  1.
<mgrwt>
<rscale>  2 0.84207305E+02</rscale>
<asrwt>0</asrwt>
<pdfrwt beam="1">  1       21 0.17257301E-01 0.84207305E+02</pdfrwt>
<pdfrwt beam="2">  1       21 0.13770760E-01 0.84207305E+02</pdfrwt>
<totfact> 0.13727756E+06</totfact>
</mgrwt>
</event>
<event>
 5    1  0.1590180E+000  0.7163551E+02  0.7546771E-02  0.1354618E+00
         21   -1    0    0  503  502  0.00000000000E+00  0.00000000000E+00  0.80445691100E+03  0.80445691100E+03  0.00000000000E+00 0.  1.
         21   -1    0    0  501  503 -0.00000000000E+00 -0.00000000000E+00 -0.14555704443E+02  0.14555704443E+02  0.00000000000E+00 0.  1.
         24    1    1    2    0    0  0.23747323338E+02 -0.36336464100E+02  0.16855507391E+03  0.19173498086E+03  0.80419002446E+02 0.  1.
          1    1    1    2  501    0 -0.27134835075E+02  0.16493076049E+02  0.88035834596E+02  0.93587547276E+02  0.00000000000E+00 0. -1.
         -2    1    1    2    0  502  0.33875117366E+01  0.19843388051E+02  0.53331029805E+03  0.53369008731E+03  0.00000000000E+00 0.  1.
<mgrwt>
<rscale>  2 0.71635506E+02</rscale>
<asrwt>0</asrwt>
<pdfrwt beam="1">  1       21 0.12376257E+00 0.71635506E+02</pdfrwt>
<pdfrwt beam="2">  1       21 0.22393398E-02 0.71635506E+02</pdfrwt>
<totfact> 0.51268499E+05</totfact>
</mgrwt>
</event>
<event>
 5    1  0.1590180E+000  0.1235735E+03  0.7546771E-02  0.1237316E+00
         21   -1    0    0  503  502  0.00000000000E+00  0.00000000000E+00  0.29551457810E+03  0.29551457810E+03  0.00000000000E+00 0.  1.
         21   -1    0    0  501  503 -0.00000000000E+00 -0.00000000000E+00 -0.69630945364E+02  0.69630945364E+02  0.00000000000E+00 0. -1.
         24    1    1    2    0    0  0.62797815903E+02 -0.43354686357E+02  0.25758536506E+02  0.11381525675E+03  0.80419002446E+02 0. -1.
          1    1    1    2  501    0 -0.94416182031E+02  0.18843232069E+02  0.81503616956E+02  0.12614405416E+03  0.00000000000E+00 0. -1.
         -2    1    1    2    0  502  0.31618366128E+02  0.24511454288E+02  0.11862147927E+03  0.12518621255E+03  0.00000000000E+00 0.  1.
<mgrwt>
<rscale>  2 0.12357347E+03</rscale>
<asrwt>0</asrwt>
<pdfrwt beam="1">  1       21 0.45463781E-01 0.12357347E+03</pdfrwt>
<pdfrwt beam="2">  1       21 0.10712453E-01 0.12357347E+03</pdfrwt>
<totfact> 0.33776960E+05</totfact>
</mgrwt>
</event>
<event>
 5    1  0.1590180E+000  0.9742362E+02  0.7546771E-02  0.1285809E+00
         21   -1    0    0  503  502  0.00000000000E+00  0.00000000000E+00  0.29970805530E+03  0.29970805530E+03  0.00000000000E+00 0.  1.
         21   -1    0    0  501  503 -0.00000000000E+00 -0.00000000000E+00 -0.17575545952E+03  0.17575545952E+03  0.00000000000E+00 0. -1.
         24    1    1    2    0    0 -0.71371078980E+02  0.13423205403E+02 -0.14450270986E+03  0.18061634054E+03  0.80419002446E+02 0. -1.
          1    1    1    2  501    0  0.31554216854E+02  0.17494189504E+02  0.19844039929E+02  0.41176464010E+02  0.00000000000E+00 0. -1.
         -2    1    1    2    0  502  0.39816862126E+02 -0.30917394907E+02  0.24861126571E+03  0.25367071028E+03  0.00000000000E+00 0.  1.
<mgrwt>
<rscale>  2 0.97423617E+02</rscale>
<asrwt>0</asrwt>
<pdfrwt beam="1">  1       21 0.46108932E-01 0.97423617E+02</pdfrwt>
<pdfrwt beam="2">  1       21 0.27039301E-01 0.97423617E+02</pdfrwt>
<totfact> 0.61624906E+04</totfact>
</mgrwt>
</event>
<event>
 5    1  0.1590180E+000  0.7595280E+02  0.7546771E-02  0.1340946E+00
         21   -1    0    0  503  502  0.00000000000E+00  0.00000000000E+00  0.89024431995E+03  0.89024431995E+03  0.00000000000E+00 0. -1.
         21   -1    0    0  501  503 -0.00000000000E+00 -0.00000000000E+00 -0.65343397552E+01  0.65343397552E+01  0.00000000000E+00 0.  1.
         24    1    1    2    0    0 -0.48460311715E+02 -0.15368961965E+02  0.51348749826E+03  0.52222718584E+03  0.80419002446E+02 0.  0.
          1    1    1    2  501    0  0.26251721721E+02 -0.48906295846E+01  0.17871533851E+03  0.18069931757E+03  0.00000000000E+00 0. -1.
         -2    1    1    2    0  502  0.22208589995E+02  0.20259591549E+02  0.19150714342E+03  0.19385215630E+03  0.00000000000E+00 0.  1.
<mgrwt>
<rscale>  2 0.75952803E+02</rscale>
<asrwt>0</asrwt>
<pdfrwt beam="1">  1       21 0.13696057E+00 0.75952803E+02</pdfrwt>
<pdfrwt beam="2">  1       21 0.10052837E-02 0.75952803E+02</pdfrwt>
<totfact> 0.14157440E+06</totfact>
</mgrwt>
</event>
<event>
 5    1  0.1590180E+000  0.7120222E+02  0.7546771E-02  0.1356052E+00
         21   -1    0    0  501  502  0.00000000000E+00  0.00000000000E+00  0.16445725878E+03  0.16445725878E+03  0.00000000000E+00 0. -1.
         21   -1    0    0  502  503 -0.00000000000E+00 -0.00000000000E+00 -0.36767524706E+02  0.36767524706E+02  0.00000000000E+00 0.  1.
         24    1    1    2    0    0 -0.32851869217E+02  0.18479922099E+02  0.42997686931E+02  0.98675072170E+02  0.80419002446E+02 0.  0.
          1    1    1    2  501    0  0.22286578389E+02  0.90870603385E+01  0.57818756499E+02  0.62628067549E+02  0.00000000000E+00 0. -1.
         -2    1    1    2    0  503  0.10565290828E+02 -0.27566982438E+02  0.26873290644E+02  0.39921643767E+02  0.00000000000E+00 0.  1.
<mgrwt>
<rscale>  2 0.71202224E+02</rscale>
<asrwt>0</asrwt>
<pdfrwt beam="1">  1       21 0.25301116E-01 0.71202224E+02</pdfrwt>
<pdfrwt beam="2">  1       21 0.56565424E-02 0.71202224E+02</pdfrwt>
<totfact> 0.31046065E+06</totfact>
</mgrwt>
</event>
<event>
 5    1  0.1590180E+000  0.6241394E+02  0.7546771E-02  0.1387972E+00
         21   -1    0    0  503  502  0.00000000000E+00  0.00000000000E+00  0.14119024831E+03  0.14119024831E+03  0.00000000000E+00 0.  1.
         21   -1    0    0  501  503 -0.00000000000E+00 -0.00000000000E+00 -0.32569861046E+03  0.32569861046E+03  0.00000000000E+00 0.  1.
         24    1    1    2    0    0 -0.90044602802E+01  0.47586512115E+01 -0.19583667309E+03  0.21195033274E+03  0.80419002446E+02 0.  1.
          1    1    1    2  501    0  0.17790401589E+01 -0.23558720106E+02 -0.11988380787E+03  0.12218962995E+03  0.00000000000E+00 0. -1.
         -2    1    1    2    0  502  0.72254201213E+01  0.18800068895E+02  0.13121211882E+03  0.13274889608E+03  0.00000000000E+00 0.  1.
<mgrwt>
<rscale>  2 0.62413937E+02</rscale>
<asrwt>0</asrwt>
<pdfrwt beam="1">  1       21 0.21721577E-01 0.62413937E+02</pdfrwt>
<pdfrwt beam="2">  1       21 0.50107479E-01 0.62413937E+02</pdfrwt>
<totfact> 0.80190328E+04</totfact>
</mgrwt>
</event>
<event>
 5    1  0.1590180E+000  0.7508519E+02  0.7546771E-02  0.1343607E+00
         21   -1    0    0  503  502  0.00000000000E+00  0.00000000000E+00  0.16869854615E+02  0.16869854615E+02  0.00000000000E+00 0. -1.
         21   -1    0    0  501  503 -0.00000000000E+00 -0.00000000000E+00 -0.70551317237E+03  0.70551317237E+03  0.00000000000E+00 0. -1.
         24    1    1    2    0    0  0.28372236546E+02  0.15073529395E+02 -0.23811364208E+03  0.25337229051E+03  0.80419002446E+02 0. -1.
          1    1    1    2  501    0 -0.37667000899E+02  0.81658894146E+01 -0.44028059840E+03  0.44196435381E+03  0.00000000000E+00 0. -1.
         -2    1    1    2    0  502  0.92947643523E+01 -0.23239418809E+02 -0.10249077272E+02  0.27046382676E+02  0.00000000000E+00 0.  1.
<mgrwt>
<rscale>  2 0.75085187E+02</rscale>
<asrwt>0</asrwt>
<pdfrwt beam="1">  1       21 0.25953623E-02 0.75085187E+02</pdfrwt>
<pdfrwt beam="2">  1       21 0.10854048E+00 0.75085187E+02</pdfrwt>
<totfact> 0.55205946E+05</totfact>
</mgrwt>
</event>
<event>
 5    1  0.1590180E+000  0.6462608E+02  0.7546771E-02  0.1379384E+00
         21   -1    0    0  501  502  0.00000000000E+00  0.00000000000E+00  0.21364745941E+04  0.21364745941E+04  0.00000000000E+00 0. -1.
         21   -1    0    0  502  503 -0.00000000000E+00 -0.00000000000E+00 -0.50004617524E+01  0.50004617524E+01  0.00000000000E+00 0. -1.
         24    1    1    2    0    0 -0.29190628024E+02 -0.13378323283E+02  0.39163324241E+03  0.40109211512E+03  0.80419002446E+02 0. -1.
          1    1    1    2  501    0  0.95232934515E+01  0.19799295674E+02  0.10585945487E+04  0.10588225175E+04  0.00000000000E+00 0. -1.
         -2    1    1    2    0  503  0.19667334572E+02 -0.64209723914E+01  0.68124634125E+03  0.68156042315E+03  0.00000000000E+00 0.  1.
<mgrwt>
<rscale>  2 0.64626084E+02</rscale>
<asrwt>0</asrwt>
<pdfrwt beam="1">  1       21 0.32868767E+00 0.64626084E+02</pdfrwt>
<pdfrwt beam="2">  1       21 0.76930351E-03 0.64626084E+02</pdfrwt>
<totfact> 0.15639652E+05</totfact>
</mgrwt>
</event>
<event>
 5    1  0.1590180E+000  0.1903900E+03  0.7546771E-02  0.1158110E+00
         21   -1    0    0  501  502  0.00000000000E+00  0.00000000000E+00  0.59570205295E+03  0.59570205295E+03  0.00000000000E+00 0.  1.
         21   -1    0    0  502  503 -0.00000000000E+00 -0.00000000000E+00 -0.81357842925E+02  0.81357842925E+02  0.00000000000E+00 0.  1.
         24    1    1    2    0    0 -0.16483227041E+03 -0.69874848042E+02  0.31243961531E+03  0.36896869912E+03  0.80419002446E+02 0.  1.
          1    1    1    2  501    0  0.36634589964E+02 -0.35070686311E+01  0.14532349333E+03  0.14991100835E+03  0.00000000000E+00 0. -1.
         -2    1    1    2    0  503  0.12819768045E+03  0.73381916673E+02  0.56581101376E+02  0.15818018839E+03  0.00000000000E+00 0.  1.
<mgrwt>
<rscale>  2 0.19039003E+03</rscale>
<asrwt>0</asrwt>
<pdfrwt beam="1">  1       21 0.91646467E-01 0.19039003E+03</pdfrwt>
<pdfrwt beam="2">  1       21 0.12516592E-01 0.19039003E+03</pdfrwt>
<totfact> 0.54873257E+04</totfact>
</mgrwt>
</event>
<event>
 5    1  0.1590180E+000  0.7956494E+02  0.7546771E-02  0.1330291E+00
         21   -1    0    0  501  502  0.00000000000E+00  0.00000000000E+00  0.53196574506E+02  0.53196574506E+02  0.00000000000E+00 0. -1.
         21   -1    0    0  502  503 -0.00000000000E+00 -0.00000000000E+00 -0.14040665954E+03  0.14040665954E+03  0.00000000000E+00 0.  1.
         24    1    1    2    0    0  0.42547675473E+02 -0.24318727352E+02 -0.48008800559E+02  0.10570603613E+03  0.80419002446E+02 0. -1.
          1    1    1    2  501    0 -0.26016224688E+02 -0.91888079156E+01  0.70126402127E+01  0.28468495933E+02  0.00000000000E+00 0. -1.
         -2    1    1    2    0  503 -0.16531450784E+02  0.33507535267E+02 -0.46213924686E+02  0.59428701985E+02  0.00000000000E+00 0.  1.
<mgrwt>
<rscale>  2 0.79564944E+02</rscale>
<asrwt>0</asrwt>
<pdfrwt beam="1">  1       21 0.81840886E-02 0.79564944E+02</pdfrwt>
<pdfrwt beam="2">  1       21 0.21601024E-01 0.79564944E+02</pdfrwt>
<totfact> 0.22462243E+06</totfact>
</mgrwt>
</event>
<event>
 5    1  0.1590180E+000  0.7493625E+02  0.7546771E-02  0.1344069E+00
         21   -1    0    0  503  502  0.00000000000E+00  0.00000000000E+00  0.12411817098E+03  0.12411817098E+03  0.00000000000E+00 0. -1.
         21   -1    0    0  501  503 -0.00000000000E+00 -0.00000000000E+00 -0.47174215535E+02  0.47174215535E+02  0.00000000000E+00 0.  1.
         24    1    1    2    0    0 -0.14600102409E+01  0.28029525706E+02  0.59969819830E+02  0.10416996297E+03  0.80419002446E+02 0.  1.
          1    1    1    2  501    0 -0.27730138606E+02 -0.20687883372E+02  0.61699031474E+01  0.35142805955E+02  0.00000000000E+00 0. -1.
         -2    1    1    2    0  502  0.29190148847E+02 -0.73416423338E+01  0.10804232471E+02  0.31979617589E+02  0.00000000000E+00 0.  1.
<mgrwt>
<rscale>  2 0.74936248E+02</rscale>
<asrwt>0</asrwt>
<pdfrwt beam="1">  1       21 0.19095103E-01 0.74936248E+02</pdfrwt>
<pdfrwt beam="2">  1       21 0.72575717E-02 0.74936248E+02</pdfrwt>
<totfact> 0.34384194E+06</totfact>
</mgrwt>
</event>
<event>
 5    1  0.1590180E+000  0.8588655E+02  0.7546771E-02  0.1313130E+00
         21   -1    0    0  501  502  0.00000000000E+00  0.00000000000E+00  0.33930025045E+03  0.33930025045E+03  0.00000000000E+00 0. -1.
         21   -1    0    0  502  503 -0.00000000000E+00 -0.00000000000E+00 -0.30405567431E+02  0.30405567431E+02  0.00000000000E+00 0.  1.
         24    1    1    2    0    0 -0.42731171503E+02 -0.12818043997E+02  0.22709576448E+03  0.24501011707E+03  0.80419002446E+02 0. -1.
          1    1    1    2  501    0  0.62306788115E+01 -0.25875899024E+02  0.62807322770E+02  0.68213952402E+02  0.00000000000E+00 0. -1.
         -2    1    1    2    0  503  0.36500492692E+02  0.38693943021E+02  0.18991595772E+02  0.56481748408E+02  0.00000000000E+00 0.  1.
<mgrwt>
<rscale>  2 0.85886549E+02</rscale>
<asrwt>0</asrwt>
<pdfrwt beam="1">  1       21 0.52200036E-01 0.85886549E+02</pdfrwt>
<pdfrwt beam="2">  1       21 0.46777798E-02 0.85886549E+02</pdfrwt>
<totfact> 0.10450488E+06</totfact>
</mgrwt>
</event>
<event>
 5    1  0.1590180E+000  0.1030471E+03  0.7546771E-02  0.1274016E+00
         21   -1    0    0  501  502  0.00000000000E+00  0.00000000000E+00  0.15908730847E+03  0.15908730847E+03  0.00000000000E+00 0.  1.
         21   -1    0    0  502  503 -0.00000000000E+00 -0.00000000000E+00 -0.71038867609E+02  0.71038867609E+02  0.00000000000E+00 0. -1.
         24    1    1    2    0    0  0.16850715749E+02  0.76301234332E+01  0.13934979689E+02  0.83687305000E+02  0.80419002446E+02 0. -1.
          1    1    1    2  501    0  0.51254214005E+02 -0.18734696732E+02  0.47939522090E+02  0.72637325757E+02  0.00000000000E+00 0. -1.
         -2    1    1    2    0  503 -0.68104929753E+02  0.11104573299E+02  0.26173939081E+02  0.73801545322E+02  0.00000000000E+00 0.  1.
<mgrwt>
<rscale>  2 0.10304709E+03</rscale>
<asrwt>0</asrwt>
<pdfrwt beam="1">  1       21 0.24474970E-01 0.10304709E+03</pdfrwt>
<pdfrwt beam="2">  1       21 0.10929057E-01 0.10304709E+03</pdfrwt>
<totfact> 0.10901450E+06</totfact>
</mgrwt>
</event>
<event>
 5    1  0.1590180E+000  0.7624694E+02  0.7546771E-02  0.1340053E+00
         21   -1    0    0  503  502  0.00000000000E+00  0.00000000000E+00  0.38278656115E+02  0.38278656115E+02  0.00000000000E+00 0.  1.
         21   -1    0    0  501  503 -0.00000000000E+00 -0.00000000000E+00 -0.23859293600E+03  0.23859293600E+03  0.00000000000E+00 0.  1.
         24    1    1    2    0    0 -0.36844285840E+02  0.30625390170E+02 -0.94684273230E+02  0.13314557249E+03  0.80419002446E+02 0.  1.
          1    1    1    2  501    0  0.27212320967E+02 -0.45689138745E+00 -0.10856224334E+03  0.11192175768E+03  0.00000000000E+00 0. -1.
         -2    1    1    2    0  502  0.96319648723E+01 -0.30168498783E+02  0.29322366866E+01  0.31804261949E+02  0.00000000000E+00 0.  1.
<mgrwt>
<rscale>  2 0.76246945E+02</rscale>
<asrwt>0</asrwt>
<pdfrwt beam="1">  1       21 0.58890239E-02 0.76246945E+02</pdfrwt>
<pdfrwt beam="2">  1       21 0.36706607E-01 0.76246945E+02</pdfrwt>
<totfact> 0.14352810E+06</totfact>
</mgrwt>
</event>
<event>
 5    1  0.1590180E+000  0.7980687E+02  0.7546771E-02  0.1329600E+00
         21   -1    0    0  503  502  0.00000000000E+00  0.00000000000E+00  0.74165368467E+02  0.74165368467E+02  0.00000000000E+00 0.  1.
         21   -1    0    0  501  503 -0.00000000000E+00 -0.00000000000E+00 -0.86098059581E+02  0.86098059581E+02  0.00000000000E+00 0.  1.
         24    1    1    2    0    0  0.39368938082E+02  0.18614082504E+02 -0.84749731616E+01  0.91844643162E+02  0.80419002446E+02 0.  1.
          1    1    1    2  501    0 -0.20284540498E+02 -0.36658640467E+02 -0.44738149561E+01  0.42134706886E+02  0.00000000000E+00 0. -1.
         -2    1    1    2    0  502 -0.19084397584E+02  0.18044557963E+02  0.10160970032E+01  0.26284078000E+02  0.00000000000E+00 0.  1.
<mgrwt>
<rscale>  2 0.79806872E+02</rscale>
<asrwt>0</asrwt>
<pdfrwt beam="1">  1       21 0.11410057E-01 0.79806872E+02</pdfrwt>
<pdfrwt beam="2">  1       21 0.13245855E-01 0.79806872E+02</pdfrwt>
<totfact> 0.30526541E+06</totfact>
</mgrwt>
</event>
<event>
 5    1  0.1590180E+000  0.1102459E+03  0.7546771E-02  0.1260115E+00
         21   -1    0    0  503  502  0.00000000000E+00  0.00000000000E+00  0.11051769531E+03  0.11051769531E+03  0.00000000000E+00 0. -1.
         21   -1    0    0  501  503 -0.00000000000E+00 -0.00000000000E+00 -0.20878331368E+03  0.20878331368E+03  0.00000000000E+00 0. -1.
         24    1    1    2    0    0  0.22825414598E+02  0.38480860710E+02  0.32994739322E+02  0.97763208672E+02  0.80419002446E+02 0. -1.
          1    1    1    2  501    0 -0.34663818585E+02 -0.78989920950E+02 -0.15180325175E+03  0.17460015799E+03  0.00000000000E+00 0. -1.
         -2    1    1    2    0  502  0.11838403987E+02  0.40509060240E+02  0.20542894059E+02  0.46937642323E+02  0.00000000000E+00 0.  1.
<mgrwt>
<rscale>  2 0.11024587E+03</rscale>
<asrwt>0</asrwt>
<pdfrwt beam="1">  1       21 0.17002722E-01 0.11024587E+03</pdfrwt>
<pdfrwt beam="2">  1       21 0.32120510E-01 0.11024587E+03</pdfrwt>
<totfact> 0.29574594E+05</totfact>
</mgrwt>
</event>
<event>
 5    1  0.1590180E+000  0.7252721E+02  0.7546771E-02  0.1351704E+00
         21   -1    0    0  503  502  0.00000000000E+00  0.00000000000E+00  0.18797605355E+04  0.18797605355E+04  0.00000000000E+00 0. -1.
         21   -1    0    0  501  503 -0.00000000000E+00 -0.00000000000E+00 -0.31794774700E+01  0.31794774700E+01  0.00000000000E+00 0.  1.
         24    1    1    2    0    0  0.28550882426E+02 -0.21381887361E+01  0.10001690943E+04  0.10038053387E+04  0.80419002446E+02 0.  1.
          1    1    1    2  501    0 -0.34304810871E+02 -0.18004454525E+02  0.32126579493E+03  0.32359340448E+03  0.00000000000E+00 0. -1.
         -2    1    1    2    0  502  0.57539284449E+01  0.20142643261E+02  0.55514616874E+03  0.55554126979E+03  0.00000000000E+00 0.  1.
<mgrwt>
<rscale>  2 0.72527214E+02</rscale>
<asrwt>0</asrwt>
<pdfrwt beam="1">  1       21 0.28919304E+00 0.72527214E+02</pdfrwt>
<pdfrwt beam="2">  1       21 0.48915188E-03 0.72527214E+02</pdfrwt>
<totfact> 0.50325853E+05</totfact>
</mgrwt>
</event>
<event>
 5    1  0.1590180E+000  0.8202252E+02  0.7546771E-02  0.1323408E+00
         21   -1    0    0  501  502  0.00000000000E+00  0.00000000000E+00  0.72197532389E+03  0.72197532389E+03  0.00000000000E+00 0.  1.
         21   -1    0    0  502  503 -0.00000000000E+00 -0.00000000000E+00 -0.10150101412E+02  0.10150101412E+02  0.00000000000E+00 0.  1.
         24    1    1    2    0    0 -0.23773036148E+02 -0.46096544714E+02  0.50842603098E+03  0.51735316141E+03  0.80419002446E+02 0.  1.
          1    1    1    2  501    0 -0.11778133669E+02  0.23332271094E+02  0.64323074260E+02  0.69430376561E+02  0.00000000000E+00 0. -1.
         -2    1    1    2    0  503  0.35551169818E+02  0.22764273620E+02  0.13907611723E+03  0.14534188733E+03  0.00000000000E+00 0.  1.
<mgrwt>
<rscale>  2 0.82022525E+02</rscale>
<asrwt>0</asrwt>
<pdfrwt beam="1">  1       21 0.11107309E+00 0.82022525E+02</pdfrwt>
<pdfrwt beam="2">  1       21 0.15615546E-02 0.82022525E+02</pdfrwt>
<totfact> 0.11761494E+06</totfact>
</mgrwt>
</event>
<event>
 5    1  0.2196460E+000  0.9514175E+02  0.7546771E-02  0.1290857E+00
         21   -1    0    0  501  502  0.00000000000E+00  0.00000000000E+00  0.97125397813E+02  0.97125397813E+02  0.00000000000E+00 0.  1.
         21   -1    0    0  502  503 -0.00000000000E+00 -0.00000000000E+00 -0.10199158125E+04  0.10199158125E+04  0.00000000000E+00 0.  1.
         24    1    1    2    0    0  0.32898046147E+02 -0.23208201734E+02 -0.29842235018E+02  0.94755881154E+02  0.80419002446E+02 0.  0.
          1    1    1    2  501    0 -0.59122825416E+02  0.37960398481E+02  0.45272105339E+02  0.83582676793E+02  0.00000000000E+00 0. -1.
         -2    1    1    2    0  503  0.26224779269E+02 -0.14752196747E+02 -0.93822028505E+03  0.93870265240E+03  0.00000000000E+00 0.  1.
<mgrwt>
<rscale>  2 0.95141752E+02</rscale>
<asrwt>0</asrwt>
<pdfrwt beam="1">  1       21 0.14942368E-01 0.95141752E+02</pdfrwt>
<pdfrwt beam="2">  1       21 0.15691013E+00 0.95141752E+02</pdfrwt>
<totfact> 0.11501398E+04</totfact>
</mgrwt>
</event>
<event>
 5    1  0.1590180E+000  0.7488064E+02  0.7546771E-02  0.1344241E+00
         21   -1    0    0  503  502  0.00000000000E+00  0.00000000000E+00  0.11750932044E+02  0.11750932044E+02  0.00000000000E+00 0. -1.
         21   -1    0    0  501  503 -0.00000000000E+00 -0.00000000000E+00 -0.77798466458E+03  0.77798466458E+03  0.00000000000E+00 0. -1.
         24    1    1    2    0    0  0.22363781520E+02 -0.92692485182E+01 -0.25059402821E+03  0.26429271768E+03  0.80419002446E+02 0. -1.
          1    1    1    2  501    0 -0.37172334156E+02  0.24511349347E+02 -0.49053295838E+03  0.49254966443E+03  0.00000000000E+00 0. -1.
         -2    1    1    2    0  502  0.14808552636E+02 -0.15242100829E+02 -0.25106745948E+02  0.32893214513E+02  0.00000000000E+00 0.  1.
<mgrwt>
<rscale>  2 0.74880636E+02</rscale>
<asrwt>0</asrwt>
<pdfrwt beam="1">  1       21 0.18078353E-02 0.74880636E+02</pdfrwt>
<pdfrwt beam="2">  1       21 0.11968997E+00 0.74880636E+02</pdfrwt>
<totfact> 0.78097256E+05</totfact>
</mgrwt>
</event>
<event>
 5    1  0.1590180E+000  0.1222951E+03  0.7546771E-02  0.1239358E+00
         21   -1    0    0  503  502  0.00000000000E+00  0.00000000000E+00  0.64558360047E+03  0.64558360047E+03  0.00000000000E+00 0.  1.
         21   -1    0    0  501  503 -0.00000000000E+00 -0.00000000000E+00 -0.34600257965E+02  0.34600257965E+02  0.00000000000E+00 0.  1.
         24    1    1    2    0    0 -0.64051684729E+02 -0.82340427806E+02  0.19824153148E+03  0.23801152309E+03  0.80419002446E+02 0.  1.
          1    1    1    2  501    0  0.71738102303E+00  0.31893728604E+02  0.13227268268E+02  0.34535274512E+02  0.00000000000E+00 0. -1.
         -2    1    1    2    0  502  0.63334303706E+02  0.50446699202E+02  0.39951454276E+03  0.40763706083E+03  0.00000000000E+00 0.  1.
<mgrwt>
<rscale>  2 0.12229506E+03</rscale>
<asrwt>0</asrwt>
<pdfrwt beam="1">  1       21 0.99320545E-01 0.12229506E+03</pdfrwt>
<pdfrwt beam="2">  1       21 0.53231171E-02 0.12229506E+03</pdfrwt>
<totfact> 0.20632031E+05</totfact>
</mgrwt>
</event>
<event>
 5    1  0.1590180E+000  0.8524830E+02  0.7546771E-02  0.1314784E+00
         21   -1    0    0  501  502  0.00000000000E+00  0.00000000000E+00  0.23577512965E+03  0.23577512965E+03  0.00000000000E+00 0. -1.
         21   -1    0    0  502  503 -0.00000000000E+00 -0.00000000000E+00 -0.75138747136E+02  0.75138747136E+02  0.00000000000E+00 0. -1.
         24    1    1    2    0    0  0.33238407031E+02  0.21940995858E+02  0.12844704406E+02  0.90655399105E+02  0.80419002446E+02 0. -1.
          1    1    1    2  501    0  0.12912527042E+02  0.16317811175E+02  0.15807251685E+03  0.15943627222E+03  0.00000000000E+00 0. -1.
         -2    1    1    2    0  503 -0.46150934073E+02 -0.38258807033E+02 -0.10280838746E+02  0.60822205458E+02  0.00000000000E+00 0.  1.
<mgrwt>
<rscale>  2 0.85248298E+02</rscale>
<asrwt>0</asrwt>
<pdfrwt beam="1">  1       21 0.36273097E-01 0.85248298E+02</pdfrwt>
<pdfrwt beam="2">  1       21 0.11559807E-01 0.85248298E+02</pdfrwt>
<totfact> 0.46531772E+05</totfact>
</mgrwt>
</event>
<event>
 5    1  0.1590180E+000  0.9091233E+02  0.7546771E-02  0.1300657E+00
         21   -1    0    0  503  502  0.00000000000E+00  0.00000000000E+00  0.13764291299E+03  0.13764291299E+03  0.00000000000E+00 0.  1.
         21   -1    0    0  501  503 -0.00000000000E+00 -0.00000000000E+00 -0.11963665579E+03  0.11963665579E+03  0.00000000000E+00 0.  1.
         24    1    1    2    0    0 -0.38019226697E+02  0.15925231641E+02 -0.76187932785E+02  0.11819852646E+03  0.80419002446E+02 0.  1.
          1    1    1    2  501    0 -0.12642123477E+02  0.23885796735E+02  0.26768162125E+01  0.27157317921E+02  0.00000000000E+00 0. -1.
         -2    1    1    2    0  502  0.50661350174E+02 -0.39811028376E+02  0.91517373771E+02  0.11192372440E+03  0.00000000000E+00 0.  1.
<mgrwt>
<rscale>  2 0.90912332E+02</rscale>
<asrwt>0</asrwt>
<pdfrwt beam="1">  1       21 0.21175833E-01 0.90912332E+02</pdfrwt>
<pdfrwt beam="2">  1       21 0.18405639E-01 0.90912332E+02</pdfrwt>
<totfact> 0.56299134E+05</totfact>
</mgrwt>
</event>
<event>
 5    1  0.1590180E+000  0.7430214E+02  0.7546771E-02  0.1346046E+00
         21   -1    0    0  503  502  0.00000000000E+00  0.00000000000E+00  0.10953737054E+03  0.10953737054E+03  0.00000000000E+00 0. -1.
         21   -1    0    0  501  503 -0.00000000000E+00 -0.00000000000E+00 -0.78793016627E+02  0.78793016627E+02  0.00000000000E+00 0. -1.
         24    1    1    2    0    0  0.13345315630E+02 -0.43876288096E+02  0.60353202412E+02  0.11051222151E+03  0.80419002446E+02 0. -1.
          1    1    1    2  501    0  0.91999890161E+01  0.24947157551E+02 -0.38748300412E+02  0.46993949106E+02  0.00000000000E+00 0. -1.
         -2    1    1    2    0  502 -0.22545304646E+02  0.18929130545E+02  0.91394519077E+01  0.30824216551E+02  0.00000000000E+00 0.  1.
<mgrwt>
<rscale>  2 0.74302140E+02</rscale>
<asrwt>0</asrwt>
<pdfrwt beam="1">  1       21 0.16851903E-01 0.74302140E+02</pdfrwt>
<pdfrwt beam="2">  1       21 0.12122003E-01 0.74302140E+02</pdfrwt>
<totfact> 0.17845436E+06</totfact>
</mgrwt>
</event>
<event>
 5    1  0.1590180E+000  0.1036520E+03  0.7546771E-02  0.1272798E+00
         21   -1    0    0  501  502  0.00000000000E+00  0.00000000000E+00  0.30126329575E+03  0.30126329575E+03  0.00000000000E+00 0. -1.
         21   -1    0    0  502  503 -0.00000000000E+00 -0.00000000000E+00 -0.15153516567E+03  0.15153516567E+03  0.00000000000E+00 0. -1.
         24    1    1    2    0    0 -0.14730621995E+02 -0.71351912155E+02 -0.11688510633E+03  0.15949116160E+03  0.80419002446E+02 0. -1.
          1    1    1    2  501    0  0.19885839090E+02 -0.63823593169E+01  0.15948851579E+03  0.16085014074E+03  0.00000000000E+00 0. -1.
         -2    1    1    2    0  503 -0.51552170944E+01  0.77734271472E+02  0.10712472061E+03  0.13245715908E+03  0.00000000000E+00 0.  1.
<mgrwt>
<rscale>  2 0.10365202E+03</rscale>
<asrwt>0</asrwt>
<pdfrwt beam="1">  1       21 0.46348199E-01 0.10365202E+03</pdfrwt>
<pdfrwt beam="2">  1       21 0.23313103E-01 0.10365202E+03</pdfrwt>
<totfact> 0.80265120E+04</totfact>
</mgrwt>
</event>
<event>
 5    1  0.1590180E+000  0.1106963E+03  0.7546771E-02  0.1259286E+00
         21   -1    0    0  503  502  0.00000000000E+00  0.00000000000E+00  0.10017275321E+04  0.10017275321E+04  0.00000000000E+00 0. -1.
         21   -1    0    0  501  503 -0.00000000000E+00 -0.00000000000E+00 -0.15097463258E+02  0.15097463258E+02  0.00000000000E+00 0.  1.
         24    1    1    2    0    0  0.49674277080E+02 -0.17117073947E+01  0.62399697568E+03  0.63111798053E+03  0.80419002446E+02 0. -1.
          1    1    1    2  501    0  0.37755542077E+02 -0.88755711559E+01  0.69025065537E+02  0.79175225881E+02  0.00000000000E+00 0. -1.
         -2    1    1    2    0  502 -0.87429819157E+02  0.10587278551E+02  0.29360802763E+03  0.30653178895E+03  0.00000000000E+00 0.  1.
<mgrwt>
<rscale>  2 0.11069628E+03</rscale>
<asrwt>0</asrwt>
<pdfrwt beam="1">  1       21 0.15411188E+00 0.11069628E+03</pdfrwt>
<pdfrwt beam="2">  1       21 0.23226874E-02 0.11069628E+03</pdfrwt>
<totfact> 0.27656647E+05</totfact>
</mgrwt>
</event>
<event>
 5    1  0.1590180E+000  0.6954969E+02  0.7546771E-02  0.1361631E+00
         21   -1    0    0  503  502  0.00000000000E+00  0.00000000000E+00  0.31683523122E+02  0.31683523122E+02  0.00000000000E+00 0. -1.
         21   -1    0    0  501  503 -0.00000000000E+00 -0.00000000000E+00 -0.15389061531E+03  0.15389061531E+03  0.00000000000E+00 0. -1.
         24    1    1    2    0    0  0.96755567633E+01  0.27373683629E+02 -0.79955765435E+02  0.11706013555E+03  0.80419002446E+02 0.  0.
          1    1    1    2  501    0  0.18156492261E+02 -0.12495209242E+02 -0.21173615980E+02  0.30563221016E+02  0.00000000000E+00 0. -1.
         -2    1    1    2    0  502 -0.27832049024E+02 -0.14878474386E+02 -0.21077710775E+02  0.37950781869E+02  0.00000000000E+00 0.  1.
<mgrwt>
<rscale>  2 0.69549685E+02</rscale>
<asrwt>0</asrwt>
<pdfrwt beam="1">  1       21 0.48743882E-02 0.69549685E+02</pdfrwt>
<pdfrwt beam="2">  1       21 0.23675479E-01 0.69549685E+02</pdfrwt>
<totfact> 0.44859065E+06</totfact>
</mgrwt>
</event>
<event>
 5    1  0.1590180E+000  0.7664584E+02  0.7546771E-02  0.1338849E+00
         21   -1    0    0  503  502  0.00000000000E+00  0.00000000000E+00  0.11722092312E+04  0.11722092312E+04  0.00000000000E+00 0. -1.
         21   -1    0    0  501  503 -0.00000000000E+00 -0.00000000000E+00 -0.24459900552E+02  0.24459900552E+02  0.00000000000E+00 0. -1.
         24    1    1    2    0    0 -0.18604647822E+02  0.64973301266E+01  0.99514286708E+03  0.99858143888E+03  0.80419002446E+02 0. -1.
          1    1    1    2  501    0 -0.10735544438E+02  0.25145369866E+02 -0.10561402201E+02  0.29310147671E+02  0.00000000000E+00 0. -1.
         -2    1    1    2    0  502  0.29340192260E+02 -0.31642699992E+02  0.16316786576E+03  0.16877754519E+03  0.00000000000E+00 0.  1.
<mgrwt>
<rscale>  2 0.76645841E+02</rscale>
<asrwt>0</asrwt>
<pdfrwt beam="1">  1       21 0.18033984E+00 0.76645841E+02</pdfrwt>
<pdfrwt beam="2">  1       21 0.37630625E-02 0.76645841E+02</pdfrwt>
<totfact> 0.85201689E+04</totfact>
</mgrwt>
</event>
<event>
 5    1  0.1590180E+000  0.7884267E+02  0.7546771E-02  0.1332368E+00
         21   -1    0    0  503  502  0.00000000000E+00  0.00000000000E+00  0.35870110645E+02  0.35870110645E+02  0.00000000000E+00 0. -1.
         21   -1    0    0  501  503 -0.00000000000E+00 -0.00000000000E+00 -0.35526722146E+03  0.35526722146E+03  0.00000000000E+00 0. -1.
         24    1    1    2    0    0  0.41128947399E+02  0.20238005617E+02 -0.51443969382E+02  0.10590026027E+03  0.80419002446E+02 0. -1.
          1    1    1    2  501    0 -0.79161768820E+01 -0.29577764584E+02 -0.23674062766E+03  0.23871245212E+03  0.00000000000E+00 0. -1.
         -2    1    1    2    0  502 -0.33212770517E+02  0.93397589672E+01 -0.31212513771E+02  0.46524619707E+02  0.00000000000E+00 0.  1.
<mgrwt>
<rscale>  2 0.78842675E+02</rscale>
<asrwt>0</asrwt>
<pdfrwt beam="1">  1       21 0.55184788E-02 0.78842675E+02</pdfrwt>
<pdfrwt beam="2">  1       21 0.54656494E-01 0.78842675E+02</pdfrwt>
<totfact> 0.72153349E+05</totfact>
</mgrwt>
</event>
<event>
 5    1  0.1590180E+000  0.9456234E+02  0.7546771E-02  0.1292165E+00
         21   -1    0    0  503  502  0.00000000000E+00  0.00000000000E+00  0.26400126098E+04  0.26400126098E+04  0.00000000000E+00 0.  1.
         21   -1    0    0  501  503 -0.00000000000E+00 -0.00000000000E+00 -0.85180235869E+01  0.85180235869E+01  0.00000000000E+00 0.  1.
         24    1    1    2    0    0 -0.62355289120E+02 -0.22122807570E+01  0.61328150014E+03  0.62167072525E+03  0.80419002446E+02 0.  1.
          1    1    1    2  501    0  0.37469838912E+02  0.31468180345E+02  0.14090854500E+03  0.14916250621E+03  0.00000000000E+00 0. -1.
         -2    1    1    2    0  502  0.24885450209E+02 -0.29255899588E+02  0.18773045411E+04  0.18776974019E+04  0.00000000000E+00 0.  1.
<mgrwt>
<rscale>  2 0.94562344E+02</rscale>
<asrwt>0</asrwt>
<pdfrwt beam="1">  1       21 0.40615513E+00 0.94562344E+02</pdfrwt>
<pdfrwt beam="2">  1       21 0.13104673E-02 0.94562344E+02</pdfrwt>
<totfact> 0.22880069E+04</totfact>
</mgrwt>
</event>
<event>
 5    1  0.1590180E+000  0.8686369E+02  0.7546771E-02  0.1310630E+00
         21   -1    0    0  503  502  0.00000000000E+00  0.00000000000E+00  0.20290869066E+02  0.20290869066E+02  0.00000000000E+00 0. -1.
         21   -1    0    0  501  503 -0.00000000000E+00 -0.00000000000E+00 -0.22669596539E+04  0.22669596539E+04  0.00000000000E+00 0. -1.
         24    1    1    2    0    0  0.51181386291E+02 -0.24580025497E+02 -0.77565956385E+03  0.78188150439E+03  0.80419002446E+02 0.  0.
          1    1    1    2  501    0 -0.27449135397E+01  0.26662712625E+02 -0.14536146241E+04  0.14538617232E+04  0.00000000000E+00 0. -1.
         -2    1    1    2    0  502 -0.48436472752E+02 -0.20826871283E+01 -0.17394596914E+02  0.51507295407E+02  0.00000000000E+00 0.  1.
<mgrwt>
<rscale>  2 0.86863686E+02</rscale>
<asrwt>0</asrwt>
<pdfrwt beam="1">  1       21 0.31216744E-02 0.86863686E+02</pdfrwt>
<pdfrwt beam="2">  1       21 0.34876277E+00 0.86863686E+02</pdfrwt>
<totfact> 0.12559260E+04</totfact>
</mgrwt>
</event>
<event>
 5    1  0.1590180E+000  0.7035826E+02  0.7546771E-02  0.1358879E+00
         21   -1    0    0  503  502  0.00000000000E+00  0.00000000000E+00  0.73426224659E+02  0.73426224659E+02  0.00000000000E+00 0.  1.
         21   -1    0    0  501  503 -0.00000000000E+00 -0.00000000000E+00 -0.14523517268E+03  0.14523517268E+03  0.00000000000E+00 0.  1.
         24    1    1    2    0    0 -0.76317010748E+01 -0.17109842640E+02 -0.75917738779E+02  0.11216821561E+03  0.80419002446E+02 0.  1.
          1    1    1    2  501    0 -0.23915457401E+02  0.91688871976E+01 -0.42519702393E+02  0.49638117277E+02  0.00000000000E+00 0. -1.
         -2    1    1    2    0  502  0.31547158476E+02  0.79409554421E+01  0.46628493149E+02  0.56855064459E+02  0.00000000000E+00 0.  1.
<mgrwt>
<rscale>  2 0.70358256E+02</rscale>
<asrwt>0</asrwt>
<pdfrwt beam="1">  1       21 0.11296342E-01 0.70358256E+02</pdfrwt>
<pdfrwt beam="2">  1       21 0.22343873E-01 0.70358256E+02</pdfrwt>
<totfact> 0.12068925E+06</totfact>
</mgrwt>
</event>
<event>
 5    1  0.1590180E+000  0.9202159E+02  0.7546771E-02  0.1298029E+00
         21   -1    0    0  503  502  0.00000000000E+00  0.00000000000E+00  0.48658741324E+02  0.48658741324E+02  0.00000000000E+00 0.  1.
         21   -1    0    0  501  503 -0.00000000000E+00 -0.00000000000E+00 -0.50501711883E+03  0.50501711883E+03  0.00000000000E+00 0.  1.
         24    1    1    2    0    0 -0.56484794282E+02 -0.30959543964E+02 -0.26326693183E+03  0.28271136995E+03  0.80419002446E+02 0.  1.
          1    1    1    2  501    0 -0.20406537729E+01  0.21650976850E+02 -0.20858172369E+03  0.20971233755E+03  0.00000000000E+00 0. -1.
         -2    1    1    2    0  502  0.58525448055E+02  0.93085671140E+01  0.15490278011E+02  0.61252152653E+02  0.00000000000E+00 0.  1.
<mgrwt>
<rscale>  2 0.92021587E+02</rscale>
<asrwt>0</asrwt>
<pdfrwt beam="1">  1       21 0.74859604E-02 0.92021587E+02</pdfrwt>
<pdfrwt beam="2">  1       21 0.77694940E-01 0.92021587E+02</pdfrwt>
<totfact> 0.20397467E+05</totfact>
</mgrwt>
</event>
<event>
 5    1  0.1590180E+000  0.1019478E+03  0.7546771E-02  0.1276253E+00
         21   -1    0    0  501  502  0.00000000000E+00  0.00000000000E+00  0.35180139696E+03  0.35180139696E+03  0.00000000000E+00 0.  1.
         21   -1    0    0  502  503 -0.00000000000E+00 -0.00000000000E+00 -0.41765568782E+02  0.41765568782E+02  0.00000000000E+00 0.  1.
         24    1    1    2    0    0  0.55317747627E+02 -0.39809020056E+02  0.18617104945E+03  0.21394318612E+03  0.80419002446E+02 0.  1.
          1    1    1    2  501    0 -0.20582388886E+02 -0.20395257649E+02  0.10308200263E+03  0.10707707754E+03  0.00000000000E+00 0. -1.
         -2    1    1    2    0  503 -0.34735358741E+02  0.60204277705E+02  0.20782776094E+02  0.72546702083E+02  0.00000000000E+00 0.  1.
<mgrwt>
<rscale>  2 0.10194780E+03</rscale>
<asrwt>0</asrwt>
<pdfrwt beam="1">  1       21 0.54123290E-01 0.10194780E+03</pdfrwt>
<pdfrwt beam="2">  1       21 0.64254724E-02 0.10194780E+03</pdfrwt>
<totfact> 0.57087234E+05</totfact>
</mgrwt>
</event>
<event>
 5    1  0.1590180E+000  0.1795612E+03  0.7546771E-02  0.1168228E+00
         21   -1    0    0  503  502  0.00000000000E+00  0.00000000000E+00  0.71841609758E+03  0.71841609758E+03  0.00000000000E+00 0. -1.
         21   -1    0    0  501  503 -0.00000000000E+00 -0.00000000000E+00 -0.66473782924E+02  0.66473782924E+02  0.00000000000E+00 0.  1.
         24    1    1    2    0    0 -0.64321717632E+02 -0.48074183416E+02  0.18406295393E+03  0.21632105176E+03  0.80419002446E+02 0. -1.
          1    1    1    2  501    0 -0.87470462269E+02  0.30657150934E+02  0.19289611634E+02  0.94673289739E+02  0.00000000000E+00 0. -1.
         -2    1    1    2    0  502  0.15179217990E+03  0.17417032482E+02  0.44858974910E+03  0.47389553901E+03  0.00000000000E+00 0.  1.
<mgrwt>
<rscale>  2 0.17956121E+03</rscale>
<asrwt>0</asrwt>
<pdfrwt beam="1">  1       21 0.11052555E+00 0.17956121E+03</pdfrwt>
<pdfrwt beam="2">  1       21 0.10226736E-01 0.17956121E+03</pdfrwt>
<totfact> 0.50688556E+04</totfact>
</mgrwt>
</event>
<event>
 5    1  0.1590180E+000  0.8308501E+02  0.7546771E-02  0.1320518E+00
         21   -1    0    0  503  502  0.00000000000E+00  0.00000000000E+00  0.55553663933E+02  0.55553663933E+02  0.00000000000E+00 0.  1.
         21   -1    0    0  501  503 -0.00000000000E+00 -0.00000000000E+00 -0.29645395442E+03  0.29645395442E+03  0.00000000000E+00 0. -1.
         24    1    1    2    0    0 -0.62038156608E+02  0.68535209527E+01 -0.13771021634E+03  0.17125134529E+03  0.80419002446E+02 0.  1.
          1    1    1    2  501    0  0.40799096594E+02  0.30983549287E+01 -0.13509624257E+03  0.14115651186E+03  0.00000000000E+00 0. -1.
         -2    1    1    2    0  502  0.21239060014E+02 -0.99518758814E+01  0.31906168418E+02  0.39599761198E+02  0.00000000000E+00 0.  1.
<mgrwt>
<rscale>  2 0.83085006E+02</rscale>
<asrwt>0</asrwt>
<pdfrwt beam="1">  1       21 0.85467175E-02 0.83085006E+02</pdfrwt>
<pdfrwt beam="2">  1       21 0.45608301E-01 0.83085006E+02</pdfrwt>
<totfact> 0.49844504E+05</totfact>
</mgrwt>
</event>
<event>
 5    1  0.1590180E+000  0.1188505E+03  0.7546771E-02  0.1245006E+00
         21   -1    0    0  501  502  0.00000000000E+00  0.00000000000E+00  0.79765431819E+03  0.79765431819E+03  0.00000000000E+00 0.  1.
         21   -1    0    0  502  503 -0.00000000000E+00 -0.00000000000E+00 -0.24269608619E+02  0.24269608619E+02  0.00000000000E+00 0. -1.
         24    1    1    2    0    0  0.93478658910E+02 -0.47306068422E+02  0.32074195325E+03  0.34686991842E+03  0.80419002446E+02 0. -1.
          1    1    1    2  501    0 -0.21279561127E+02  0.17368399700E+02  0.31939875377E+03  0.32057767381E+03  0.00000000000E+00 0. -1.
         -2    1    1    2    0  503 -0.72199097783E+02  0.29937668723E+02  0.13324400255E+03  0.15447633458E+03  0.00000000000E+00 0.  1.
<mgrwt>
<rscale>  2 0.11885049E+03</rscale>
<asrwt>0</asrwt>
<pdfrwt beam="1">  1       21 0.12271603E+00 0.11885049E+03</pdfrwt>
<pdfrwt beam="2">  1       21 0.37337866E-02 0.11885049E+03</pdfrwt>
<totfact> 0.22517062E+05</totfact>
</mgrwt>
</event>
<event>
 5    1  0.1590180E+000  0.7477924E+02  0.7546771E-02  0.1344556E+00
         21   -1    0    0  501  502  0.00000000000E+00  0.00000000000E+00  0.53594235521E+02  0.53594235521E+02  0.00000000000E+00 0.  1.
         21   -1    0    0  502  503 -0.00000000000E+00 -0.00000000000E+00 -0.13964978629E+03  0.13964978629E+03  0.00000000000E+00 0.  1.
         24    1    1    2    0    0  0.14019462338E+02  0.29156532224E+02 -0.98372840736E+00  0.86688132818E+02  0.80419002446E+02 0.  1.
          1    1    1    2  501    0 -0.20554164022E+02  0.10224239583E+02 -0.21274978090E+02  0.31299096256E+02  0.00000000000E+00 0. -1.
         -2    1    1    2    0  503  0.65347016840E+01 -0.39380771808E+02 -0.63796844275E+02  0.75256792742E+02  0.00000000000E+00 0.  1.
<mgrwt>
<rscale>  2 0.74779242E+02</rscale>
<asrwt>0</asrwt>
<pdfrwt beam="1">  1       21 0.82452671E-02 0.74779242E+02</pdfrwt>
<pdfrwt beam="2">  1       21 0.21484582E-01 0.74779242E+02</pdfrwt>
<totfact> 0.22335551E+06</totfact>
</mgrwt>
</event>
<event>
 5    1  0.1590180E+000  0.8290077E+02  0.7546771E-02  0.1321015E+00
         21   -1    0    0  501  502  0.00000000000E+00  0.00000000000E+00  0.92477030709E+02  0.92477030709E+02  0.00000000000E+00 0. -1.
         21   -1    0    0  502  503 -0.00000000000E+00 -0.00000000000E+00 -0.15501852525E+03  0.15501852525E+03  0.00000000000E+00 0. -1.
         24    1    1    2    0    0 -0.15077936091E+02 -0.36915105334E+00 -0.81236298088E+02  0.11529975070E+03  0.80419002446E+02 0. -1.
          1    1    1    2  501    0  0.34022233525E+01  0.41288236117E+02  0.59986944113E+02  0.72902174380E+02  0.00000000000E+00 0. -1.
         -2    1    1    2    0  503  0.11675712739E+02 -0.40919085064E+02 -0.41292140562E+02  0.59293630877E+02  0.00000000000E+00 0.  1.
<mgrwt>
<rscale>  2 0.82900773E+02</rscale>
<asrwt>0</asrwt>
<pdfrwt beam="1">  1       21 0.14227235E-01 0.82900773E+02</pdfrwt>
<pdfrwt beam="2">  1       21 0.23849004E-01 0.82900773E+02</pdfrwt>
<totfact> 0.71671687E+05</totfact>
</mgrwt>
</event>
<event>
 5    1  0.1590180E+000  0.6993070E+02  0.7546771E-02  0.1360329E+00
         21   -1    0    0  501  502  0.00000000000E+00  0.00000000000E+00  0.10825543956E+03  0.10825543956E+03  0.00000000000E+00 0.  1.
         21   -1    0    0  502  503 -0.00000000000E+00 -0.00000000000E+00 -0.46241008283E+02  0.46241008283E+02  0.00000000000E+00 0. -1.
         24    1    1    2    0    0  0.21888025851E+02 -0.33216410123E+01  0.36323519430E+02  0.90976551885E+02  0.80419002446E+02 0.  0.
          1    1    1    2  501    0 -0.32050025616E+02 -0.15087048667E+02  0.23202381861E+02  0.42345881777E+02  0.00000000000E+00 0. -1.
         -2    1    1    2    0  503  0.10161999765E+02  0.18408689679E+02  0.24885299829E+01  0.21174014178E+02  0.00000000000E+00 0.  1.
<mgrwt>
<rscale>  2 0.69930697E+02</rscale>
<asrwt>0</asrwt>
<pdfrwt beam="1">  1       21 0.16654683E-01 0.69930697E+02</pdfrwt>
<pdfrwt beam="2">  1       21 0.71140013E-02 0.69930697E+02</pdfrwt>
<totfact> 0.45263713E+06</totfact>
</mgrwt>
</event>
<event>
 5    1  0.1590180E+000  0.1432618E+03  0.7546771E-02  0.1209006E+00
         21   -1    0    0  503  502  0.00000000000E+00  0.00000000000E+00  0.88774518510E+02  0.88774518510E+02  0.00000000000E+00 0.  1.
         21   -1    0    0  501  503 -0.00000000000E+00 -0.00000000000E+00 -0.53052462268E+03  0.53052462268E+03  0.00000000000E+00 0.  1.
         24    1    1    2    0    0 -0.83966125411E+02  0.10160199200E+03 -0.15265050836E+03  0.21712362528E+03  0.80419002446E+02 0.  1.
          1    1    1    2  501    0  0.34924221751E+02 -0.49358845461E+02 -0.31889197901E+03  0.32457370684E+03  0.00000000000E+00 0. -1.
         -2    1    1    2    0  502  0.49041903659E+02 -0.52243146538E+02  0.29792383209E+02  0.77601809077E+02  0.00000000000E+00 0.  1.
<mgrwt>
<rscale>  2 0.14326181E+03</rscale>
<asrwt>0</asrwt>
<pdfrwt beam="1">  1       21 0.13657619E-01 0.14326181E+03</pdfrwt>
<pdfrwt beam="2">  1       21 0.81619170E-01 0.14326181E+03</pdfrwt>
<totfact> 0.62561574E+04</totfact>
</mgrwt>
</event>
<event>
 5    1  0.1590180E+000  0.1230325E+03  0.7546771E-02  0.1238177E+00
         21   -1    0    0  503  502  0.00000000000E+00  0.00000000000E+00  0.10490320062E+03  0.10490320062E+03  0.00000000000E+00 0.  1.
         21   -1    0    0  501  503 -0.00000000000E+00 -0.00000000000E+00 -0.18751027800E+03  0.18751027800E+03  0.00000000000E+00 0. -1.
         24    1    1    2    0    0  0.89445154654E+02  0.28325008277E+02  0.25642109090E+02  0.12620410254E+03  0.80419002446E+02 0.  0.
          1    1    1    2  501    0 -0.10074610324E+03 -0.10370663598E+02 -0.10279264446E+03  0.14430403922E+03  0.00000000000E+00 0. -1.
         -2    1    1    2    0  502  0.11300948590E+02 -0.17954344678E+02 -0.54565420187E+01  0.21905336853E+02  0.00000000000E+00 0.  1.
<mgrwt>
<rscale>  2 0.12303249E+03</rscale>
<asrwt>0</asrwt>
<pdfrwt beam="1">  1       21 0.16138954E-01 0.12303249E+03</pdfrwt>
<pdfrwt beam="2">  1       21 0.28847735E-01 0.12303249E+03</pdfrwt>
<totfact> 0.39903637E+05</totfact>
</mgrwt>
</event>
<event>
 5    1  0.1590180E+000  0.7891316E+02  0.7546771E-02  0.1332164E+00
         21   -1    0    0  503  502  0.00000000000E+00  0.00000000000E+00  0.13865098680E+03  0.13865098680E+03  0.00000000000E+00 0.  1.
         21   -1    0    0  501  503 -0.00000000000E+00 -0.00000000000E+00 -0.48019604650E+02  0.48019604650E+02  0.00000000000E+00 0.  1.
         24    1    1    2    0    0 -0.18485519395E+02 -0.54288048274E+02  0.54605973504E+02  0.11286246014E+03  0.80419002446E+02 0.  1.
          1    1    1    2  501    0  0.14829436711E+02  0.21833754141E+02  0.17309327616E+01  0.26450352384E+02  0.00000000000E+00 0. -1.
         -2    1    1    2    0  502  0.36560826842E+01  0.32454294134E+02  0.34294475880E+02  0.47357778919E+02  0.00000000000E+00 0.  1.
<mgrwt>
<rscale>  2 0.78913160E+02</rscale>
<asrwt>0</asrwt>
<pdfrwt beam="1">  1       21 0.21330921E-01 0.78913160E+02</pdfrwt>
<pdfrwt beam="2">  1       21 0.73876315E-02 0.78913160E+02</pdfrwt>
<totfact> 0.27343649E+06</totfact>
</mgrwt>
</event>
<event>
 5    1  0.1590180E+000  0.7553397E+02  0.7546771E-02  0.1342225E+00
         21   -1    0    0  503  502  0.00000000000E+00  0.00000000000E+00  0.97480484407E+02  0.97480484407E+02  0.00000000000E+00 0.  1.
         21   -1    0    0  501  503 -0.00000000000E+00 -0.00000000000E+00 -0.87568322575E+02  0.87568322575E+02  0.00000000000E+00 0.  1.
         24    1    1    2    0    0 -0.10056935742E+02 -0.52664310633E+02  0.16963131534E+02  0.98130705474E+02  0.80419002446E+02 0.  1.
          1    1    1    2  501    0  0.14473263391E+01  0.31942497609E+02 -0.37380174200E+02  0.49190398761E+02  0.00000000000E+00 0. -1.
         -2    1    1    2    0  502  0.86096094033E+01  0.20721813024E+02  0.30329204498E+02  0.37727702747E+02  0.00000000000E+00 0.  1.
<mgrwt>
<rscale>  2 0.75533969E+02</rscale>
<asrwt>0</asrwt>
<pdfrwt beam="1">  1       21 0.14996998E-01 0.75533969E+02</pdfrwt>
<pdfrwt beam="2">  1       21 0.13472050E-01 0.75533969E+02</pdfrwt>
<totfact> 0.18272412E+06</totfact>
</mgrwt>
</event>
<event>
 5    1  0.1590180E+000  0.7190458E+02  0.7546771E-02  0.1353734E+00
         21   -1    0    0  501  502  0.00000000000E+00  0.00000000000E+00  0.27423145694E+03  0.27423145694E+03  0.00000000000E+00 0.  1.
         21   -1    0    0  502  503 -0.00000000000E+00 -0.00000000000E+00 -0.24272976251E+02  0.24272976251E+02  0.00000000000E+00 0. -1.
         24    1    1    2    0    0  0.21291557968E+02 -0.21530148891E+02  0.87367092250E+02  0.12254428797E+03  0.80419002446E+02 0. -1.
          1    1    1    2  501    0 -0.14852610766E+02 -0.14808563239E+02  0.10830662200E+03  0.11031871084E+03  0.00000000000E+00 0. -1.
         -2    1    1    2    0  503 -0.64389472021E+01  0.36338712130E+02  0.54284766438E+02  0.65641434381E+02  0.00000000000E+00 0.  1.
<mgrwt>
<rscale>  2 0.71904580E+02</rscale>
<asrwt>0</asrwt>
<pdfrwt beam="1">  1       21 0.42189453E-01 0.71904580E+02</pdfrwt>
<pdfrwt beam="2">  1       21 0.37343042E-02 0.71904580E+02</pdfrwt>
<totfact> 0.23102332E+06</totfact>
</mgrwt>
</event>
<event>
 5    1  0.1590180E+000  0.1037048E+03  0.7546771E-02  0.1272693E+00
         21   -1    0    0  501  502  0.00000000000E+00  0.00000000000E+00  0.25804216431E+03  0.25804216431E+03  0.00000000000E+00 0.  1.
         21   -1    0    0  502  503 -0.00000000000E+00 -0.00000000000E+00 -0.57753001959E+02  0.57753001959E+02  0.00000000000E+00 0. -1.
         24    1    1    2    0    0  0.13759044985E+02  0.44219601298E+02  0.14578392020E+03  0.17281450113E+03  0.80419002446E+02 0.  1.
          1    1    1    2  501    0  0.22845781890E+02 -0.67477843629E+02  0.67053082237E+02  0.97833046403E+02  0.00000000000E+00 0. -1.
         -2    1    1    2    0  503 -0.36604826875E+02  0.23258242331E+02 -0.12547840084E+02  0.45147618737E+02  0.00000000000E+00 0.  1.
<mgrwt>
<rscale>  2 0.10370478E+03</rscale>
<asrwt>0</asrwt>
<pdfrwt beam="1">  1       21 0.39698794E-01 0.10370478E+03</pdfrwt>
<pdfrwt beam="2">  1       21 0.88850774E-02 0.10370478E+03</pdfrwt>
<totfact> 0.61527000E+05</totfact>
</mgrwt>
</event>
<event>
 5    1  0.1590180E+000  0.8524401E+02  0.7546771E-02  0.1314796E+00
         21   -1    0    0  501  502  0.00000000000E+00  0.00000000000E+00  0.71242173531E+01  0.71242173531E+01  0.00000000000E+00 0. -1.
         21   -1    0    0  502  503 -0.00000000000E+00 -0.00000000000E+00 -0.13437588829E+04  0.13437588829E+04  0.00000000000E+00 0.  1.
         24    1    1    2    0    0  0.42796535753E+02  0.19594883046E+02 -0.44726084175E+03  0.45686428995E+03  0.80419002446E+02 0. -1.
          1    1    1    2  501    0 -0.13386800102E+02  0.22365807770E+02 -0.11349448347E+03  0.11644927459E+03  0.00000000000E+00 0. -1.
         -2    1    1    2    0  503 -0.29409735651E+02 -0.41960690816E+02 -0.77587934031E+03  0.77756953570E+03  0.00000000000E+00 0.  1.
<mgrwt>
<rscale>  2 0.85244010E+02</rscale>
<asrwt>0</asrwt>
<pdfrwt beam="1">  1       21 0.10960339E-02 0.85244010E+02</pdfrwt>
<pdfrwt beam="2">  1       21 0.20673206E+00 0.85244010E+02</pdfrwt>
<totfact> 0.41541448E+05</totfact>
</mgrwt>
</event>
<event>
 5    1  0.1590180E+000  0.7139470E+02  0.7546771E-02  0.1355414E+00
         21   -1    0    0  501  502  0.00000000000E+00  0.00000000000E+00  0.20574289975E+03  0.20574289975E+03  0.00000000000E+00 0. -1.
         21   -1    0    0  502  503 -0.00000000000E+00 -0.00000000000E+00 -0.39956944554E+02  0.39956944554E+02  0.00000000000E+00 0. -1.
         24    1    1    2    0    0 -0.35799653422E+02 -0.31825253569E+02  0.16349243220E+03  0.18839175484E+03  0.80419002446E+02 0. -1.
          1    1    1    2  501    0  0.24912173636E+02  0.14800227022E+02  0.15796943139E+02  0.33003129060E+02  0.00000000000E+00 0. -1.
         -2    1    1    2    0  503  0.10887479786E+02  0.17025026547E+02 -0.13503420141E+02  0.24304960410E+02  0.00000000000E+00 0.  1.
<mgrwt>
<rscale>  2 0.71394703E+02</rscale>
<asrwt>0</asrwt>
<pdfrwt beam="1">  1       21 0.31652753E-01 0.71394703E+02</pdfrwt>
<pdfrwt beam="2">  1       21 0.61472223E-02 0.71394703E+02</pdfrwt>
<totfact> 0.17725751E+06</totfact>
</mgrwt>
</event>
<event>
 5    1  0.1590180E+000  0.8263340E+02  0.7546771E-02  0.1321740E+00
         21   -1    0    0  501  502  0.00000000000E+00  0.00000000000E+00  0.54936391943E+03  0.54936391943E+03  0.00000000000E+00 0.  1.
         21   -1    0    0  502  503 -0.00000000000E+00 -0.00000000000E+00 -0.13961920504E+02  0.13961920504E+02  0.00000000000E+00 0. -1.
         24    1    1    2    0    0  0.35457770417E+02  0.17556999618E+02  0.21772729590E+03  0.23545252824E+03  0.80419002446E+02 0. -1.
          1    1    1    2  501    0  0.42565091217E+01 -0.32820186628E+02  0.20050754043E+03  0.20322046228E+03  0.00000000000E+00 0. -1.
         -2    1    1    2    0  503 -0.39714279538E+02  0.15263187010E+02  0.11716716259E+03  0.12465284941E+03  0.00000000000E+00 0.  1.
<mgrwt>
<rscale>  2 0.82633399E+02</rscale>
<asrwt>0</asrwt>
<pdfrwt beam="1">  1       21 0.84517509E-01 0.82633399E+02</pdfrwt>
<pdfrwt beam="2">  1       21 0.21479882E-02 0.82633399E+02</pdfrwt>
<totfact> 0.13242982E+06</totfact>
</mgrwt>
</event>
<event>
 5    1  0.1590180E+000  0.8641478E+02  0.7546771E-02  0.1311774E+00
         21   -1    0    0  501  502  0.00000000000E+00  0.00000000000E+00  0.35493219153E+02  0.35493219153E+02  0.00000000000E+00 0. -1.
         21   -1    0    0  502  503 -0.00000000000E+00 -0.00000000000E+00 -0.67158913915E+03  0.67158913915E+03  0.00000000000E+00 0.  1.
         24    1    1    2    0    0  0.19721335919E+02  0.35420077786E+02 -0.46670790012E+03  0.47531778106E+03  0.80419002446E+02 0. -1.
          1    1    1    2  501    0 -0.45136902834E+02 -0.35386247195E+02  0.30770359935E+01  0.57436875250E+02  0.00000000000E+00 0. -1.
         -2    1    1    2    0  503  0.25415566915E+02 -0.33830591066E-01 -0.17246505587E+03  0.17432770200E+03  0.00000000000E+00 0.  1.
<mgrwt>
<rscale>  2 0.86414784E+02</rscale>
<asrwt>0</asrwt>
<pdfrwt beam="1">  1       21 0.54604952E-02 0.86414784E+02</pdfrwt>
<pdfrwt beam="2">  1       21 0.10332141E+00 0.86414784E+02</pdfrwt>
<totfact> 0.18269283E+05</totfact>
</mgrwt>
</event>
<event>
 5    1  0.1590180E+000  0.7623945E+02  0.7546771E-02  0.1340075E+00
         21   -1    0    0  503  502  0.00000000000E+00  0.00000000000E+00  0.75647683816E+02  0.75647683816E+02  0.00000000000E+00 0.  1.
         21   -1    0    0  501  503 -0.00000000000E+00 -0.00000000000E+00 -0.81058265097E+02  0.81058265097E+02  0.00000000000E+00 0. -1.
         24    1    1    2    0    0  0.33590849676E+02 -0.29524105743E+02 -0.20622722285E+02  0.94300215433E+02  0.80419002446E+02 0. -1.
          1    1    1    2  501    0 -0.51217004387E+01  0.31509483874E+02  0.66217288816E+01  0.32602556384E+02  0.00000000000E+00 0. -1.
         -2    1    1    2    0  502 -0.28469149237E+02 -0.19853781303E+01  0.85904121221E+01  0.29803177096E+02  0.00000000000E+00 0.  1.
<mgrwt>
<rscale>  2 0.76239445E+02</rscale>
<asrwt>0</asrwt>
<pdfrwt beam="1">  1       21 0.11638105E-01 0.76239445E+02</pdfrwt>
<pdfrwt beam="2">  1       21 0.12470502E-01 0.76239445E+02</pdfrwt>
<totfact> 0.32703940E+06</totfact>
</mgrwt>
</event>
<event>
 5    1  0.1590180E+000  0.7704427E+02  0.7546771E-02  0.1337655E+00
         21   -1    0    0  503  502  0.00000000000E+00  0.00000000000E+00  0.13949906786E+03  0.13949906786E+03  0.00000000000E+00 0.  1.
         21   -1    0    0  501  503 -0.00000000000E+00 -0.00000000000E+00 -0.73391425630E+02  0.73391425630E+02  0.00000000000E+00 0.  1.
         24    1    1    2    0    0  0.99393703171E+00 -0.13955100966E+02 -0.19794908568E+01  0.81650885434E+02  0.80419002446E+02 0.  1.
          1    1    1    2  501    0  0.28341110727E+01  0.43036338782E+02 -0.12970785129E+02  0.45037760914E+02  0.00000000000E+00 0. -1.
         -2    1    1    2    0  502 -0.38280481044E+01 -0.29081237816E+02  0.81057918210E+02  0.86201847137E+02  0.00000000000E+00 0.  1.
<mgrwt>
<rscale>  2 0.77044274E+02</rscale>
<asrwt>0</asrwt>
<pdfrwt beam="1">  1       21 0.21461395E-01 0.77044274E+02</pdfrwt>
<pdfrwt beam="2">  1       21 0.11290989E-01 0.77044274E+02</pdfrwt>
<totfact> 0.13046839E+06</totfact>
</mgrwt>
</event>
<event>
 5    1  0.1590180E+000  0.7464380E+02  0.7546771E-02  0.1344978E+00
         21   -1    0    0  503  502  0.00000000000E+00  0.00000000000E+00  0.23048351283E+03  0.23048351283E+03  0.00000000000E+00 0. -1.
         21   -1    0    0  501  503 -0.00000000000E+00 -0.00000000000E+00 -0.44642284452E+02  0.44642284452E+02  0.00000000000E+00 0.  1.
         24    1    1    2    0    0 -0.30414377844E+02  0.68651945586E-01  0.81807311003E+01  0.86366541024E+02  0.80419002446E+02 0.  1.
          1    1    1    2  501    0  0.34649103483E+02  0.21864646554E+02  0.10374967764E+03  0.11154648696E+03  0.00000000000E+00 0. -1.
         -2    1    1    2    0  502 -0.42347256385E+01 -0.21933298500E+02  0.73910819636E+02  0.77212769304E+02  0.00000000000E+00 0.  1.
<mgrwt>
<rscale>  2 0.74643796E+02</rscale>
<asrwt>0</asrwt>
<pdfrwt beam="1">  1       21 0.35459001E-01 0.74643796E+02</pdfrwt>
<pdfrwt beam="2">  1       21 0.68680439E-02 0.74643796E+02</pdfrwt>
<totfact> 0.11851464E+06</totfact>
</mgrwt>
</event>
<event>
 5    1  0.1590180E+000  0.9818508E+02  0.7546771E-02  0.1284159E+00
         21   -1    0    0  503  502  0.00000000000E+00  0.00000000000E+00  0.28323771484E+02  0.28323771484E+02  0.00000000000E+00 0.  1.
         21   -1    0    0  501  503 -0.00000000000E+00 -0.00000000000E+00 -0.41052939557E+03  0.41052939557E+03  0.00000000000E+00 0. -1.
         24    1    1    2    0    0 -0.12482502195E+02 -0.53446287912E+01 -0.16577187094E+03  0.18474822615E+03  0.80419002446E+02 0.  1.
          1    1    1    2  501    0 -0.24902223941E+02  0.50430449181E+02 -0.17090330646E+03  0.17992023544E+03  0.00000000000E+00 0. -1.
         -2    1    1    2    0  502  0.37384726136E+02 -0.45085820390E+02 -0.45530446680E+02  0.74184705454E+02  0.00000000000E+00 0.  1.
<mgrwt>
<rscale>  2 0.98185080E+02</rscale>
<asrwt>0</asrwt>
<pdfrwt beam="1">  1       21 0.43575036E-02 0.98185080E+02</pdfrwt>
<pdfrwt beam="2">  1       21 0.63158364E-01 0.98185080E+02</pdfrwt>
<totfact> 0.79086364E+05</totfact>
</mgrwt>
</event>
<event>
 5    1  0.1590180E+000  0.7122766E+02  0.7546771E-02  0.1355967E+00
         21   -1    0    0  503  502  0.00000000000E+00  0.00000000000E+00  0.27767550456E+03  0.27767550456E+03  0.00000000000E+00 0. -1.
         21   -1    0    0  501  503 -0.00000000000E+00 -0.00000000000E+00 -0.22014694397E+02  0.22014694397E+02  0.00000000000E+00 0.  1.
         24    1    1    2    0    0 -0.19134310345E+02  0.11019769233E+02  0.11082127329E+03  0.13869436800E+03  0.80419002446E+02 0.  0.
          1    1    1    2  501    0  0.35963487588E+01  0.22145394735E+02  0.17383189655E+02  0.28381816625E+02  0.00000000000E+00 0. -1.
         -2    1    1    2    0  502  0.15537961586E+02 -0.33165163969E+02  0.12745634722E+03  0.13261401434E+03  0.00000000000E+00 0.  1.
<mgrwt>
<rscale>  2 0.71227664E+02</rscale>
<asrwt>0</asrwt>
<pdfrwt beam="1">  1       21 0.42719306E-01 0.71227664E+02</pdfrwt>
<pdfrwt beam="2">  1       21 0.33868762E-02 0.71227664E+02</pdfrwt>
<totfact> 0.26407019E+06</totfact>
</mgrwt>
</event>
<event>
 5    1  0.1590180E+000  0.8176786E+02  0.7546771E-02  0.1324108E+00
         21   -1    0    0  501  502  0.00000000000E+00  0.00000000000E+00  0.16725908175E+03  0.16725908175E+03  0.00000000000E+00 0.  1.
         21   -1    0    0  502  503 -0.00000000000E+00 -0.00000000000E+00 -0.54352107267E+02  0.54352107267E+02  0.00000000000E+00 0. -1.
         24    1    1    2    0    0 -0.11245952400E+02 -0.17163576167E+02  0.48714962246E+02  0.96236288858E+02  0.80419002446E+02 0.  0.
          1    1    1    2  501    0  0.44030085775E+02  0.18429566147E+02  0.76636580082E+02  0.90285451588E+02  0.00000000000E+00 0. -1.
         -2    1    1    2    0  503 -0.32784133375E+02 -0.12659899803E+01 -0.12444567849E+02  0.35089448567E+02  0.00000000000E+00 0.  1.
<mgrwt>
<rscale>  2 0.81767859E+02</rscale>
<asrwt>0</asrwt>
<pdfrwt beam="1">  1       21 0.25732166E-01 0.81767859E+02</pdfrwt>
<pdfrwt beam="2">  1       21 0.83618627E-02 0.81767859E+02</pdfrwt>
<totfact> 0.15671249E+06</totfact>
</mgrwt>
</event>
<event>
 5    1  0.1590180E+000  0.8887323E+02  0.7546771E-02  0.1305604E+00
         21   -1    0    0  501  502  0.00000000000E+00  0.00000000000E+00  0.15222702971E+03  0.15222702971E+03  0.00000000000E+00 0.  1.
         21   -1    0    0  502  503 -0.00000000000E+00 -0.00000000000E+00 -0.70846670230E+02  0.70846670230E+02  0.00000000000E+00 0. -1.
         24    1    1    2    0    0 -0.70386643563E+01  0.27264724059E+02  0.75259530298E+01  0.85538084485E+02  0.80419002446E+02 0. -1.
          1    1    1    2  501    0  0.29028568369E+02  0.23415150816E+02  0.73351538903E+02  0.82288366909E+02  0.00000000000E+00 0. -1.
         -2    1    1    2    0  503 -0.21989904012E+02 -0.50679874875E+02  0.50286754400E+00  0.55247248543E+02  0.00000000000E+00 0.  1.
<mgrwt>
<rscale>  2 0.88873228E+02</rscale>
<asrwt>0</asrwt>
<pdfrwt beam="1">  1       21 0.23419543E-01 0.88873228E+02</pdfrwt>
<pdfrwt beam="2">  1       21 0.10899488E-01 0.88873228E+02</pdfrwt>
<totfact> 0.11856244E+06</totfact>
</mgrwt>
</event>
<event>
 5    1  0.1590180E+000  0.1119227E+03  0.7546771E-02  0.1257050E+00
         21   -1    0    0  501  502  0.00000000000E+00  0.00000000000E+00  0.33191852210E+02  0.33191852210E+02  0.00000000000E+00 0. -1.
         21   -1    0    0  502  503 -0.00000000000E+00 -0.00000000000E+00 -0.17707123666E+04  0.17707123666E+04  0.00000000000E+00 0.  1.
         24    1    1    2    0    0 -0.15502823192E+02 -0.55730167750E+02 -0.15211771327E+04  0.15243993158E+04  0.80419002446E+02 0.  1.
          1    1    1    2  501    0 -0.34634567614E+02  0.65135148595E+02 -0.19704622857E+02  0.76357141239E+02  0.00000000000E+00 0. -1.
         -2    1    1    2    0  503  0.50137390806E+02 -0.94049808446E+01 -0.19663875884E+03  0.20314776174E+03  0.00000000000E+00 0.  1.
<mgrwt>
<rscale>  2 0.11192269E+03</rscale>
<asrwt>0</asrwt>
<pdfrwt beam="1">  1       21 0.51064379E-02 0.11192269E+03</pdfrwt>
<pdfrwt beam="2">  1       21 0.27241734E+00 0.11192269E+03</pdfrwt>
<totfact> 0.14068780E+04</totfact>
</mgrwt>
</event>
<event>
 5    1  0.1590180E+000  0.9353185E+02  0.7546771E-02  0.1294517E+00
         21   -1    0    0  501  502  0.00000000000E+00  0.00000000000E+00  0.12877612961E+03  0.12877612961E+03  0.00000000000E+00 0. -1.
         21   -1    0    0  502  503 -0.00000000000E+00 -0.00000000000E+00 -0.18716041043E+03  0.18716041043E+03  0.00000000000E+00 0.  1.
         24    1    1    2    0    0  0.61688036697E+02  0.23898344272E+02 -0.39904581846E+02  0.11151742616E+03  0.80419002446E+02 0.  1.
          1    1    1    2  501    0 -0.31091401298E+01 -0.24151572296E+02  0.83409059544E+02  0.86890945505E+02  0.00000000000E+00 0. -1.
         -2    1    1    2    0  503 -0.58578896567E+02  0.25322802447E+00 -0.10188875853E+03  0.11752816837E+03  0.00000000000E+00 0.  1.
<mgrwt>
<rscale>  2 0.93531850E+02</rscale>
<asrwt>0</asrwt>
<pdfrwt beam="1">  1       21 0.19811712E-01 0.93531850E+02</pdfrwt>
<pdfrwt beam="2">  1       21 0.28793909E-01 0.93531850E+02</pdfrwt>
<totfact> 0.27696179E+05</totfact>
</mgrwt>
</event>
<event>
 5    1  0.1590180E+000  0.8773105E+02  0.7546771E-02  0.1308441E+00
         21   -1    0    0  501  502  0.00000000000E+00  0.00000000000E+00  0.47258321503E+03  0.47258321503E+03  0.00000000000E+00 0. -1.
         21   -1    0    0  502  503 -0.00000000000E+00 -0.00000000000E+00 -0.24627701213E+02  0.24627701213E+02  0.00000000000E+00 0. -1.
         24    1    1    2    0    0  0.43321298228E+01 -0.56091946651E+02  0.10089848803E+03  0.14075792933E+03  0.80419002446E+02 0. -1.
          1    1    1    2  501    0  0.24387041609E+02  0.28220356958E+02  0.22308525794E+03  0.22618167179E+03  0.00000000000E+00 0. -1.
         -2    1    1    2    0  503 -0.28719171432E+02  0.27871589693E+02  0.12397176785E+03  0.13027131513E+03  0.00000000000E+00 0.  1.
<mgrwt>
<rscale>  2 0.87731050E+02</rscale>
<asrwt>0</asrwt>
<pdfrwt beam="1">  1       21 0.72705103E-01 0.87731050E+02</pdfrwt>
<pdfrwt beam="2">  1       21 0.37888774E-02 0.87731050E+02</pdfrwt>
<totfact> 0.73571313E+05</totfact>
</mgrwt>
</event>
<event>
 5    1  0.1590180E+000  0.7701112E+02  0.7546771E-02  0.1337754E+00
         21   -1    0    0  503  502  0.00000000000E+00  0.00000000000E+00  0.81170567997E+01  0.81170567997E+01  0.00000000000E+00 0. -1.
         21   -1    0    0  501  503 -0.00000000000E+00 -0.00000000000E+00 -0.20444917714E+04  0.20444917714E+04  0.00000000000E+00 0. -1.
         24    1    1    2    0    0 -0.31844352048E+01 -0.36164447115E+02 -0.30325089794E+03  0.31582642530E+03  0.80419002446E+02 0. -1.
          1    1    1    2  501    0 -0.25803386350E+02  0.14491303103E+02 -0.15406988510E+04  0.15409830506E+04  0.00000000000E+00 0. -1.
         -2    1    1    2    0  502  0.28987821555E+02  0.21673144012E+02 -0.19242496560E+03  0.19579935229E+03  0.00000000000E+00 0.  1.
<mgrwt>
<rscale>  2 0.77011115E+02</rscale>
<asrwt>0</asrwt>
<pdfrwt beam="1">  1       21 0.12487799E-02 0.77011115E+02</pdfrwt>
<pdfrwt beam="2">  1       21 0.31453671E+00 0.77011115E+02</pdfrwt>
<totfact> 0.85635130E+04</totfact>
</mgrwt>
</event>
<event>
 5    1  0.1590180E+000  0.1020255E+03  0.7546771E-02  0.1276093E+00
         21   -1    0    0  501  502  0.00000000000E+00  0.00000000000E+00  0.72945761258E+02  0.72945761258E+02  0.00000000000E+00 0. -1.
         21   -1    0    0  502  503 -0.00000000000E+00 -0.00000000000E+00 -0.86491756756E+03  0.86491756756E+03  0.00000000000E+00 0.  1.
         24    1    1    2    0    0  0.19446655532E+02  0.79820491549E+02 -0.26089867800E+03  0.28510492704E+03  0.80419002446E+02 0.  0.
          1    1    1    2  501    0  0.59411710068E+01 -0.48064352604E+02  0.50381537997E+02  0.69884038772E+02  0.00000000000E+00 0. -1.
         -2    1    1    2    0  503 -0.25387826539E+02 -0.31756138945E+02 -0.58145466630E+03  0.58287436301E+03  0.00000000000E+00 0.  1.
<mgrwt>
<rscale>  2 0.10202554E+03</rscale>
<asrwt>0</asrwt>
<pdfrwt beam="1">  1       21 0.11222425E-01 0.10202554E+03</pdfrwt>
<pdfrwt beam="2">  1       21 0.13306424E+00 0.10202554E+03</pdfrwt>
<totfact> 0.28760300E+04</totfact>
</mgrwt>
</event>
<event>
 5    1  0.1590180E+000  0.9395242E+02  0.7546771E-02  0.1293553E+00
         21   -1    0    0  503  502  0.00000000000E+00  0.00000000000E+00  0.36135996332E+03  0.36135996332E+03  0.00000000000E+00 0.  1.
         21   -1    0    0  501  503 -0.00000000000E+00 -0.00000000000E+00 -0.26133988301E+02  0.26133988301E+02  0.00000000000E+00 0.  1.
         24    1    1    2    0    0 -0.38278471003E+02  0.33518502511E+02  0.16256280636E+03  0.18836829170E+03  0.80419002446E+02 0.  0.
          1    1    1    2  501    0  0.35302267137E+02 -0.58098282211E+02  0.89727103178E+02  0.11257270320E+03  0.00000000000E+00 0. -1.
         -2    1    1    2    0  502  0.29762038663E+01  0.24579779699E+02  0.82936065482E+02  0.86552956721E+02  0.00000000000E+00 0.  1.
<mgrwt>
<rscale>  2 0.93952423E+02</rscale>
<asrwt>0</asrwt>
<pdfrwt beam="1">  1       21 0.55593837E-01 0.93952423E+02</pdfrwt>
<pdfrwt beam="2">  1       21 0.40206139E-02 0.93952423E+02</pdfrwt>
<totfact> 0.11804580E+06</totfact>
</mgrwt>
</event>
<event>
 5    1  0.1590180E+000  0.1127689E+03  0.7546771E-02  0.1255527E+00
         21   -1    0    0  501  502  0.00000000000E+00  0.00000000000E+00  0.31252769301E+04  0.31252769301E+04  0.00000000000E+00 0.  1.
         21   -1    0    0  502  503 -0.00000000000E+00 -0.00000000000E+00 -0.82527183652E+01  0.82527183652E+01  0.00000000000E+00 0.  1.
         24    1    1    2    0    0  0.59554366158E+02 -0.71423205078E+02  0.23376245047E+04  0.23408553005E+04  0.80419002446E+02 0.  1.
          1    1    1    2  501    0 -0.25542999993E+02  0.24118469034E+01  0.55230914943E+03  0.55290474623E+03  0.00000000000E+00 0. -1.
         -2    1    1    2    0  503 -0.34011366165E+02  0.69011358175E+02  0.22709055760E+03  0.23976960178E+03  0.00000000000E+00 0.  1.
<mgrwt>
<rscale>  2 0.11276890E+03</rscale>
<asrwt>0</asrwt>
<pdfrwt beam="1">  1       21 0.48081089E+00 0.11276890E+03</pdfrwt>
<pdfrwt beam="2">  1       21 0.12696515E-02 0.11276890E+03</pdfrwt>
<totfact> 0.76146783E+03</totfact>
</mgrwt>
</event>
<event>
 5    1  0.1590180E+000  0.9078198E+02  0.7546771E-02  0.1300969E+00
         21   -1    0    0  501  502  0.00000000000E+00  0.00000000000E+00  0.32362370170E+03  0.32362370170E+03  0.00000000000E+00 0. -1.
         21   -1    0    0  502  503 -0.00000000000E+00 -0.00000000000E+00 -0.30965835431E+02  0.30965835431E+02  0.00000000000E+00 0.  1.
         24    1    1    2    0    0  0.35037211019E+02  0.63585323296E+02  0.18013109870E+03  0.21020258840E+03  0.80419002446E+02 0.  1.
          1    1    1    2  501    0 -0.65306124575E+01 -0.20873838310E+02  0.81515362463E+02  0.84398580215E+02  0.00000000000E+00 0. -1.
         -2    1    1    2    0  503 -0.28506598561E+02 -0.42711484986E+02  0.31011405105E+02  0.59988368521E+02  0.00000000000E+00 0.  1.
<mgrwt>
<rscale>  2 0.90781984E+02</rscale>
<asrwt>0</asrwt>
<pdfrwt beam="1">  1       21 0.49788260E-01 0.90781984E+02</pdfrwt>
<pdfrwt beam="2">  1       21 0.47639749E-02 0.90781984E+02</pdfrwt>
<totfact> 0.11182040E+06</totfact>
</mgrwt>
</event>
<event>
 5    1  0.1733923E+000  0.1472138E+03  0.7546771E-02  0.1203939E+00
         21   -1    0    0  503  502  0.00000000000E+00  0.00000000000E+00  0.64493842346E+02  0.64493842346E+02  0.00000000000E+00 0. -1.
         21   -1    0    0  501  503 -0.00000000000E+00 -0.00000000000E+00 -0.97202271855E+03  0.97202271855E+03  0.00000000000E+00 0. -1.
         24    1    1    2    0    0  0.90469073504E+02  0.10171745497E+03 -0.65559884318E+02  0.17116193588E+03  0.80419002446E+02 0. -1.
          1    1    1    2  501    0 -0.66599759335E+02 -0.79498556502E+02 -0.81882435849E+03  0.82536590582E+03  0.00000000000E+00 0. -1.
         -2    1    1    2    0  502 -0.23869314169E+02 -0.22218898472E+02 -0.23144633393E+02  0.39988719198E+02  0.00000000000E+00 0.  1.
<mgrwt>
<rscale>  2 0.14721384E+03</rscale>
<asrwt>0</asrwt>
<pdfrwt beam="1">  1       21 0.99221296E-02 0.14721384E+03</pdfrwt>
<pdfrwt beam="2">  1       21 0.14954196E+00 0.14721384E+03</pdfrwt>
<totfact> 0.25570689E+04</totfact>
</mgrwt>
</event>
<event>
 5    1  0.1590180E+000  0.6998220E+02  0.7546771E-02  0.1360154E+00
         21   -1    0    0  501  502  0.00000000000E+00  0.00000000000E+00  0.24679829194E+03  0.24679829194E+03  0.00000000000E+00 0. -1.
         21   -1    0    0  502  503 -0.00000000000E+00 -0.00000000000E+00 -0.27517681749E+02  0.27517681749E+02  0.00000000000E+00 0.  1.
         24    1    1    2    0    0 -0.17850164493E+02  0.33760104222E+02  0.20099957575E+03  0.21983270551E+03  0.80419002446E+02 0. -1.
          1    1    1    2  501    0  0.22662529279E+02 -0.69561485479E+01  0.11844653926E+02  0.26500454007E+02  0.00000000000E+00 0. -1.
         -2    1    1    2    0  503 -0.48123647866E+01 -0.26803955674E+02  0.64363805212E+01  0.27982814169E+02  0.00000000000E+00 0.  1.
<mgrwt>
<rscale>  2 0.69982195E+02</rscale>
<asrwt>0</asrwt>
<pdfrwt beam="1">  1       21 0.37968967E-01 0.69982195E+02</pdfrwt>
<pdfrwt beam="2">  1       21 0.42334897E-02 0.69982195E+02</pdfrwt>
<totfact> 0.23114685E+06</totfact>
</mgrwt>
</event>
<event>
 5    1  0.1590180E+000  0.9030616E+02  0.7546771E-02  0.1302112E+00
         21   -1    0    0  501  502  0.00000000000E+00  0.00000000000E+00  0.21728468962E+03  0.21728468962E+03  0.00000000000E+00 0. -1.
         21   -1    0    0  502  503 -0.00000000000E+00 -0.00000000000E+00 -0.13254981015E+03  0.13254981015E+03  0.00000000000E+00 0. -1.
         24    1    1    2    0    0  0.53673998616E+02  0.48104517867E+02 -0.60924723055E+02  0.12399185699E+03  0.80419002446E+02 0. -1.
          1    1    1    2  501    0 -0.25309057444E+02 -0.28636420847E+02  0.17592087217E+03  0.18002429351E+03  0.00000000000E+00 0. -1.
         -2    1    1    2    0  503 -0.28364941172E+02 -0.19468097020E+02 -0.30261269648E+02  0.45818349272E+02  0.00000000000E+00 0.  1.
<mgrwt>
<rscale>  2 0.90306165E+02</rscale>
<asrwt>0</asrwt>
<pdfrwt beam="1">  1       21 0.33428414E-01 0.90306165E+02</pdfrwt>
<pdfrwt beam="2">  1       21 0.20392278E-01 0.90306165E+02</pdfrwt>
<totfact> 0.19745498E+05</totfact>
</mgrwt>
</event>
<event>
 5    1  0.1590180E+000  0.7275294E+02  0.7546771E-02  0.1350974E+00
         21   -1    0    0  501  502  0.00000000000E+00  0.00000000000E+00  0.14614691109E+04  0.14614691109E+04  0.00000000000E+00 0. -1.
         21   -1    0    0  502  503 -0.00000000000E+00 -0.00000000000E+00 -0.19572726024E+03  0.19572726024E+03  0.00000000000E+00 0. -1.
         24    1    1    2    0    0  0.17325768562E+02  0.21753026002E+01 -0.12238344017E+03  0.14747825799E+03  0.80419002446E+02 0. -1.
          1    1    1    2  501    0 -0.26304829699E+02 -0.26466607489E+02  0.14459120886E+04  0.14463935126E+04  0.00000000000E+00 0. -1.
         -2    1    1    2    0  503  0.89790611375E+01  0.24291304889E+02 -0.57786797794E+02  0.63324600523E+02  0.00000000000E+00 0.  1.
<mgrwt>
<rscale>  2 0.72752936E+02</rscale>
<asrwt>0</asrwt>
<pdfrwt beam="1">  1       21 0.22484139E+00 0.72752936E+02</pdfrwt>
<pdfrwt beam="2">  1       21 0.30111887E-01 0.72752936E+02</pdfrwt>
<totfact> 0.12311462E+03</totfact>
</mgrwt>
</event>
<event>
 5    1  0.1590180E+000  0.6628001E+02  0.7546771E-02  0.1373220E+00
         21   -1    0    0  501  502  0.00000000000E+00  0.00000000000E+00  0.28565111932E+02  0.28565111932E+02  0.00000000000E+00 0. -1.
         21   -1    0    0  502  503 -0.00000000000E+00 -0.00000000000E+00 -0.47233447320E+03  0.47233447320E+03  0.00000000000E+00 0.  1.
         24    1    1    2    0    0 -0.79275199121E+01 -0.52596536819E+01 -0.45974476878E+02  0.93120234146E+02  0.80419002446E+02 0.  0.
          1    1    1    2  501    0 -0.16743149608E+01  0.27398104094E+02 -0.36450012468E+02  0.45629626861E+02  0.00000000000E+00 0. -1.
         -2    1    1    2    0  503  0.96018348729E+01 -0.22138450412E+02 -0.36134487192E+03  0.36214972412E+03  0.00000000000E+00 0.  1.
<mgrwt>
<rscale>  2 0.66280011E+02</rscale>
<asrwt>0</asrwt>
<pdfrwt beam="1">  1       21 0.43946327E-02 0.66280011E+02</pdfrwt>
<pdfrwt beam="2">  1       21 0.72666840E-01 0.66280011E+02</pdfrwt>
<totfact> 0.57633797E+05</totfact>
</mgrwt>
</event>
<event>
 5    1  0.1590180E+000  0.6771981E+02  0.7546771E-02  0.1368023E+00
         21   -1    0    0  503  502  0.00000000000E+00  0.00000000000E+00  0.17662855928E+04  0.17662855928E+04  0.00000000000E+00 0.  1.
         21   -1    0    0  501  503 -0.00000000000E+00 -0.00000000000E+00 -0.43609846177E+01  0.43609846177E+01  0.00000000000E+00 0. -1.
         24    1    1    2    0    0  0.15607578762E+02 -0.30354612861E+02  0.13307725918E+04  0.13336370968E+04  0.80419002446E+02 0.  1.
          1    1    1    2  501    0 -0.24163571215E+02  0.10287996854E+02  0.63577579016E+02  0.68788295564E+02  0.00000000000E+00 0. -1.
         -2    1    1    2    0  502  0.85559924527E+01  0.20066616007E+02  0.36757443734E+03  0.36822118498E+03  0.00000000000E+00 0.  1.
<mgrwt>
<rscale>  2 0.67719814E+02</rscale>
<asrwt>0</asrwt>
<pdfrwt beam="1">  1       21 0.27173567E+00 0.67719814E+02</pdfrwt>
<pdfrwt beam="2">  1       21 0.67092212E-03 0.67719814E+02</pdfrwt>
<totfact> 0.38798561E+05</totfact>
</mgrwt>
</event>
<event>
 5    1  0.1590180E+000  0.7781416E+02  0.7546771E-02  0.1335372E+00
         21   -1    0    0  501  502  0.00000000000E+00  0.00000000000E+00  0.10684921297E+04  0.10684921297E+04  0.00000000000E+00 0. -1.
         21   -1    0    0  502  503 -0.00000000000E+00 -0.00000000000E+00 -0.68012631404E+01  0.68012631404E+01  0.00000000000E+00 0. -1.
         24    1    1    2    0    0  0.32929521405E+02  0.10203932264E+02  0.37602072000E+03  0.38606640807E+03  0.80419002446E+02 0. -1.
          1    1    1    2  501    0 -0.40310675786E+02  0.14120163496E+02  0.50068528641E+03  0.50250381653E+03  0.00000000000E+00 0. -1.
         -2    1    1    2    0  503  0.73811543810E+01 -0.24324095760E+02  0.18498486013E+03  0.18672316822E+03  0.00000000000E+00 0.  1.
<mgrwt>
<rscale>  2 0.77814157E+02</rscale>
<asrwt>0</asrwt>
<pdfrwt beam="1">  1       21 0.16438327E+00 0.77814157E+02</pdfrwt>
<pdfrwt beam="2">  1       21 0.10463490E-02 0.77814157E+02</pdfrwt>
<totfact> 0.83736629E+05</totfact>
</mgrwt>
</event>
<event>
 5    1  0.1590180E+000  0.6596089E+02  0.7546771E-02  0.1374393E+00
         21   -1    0    0  503  502  0.00000000000E+00  0.00000000000E+00  0.27757645485E+03  0.27757645485E+03  0.00000000000E+00 0. -1.
         21   -1    0    0  501  503 -0.00000000000E+00 -0.00000000000E+00 -0.11492932577E+03  0.11492932577E+03  0.00000000000E+00 0. -1.
         24    1    1    2    0    0 -0.16907903708E+02 -0.31767846247E+02  0.21255668105E+03  0.23009265933E+03  0.80419002446E+02 0. -1.
          1    1    1    2  501    0  0.19583119248E+02  0.10191478320E+02 -0.10284448189E+03  0.10518722473E+03  0.00000000000E+00 0. -1.
         -2    1    1    2    0  502 -0.26752155402E+01  0.21576367927E+02  0.52934929925E+02  0.57225896562E+02  0.00000000000E+00 0.  1.
<mgrwt>
<rscale>  2 0.65960889E+02</rscale>
<asrwt>0</asrwt>
<pdfrwt beam="1">  1       21 0.42704070E-01 0.65960889E+02</pdfrwt>
<pdfrwt beam="2">  1       21 0.17681435E-01 0.65960889E+02</pdfrwt>
<totfact> 0.15979644E+05</totfact>
</mgrwt>
</event>
<event>
 5    1  0.1625917E+000  0.7390215E+02  0.7546771E-02  0.1347305E+00
         21   -1    0    0  503  502  0.00000000000E+00  0.00000000000E+00  0.19379805198E+03  0.19379805198E+03  0.00000000000E+00 0. -1.
         21   -1    0    0  501  503 -0.00000000000E+00 -0.00000000000E+00 -0.21127445557E+03  0.21127445557E+03  0.00000000000E+00 0. -1.
         24    1    1    2    0    0  0.12855860544E+02  0.14430272007E+02  0.16004572093E+02  0.84242911766E+02  0.80419002446E+02 0. -1.
          1    1    1    2  501    0 -0.35019993269E+02  0.53038083831E+01 -0.17381754099E+03  0.17738959346E+03  0.00000000000E+00 0. -1.
         -2    1    1    2    0  502  0.22164132725E+02 -0.19734080390E+02  0.14033656530E+03  0.14344000233E+03  0.00000000000E+00 0.  1.
<mgrwt>
<rscale>  2 0.73902152E+02</rscale>
<asrwt>0</asrwt>
<pdfrwt beam="1">  1       21 0.29815085E-01 0.73902152E+02</pdfrwt>
<pdfrwt beam="2">  1       21 0.32503762E-01 0.73902152E+02</pdfrwt>
<totfact> 0.10338265E+05</totfact>
</mgrwt>
</event>
<event>
 5    1  0.1590180E+000  0.7728522E+02  0.7546771E-02  0.1336937E+00
         21   -1    0    0  501  502  0.00000000000E+00  0.00000000000E+00  0.33773628796E+03  0.33773628796E+03  0.00000000000E+00 0.  1.
         21   -1    0    0  502  503 -0.00000000000E+00 -0.00000000000E+00 -0.78668342068E+02  0.78668342068E+02  0.00000000000E+00 0.  1.
         24    1    1    2    0    0 -0.29956333337E+02 -0.23861126464E+02  0.22078142148E+03  0.23807223124E+03  0.80419002446E+02 0.  1.
          1    1    1    2  501    0  0.10347738748E+01  0.34623230575E+02  0.10190145524E+03  0.10762780975E+03  0.00000000000E+00 0. -1.
         -2    1    1    2    0  503  0.28921559462E+02 -0.10762104110E+02 -0.63614930826E+02  0.70704589035E+02  0.00000000000E+00 0.  1.
<mgrwt>
<rscale>  2 0.77285223E+02</rscale>
<asrwt>0</asrwt>
<pdfrwt beam="1">  1       21 0.51959428E-01 0.77285223E+02</pdfrwt>
<pdfrwt beam="2">  1       21 0.12102822E-01 0.77285223E+02</pdfrwt>
<totfact> 0.20989635E+05</totfact>
</mgrwt>
</event>
<event>
 5    1  0.1590180E+000  0.7039120E+02  0.7546771E-02  0.1358768E+00
         21   -1    0    0  501  502  0.00000000000E+00  0.00000000000E+00  0.62964867607E+02  0.62964867607E+02  0.00000000000E+00 0. -1.
         21   -1    0    0  502  503 -0.00000000000E+00 -0.00000000000E+00 -0.30561814473E+03  0.30561814473E+03  0.00000000000E+00 0.  1.
         24    1    1    2    0    0  0.13359236298E+02  0.14796490378E+01  0.20380098483E+02  0.84042982600E+02  0.80419002446E+02 0. -1.
          1    1    1    2  501    0 -0.35686673232E+02  0.49131759038E+01 -0.21622140395E+02  0.42014222581E+02  0.00000000000E+00 0. -1.
         -2    1    1    2    0  503  0.22327436934E+02 -0.63928249416E+01 -0.24141123521E+03  0.24252580715E+03  0.00000000000E+00 0.  1.
<mgrwt>
<rscale>  2 0.70391205E+02</rscale>
<asrwt>0</asrwt>
<pdfrwt beam="1">  1       21 0.96869027E-02 0.70391205E+02</pdfrwt>
<pdfrwt beam="2">  1       21 0.47018176E-01 0.70391205E+02</pdfrwt>
<totfact> 0.37837483E+05</totfact>
</mgrwt>
</event>
<event>
 5    1  0.1590180E+000  0.8400950E+02  0.7546771E-02  0.1318043E+00
         21   -1    0    0  503  502  0.00000000000E+00  0.00000000000E+00  0.64626950029E+03  0.64626950029E+03  0.00000000000E+00 0. -1.
         21   -1    0    0  501  503 -0.00000000000E+00 -0.00000000000E+00 -0.12202999076E+02  0.12202999076E+02  0.00000000000E+00 0.  1.
         24    1    1    2    0    0  0.29695647092E+02  0.22311068342E+02  0.40071028415E+03  0.41038465249E+03  0.80419002446E+02 0. -1.
          1    1    1    2  501    0  0.14889657512E+02 -0.30652734127E+02  0.61110875716E+02  0.69970216100E+02  0.00000000000E+00 0. -1.
         -2    1    1    2    0  502 -0.44585304604E+02  0.83416657850E+01  0.17224534135E+03  0.17811763077E+03  0.00000000000E+00 0.  1.
<mgrwt>
<rscale>  2 0.84009504E+02</rscale>
<asrwt>0</asrwt>
<pdfrwt beam="1">  1       21 0.99426050E-01 0.84009504E+02</pdfrwt>
<pdfrwt beam="2">  1       21 0.18773850E-02 0.84009504E+02</pdfrwt>
<totfact> 0.11372190E+06</totfact>
</mgrwt>
</event>
<event>
 5    1  0.1590180E+000  0.9778830E+02  0.7546771E-02  0.1285017E+00
         21   -1    0    0  501  502  0.00000000000E+00  0.00000000000E+00  0.31698584287E+03  0.31698584287E+03  0.00000000000E+00 0. -1.
         21   -1    0    0  502  503 -0.00000000000E+00 -0.00000000000E+00 -0.90659855311E+02  0.90659855311E+02  0.00000000000E+00 0. -1.
         24    1    1    2    0    0  0.37815031115E+02  0.18987698488E+02 -0.55322090529E+02  0.10638730623E+03  0.80419002446E+02 0. -1.
          1    1    1    2  501    0  0.16779491715E+02 -0.42174794521E+02  0.15307935514E+03  0.15966700851E+03  0.00000000000E+00 0. -1.
         -2    1    1    2    0  503 -0.54594522830E+02  0.23187096034E+02  0.12856872295E+03  0.14159138344E+03  0.00000000000E+00 0.  1.
<mgrwt>
<rscale>  2 0.97788305E+02</rscale>
<asrwt>0</asrwt>
<pdfrwt beam="1">  1       21 0.48767052E-01 0.97788305E+02</pdfrwt>
<pdfrwt beam="2">  1       21 0.13947670E-01 0.97788305E+02</pdfrwt>
<totfact> 0.18481589E+05</totfact>
</mgrwt>
</event>
<event>
 5    1  0.1590180E+000  0.9215355E+02  0.7546771E-02  0.1297719E+00
         21   -1    0    0  503  502  0.00000000000E+00  0.00000000000E+00  0.38603071310E+03  0.38603071310E+03  0.00000000000E+00 0. -1.
         21   -1    0    0  501  503 -0.00000000000E+00 -0.00000000000E+00 -0.26340455001E+02  0.26340455001E+02  0.00000000000E+00 0.  1.
         24    1    1    2    0    0 -0.59816136830E+02 -0.43446716118E+02  0.13001994187E+03  0.16981751560E+03  0.80419002446E+02 0.  1.
          1    1    1    2  501    0  0.38207713716E+02  0.19786617567E+02  0.97805207723E+02  0.10685129049E+03  0.00000000000E+00 0. -1.
         -2    1    1    2    0  502  0.21608423114E+02  0.23660098551E+02  0.13186510851E+03  0.13570236201E+03  0.00000000000E+00 0.  1.
<mgrwt>
<rscale>  2 0.92153553E+02</rscale>
<asrwt>0</asrwt>
<pdfrwt beam="1">  1       21 0.59389336E-01 0.92153553E+02</pdfrwt>
<pdfrwt beam="2">  1       21 0.40523780E-02 0.92153553E+02</pdfrwt>
<totfact> 0.10148271E+06</totfact>
</mgrwt>
</event>
<event>
 5    1  0.1590180E+000  0.7661910E+02  0.7546771E-02  0.1338929E+00
         21   -1    0    0  503  502  0.00000000000E+00  0.00000000000E+00  0.24962173497E+02  0.24962173497E+02  0.00000000000E+00 0.  1.
         21   -1    0    0  501  503 -0.00000000000E+00 -0.00000000000E+00 -0.23665444795E+03  0.23665444795E+03  0.00000000000E+00 0. -1.
         24    1    1    2    0    0  0.23816335819E+02 -0.22969948898E+02 -0.12836065744E+03  0.15504357690E+03  0.80419002446E+02 0.  0.
          1    1    1    2  501    0 -0.39349720701E+02  0.98847488310E+00 -0.53051893289E+02  0.66059677439E+02  0.00000000000E+00 0. -1.
         -2    1    1    2    0  502  0.15533384882E+02  0.21981474015E+02 -0.30279723724E+02  0.40513367110E+02  0.00000000000E+00 0.  1.
<mgrwt>
<rscale>  2 0.76619100E+02</rscale>
<asrwt>0</asrwt>
<pdfrwt beam="1">  1       21 0.38403343E-02 0.76619100E+02</pdfrwt>
<pdfrwt beam="2">  1       21 0.36408377E-01 0.76619100E+02</pdfrwt>
<totfact> 0.29566904E+06</totfact>
</mgrwt>
</event>
<event>
 5    1  0.1590180E+000  0.7438475E+02  0.7546771E-02  0.1345787E+00
         21   -1    0    0  503  502  0.00000000000E+00  0.00000000000E+00  0.12232755973E+03  0.12232755973E+03  0.00000000000E+00 0. -1.
         21   -1    0    0  501  503 -0.00000000000E+00 -0.00000000000E+00 -0.58250481054E+02  0.58250481054E+02  0.00000000000E+00 0.  1.
         24    1    1    2    0    0 -0.21879480962E+02 -0.10169229957E+02  0.56298323890E+02  0.10108828890E+03  0.80419002446E+02 0.  0.
          1    1    1    2  501    0  0.41591734909E+02 -0.20058464609E+01 -0.17528027571E+02  0.45178839995E+02  0.00000000000E+00 0. -1.
         -2    1    1    2    0  502 -0.19712253947E+02  0.12175076418E+02  0.25306782354E+02  0.34310911888E+02  0.00000000000E+00 0.  1.
<mgrwt>
<rscale>  2 0.74384745E+02</rscale>
<asrwt>0</asrwt>
<pdfrwt beam="1">  1       21 0.18819625E-01 0.74384745E+02</pdfrwt>
<pdfrwt beam="2">  1       21 0.89616125E-02 0.74384745E+02</pdfrwt>
<totfact> 0.24654859E+06</totfact>
</mgrwt>
</event>
<event>
 5    1  0.1590180E+000  0.8804090E+02  0.7546771E-02  0.1307666E+00
         21   -1    0    0  501  502  0.00000000000E+00  0.00000000000E+00  0.78062126037E+01  0.78062126037E+01  0.00000000000E+00 0. -1.
         21   -1    0    0  502  503 -0.00000000000E+00 -0.00000000000E+00 -0.16163756760E+04  0.16163756760E+04  0.00000000000E+00 0.  1.
         24    1    1    2    0    0 -0.42701726301E+02 -0.32807249704E+02 -0.60260149515E+03  0.61032411960E+03  0.80419002446E+02 0.  1.
          1    1    1    2  501    0  0.23374379085E+02 -0.14972071783E+02 -0.56093009608E+02  0.62585543522E+02  0.00000000000E+00 0. -1.
         -2    1    1    2    0  503  0.19327347216E+02  0.47779321487E+02 -0.94987495866E+03  0.95127222549E+03  0.00000000000E+00 0.  1.
<mgrwt>
<rscale>  2 0.88040899E+02</rscale>
<asrwt>0</asrwt>
<pdfrwt beam="1">  1       21 0.12009560E-02 0.88040899E+02</pdfrwt>
<pdfrwt beam="2">  1       21 0.24867315E+00 0.88040899E+02</pdfrwt>
<totfact> 0.20540155E+05</totfact>
</mgrwt>
</event>
<event>
 5    1  0.1590180E+000  0.9804668E+02  0.7546771E-02  0.1284458E+00
         21   -1    0    0  503  502  0.00000000000E+00  0.00000000000E+00  0.11097165047E+03  0.11097165047E+03  0.00000000000E+00 0.  1.
         21   -1    0    0  501  503 -0.00000000000E+00 -0.00000000000E+00 -0.16338695098E+03  0.16338695098E+03  0.00000000000E+00 0.  1.
         24    1    1    2    0    0 -0.73671001529E+02 -0.34659176120E+02 -0.47670870976E+02  0.12396936254E+03  0.80419002446E+02 0.  1.
          1    1    1    2  501    0  0.26566070246E+02  0.15847262765E+02 -0.64785023768E+02  0.71791302607E+02  0.00000000000E+00 0. -1.
         -2    1    1    2    0  502  0.47104931283E+02  0.18811913355E+02  0.60040594232E+02  0.78597936302E+02  0.00000000000E+00 0.  1.
<mgrwt>
<rscale>  2 0.98046678E+02</rscale>
<asrwt>0</asrwt>
<pdfrwt beam="1">  1       21 0.17072562E-01 0.98046678E+02</pdfrwt>
<pdfrwt beam="2">  1       21 0.25136454E-01 0.98046678E+02</pdfrwt>
<totfact> 0.46904263E+05</totfact>
</mgrwt>
</event>
<event>
 5    1  0.1590180E+000  0.1058104E+03  0.7546771E-02  0.1268531E+00
         21   -1    0    0  503  502  0.00000000000E+00  0.00000000000E+00  0.22103333567E+02  0.22103333567E+02  0.00000000000E+00 0.  1.
         21   -1    0    0  501  503 -0.00000000000E+00 -0.00000000000E+00 -0.65647008860E+03  0.65647008860E+03  0.00000000000E+00 0.  1.
         24    1    1    2    0    0 -0.62931153028E+02  0.52385660100E+02 -0.48848831907E+03  0.50178943914E+03  0.80419002446E+02 0.  1.
          1    1    1    2  501    0  0.30133367025E+02  0.52027829989E+01 -0.27544528542E+02  0.41155677759E+02  0.00000000000E+00 0. -1.
         -2    1    1    2    0  502  0.32797786003E+02 -0.57588443099E+02 -0.11833390741E+03  0.13562830527E+03  0.00000000000E+00 0.  1.
<mgrwt>
<rscale>  2 0.10581040E+03</rscale>
<asrwt>0</asrwt>
<pdfrwt beam="1">  1       21 0.34005125E-02 0.10581040E+03</pdfrwt>
<pdfrwt beam="2">  1       21 0.10099541E+00 0.10581040E+03</pdfrwt>
<totfact> 0.41952721E+05</totfact>
</mgrwt>
</event>
<event>
 5    1  0.1590180E+000  0.7816234E+02  0.7546771E-02  0.1334349E+00
         21   -1    0    0  503  502  0.00000000000E+00  0.00000000000E+00  0.42702830169E+03  0.42702830169E+03  0.00000000000E+00 0. -1.
         21   -1    0    0  501  503 -0.00000000000E+00 -0.00000000000E+00 -0.17255075185E+02  0.17255075185E+02  0.00000000000E+00 0.  1.
         24    1    1    2    0    0 -0.35388917117E+01 -0.18086608102E+00  0.14273614924E+03  0.16387001166E+03  0.80419002446E+02 0.  1.
          1    1    1    2  501    0  0.13466134263E+02  0.36116888419E+02  0.70290251083E+02  0.80165365329E+02  0.00000000000E+00 0. -1.
         -2    1    1    2    0  502 -0.99272425514E+01 -0.35936022338E+02  0.19674682618E+03  0.20024799989E+03  0.00000000000E+00 0.  1.
<mgrwt>
<rscale>  2 0.78162339E+02</rscale>
<asrwt>0</asrwt>
<pdfrwt beam="1">  1       21 0.65696654E-01 0.78162339E+02</pdfrwt>
<pdfrwt beam="2">  1       21 0.26546273E-02 0.78162339E+02</pdfrwt>
<totfact> 0.16272795E+06</totfact>
</mgrwt>
</event>
<event>
 5    1  0.1590180E+000  0.8524352E+02  0.7546771E-02  0.1314797E+00
         21   -1    0    0  501  502  0.00000000000E+00  0.00000000000E+00  0.91681013973E+02  0.91681013973E+02  0.00000000000E+00 0. -1.
         21   -1    0    0  502  503 -0.00000000000E+00 -0.00000000000E+00 -0.19855875092E+03  0.19855875092E+03  0.00000000000E+00 0.  1.
         24    1    1    2    0    0  0.13069406531E+02 -0.41452780648E+02  0.19230841680E+02  0.93414044108E+02  0.80419002446E+02 0. -1.
          1    1    1    2  501    0 -0.16555628494E+02 -0.15103717413E+02  0.26106505011E+02  0.34405823902E+02  0.00000000000E+00 0. -1.
         -2    1    1    2    0  503  0.34862219630E+01  0.56556498062E+02 -0.15221508364E+03  0.16241989688E+03  0.00000000000E+00 0.  1.
<mgrwt>
<rscale>  2 0.85243515E+02</rscale>
<asrwt>0</asrwt>
<pdfrwt beam="1">  1       21 0.14104771E-01 0.85243515E+02</pdfrwt>
<pdfrwt beam="2">  1       21 0.30547500E-01 0.85243515E+02</pdfrwt>
<totfact> 0.45669658E+05</totfact>
</mgrwt>
</event>
<event>
 5    1  0.1590180E+000  0.6491663E+02  0.7546771E-02  0.1378285E+00
         21   -1    0    0  501  502  0.00000000000E+00  0.00000000000E+00  0.29181961802E+03  0.29181961802E+03  0.00000000000E+00 0. -1.
         21   -1    0    0  502  503 -0.00000000000E+00 -0.00000000000E+00 -0.14538927388E+02  0.14538927388E+02  0.00000000000E+00 0.  1.
         24    1    1    2    0    0 -0.69853460953E+01 -0.51518362551E+00  0.18053600194E+03  0.19776128141E+03  0.80419002446E+02 0. -1.
          1    1    1    2  501    0 -0.23714558822E+01  0.23850691111E+02  0.52394945489E+02  0.57616920972E+02  0.00000000000E+00 0. -1.
         -2    1    1    2    0  503  0.93568019774E+01 -0.23335507485E+02  0.44349743203E+02  0.50980343025E+02  0.00000000000E+00 0.  1.
<mgrwt>
<rscale>  2 0.64916633E+02</rscale>
<asrwt>0</asrwt>
<pdfrwt beam="1">  1       21 0.44895321E-01 0.64916633E+02</pdfrwt>
<pdfrwt beam="2">  1       21 0.22367583E-02 0.64916633E+02</pdfrwt>
<totfact> 0.46347091E+06</totfact>
</mgrwt>
</event>
<event>
 5    1  0.1590180E+000  0.8691719E+02  0.7546771E-02  0.1310494E+00
         21   -1    0    0  501  502  0.00000000000E+00  0.00000000000E+00  0.11843084449E+03  0.11843084449E+03  0.00000000000E+00 0.  1.
         21   -1    0    0  502  503 -0.00000000000E+00 -0.00000000000E+00 -0.70066587508E+02  0.70066587508E+02  0.00000000000E+00 0.  1.
         24    1    1    2    0    0  0.13451686571E+02  0.19252664845E+02  0.14338718456E+01  0.83790720955E+02  0.80419002446E+02 0.  1.
          1    1    1    2  501    0  0.37100349382E+02 -0.43588984035E+01  0.33841581374E+02  0.50405243274E+02  0.00000000000E+00 0. -1.
         -2    1    1    2    0  503 -0.50552035953E+02 -0.14893766442E+02  0.13088803759E+02  0.54301467768E+02  0.00000000000E+00 0.  1.
<mgrwt>
<rscale>  2 0.86917195E+02</rscale>
<asrwt>0</asrwt>
<pdfrwt beam="1">  1       21 0.18220130E-01 0.86917195E+02</pdfrwt>
<pdfrwt beam="2">  1       21 0.10779475E-01 0.86917195E+02</pdfrwt>
<totfact> 0.19145301E+06</totfact>
</mgrwt>
</event>
<event>
 5    1  0.1590180E+000  0.8380630E+02  0.7546771E-02  0.1318584E+00
         21   -1    0    0  501  502  0.00000000000E+00  0.00000000000E+00  0.10227004936E+03  0.10227004936E+03  0.00000000000E+00 0. -1.
         21   -1    0    0  502  503 -0.00000000000E+00 -0.00000000000E+00 -0.23003063897E+03  0.23003063897E+03  0.00000000000E+00 0.  1.
         24    1    1    2    0    0 -0.24779477995E+02  0.24852043636E+02  0.66669718284E+02  0.11019852038E+03  0.80419002446E+02 0. -1.
          1    1    1    2  501    0  0.47647392479E+02 -0.30163925661E+02 -0.48752856882E+02  0.74545137169E+02  0.00000000000E+00 0. -1.
         -2    1    1    2    0  503 -0.22867914484E+02  0.53118820250E+01 -0.14567745101E+03  0.14755703079E+03  0.00000000000E+00 0.  1.
<mgrwt>
<rscale>  2 0.83806303E+02</rscale>
<asrwt>0</asrwt>
<pdfrwt beam="1">  1       21 0.15733854E-01 0.83806303E+02</pdfrwt>
<pdfrwt beam="2">  1       21 0.35389329E-01 0.83806303E+02</pdfrwt>
<totfact> 0.28317340E+05</totfact>
</mgrwt>
</event>
<event>
 5    1  0.1590180E+000  0.1075589E+03  0.7546771E-02  0.1265158E+00
         21   -1    0    0  501  502  0.00000000000E+00  0.00000000000E+00  0.31258653243E+03  0.31258653243E+03  0.00000000000E+00 0.  1.
         21   -1    0    0  502  503 -0.00000000000E+00 -0.00000000000E+00 -0.37727810056E+02  0.37727810056E+02  0.00000000000E+00 0.  1.
         24    1    1    2    0    0  0.21748892650E+02 -0.69541975799E+02  0.16151858174E+03  0.19458820347E+03  0.80419002446E+02 0.  1.
          1    1    1    2  501    0  0.28108679599E+02  0.39194356194E+02  0.55964215867E+02  0.73880233377E+02  0.00000000000E+00 0. -1.
         -2    1    1    2    0  503 -0.49857572249E+02  0.30347619605E+02  0.57375924765E+02  0.81845905634E+02  0.00000000000E+00 0.  1.
<mgrwt>
<rscale>  2 0.10755892E+03</rscale>
<asrwt>0</asrwt>
<pdfrwt beam="1">  1       21 0.48090234E-01 0.10755892E+03</pdfrwt>
<pdfrwt beam="2">  1       21 0.58042787E-02 0.10755892E+03</pdfrwt>
<totfact> 0.86447626E+05</totfact>
</mgrwt>
</event>
<event>
 5    1  0.1590180E+000  0.9988848E+02  0.7546771E-02  0.1280531E+00
         21   -1    0    0  501  502  0.00000000000E+00  0.00000000000E+00  0.14916037388E+03  0.14916037388E+03  0.00000000000E+00 0. -1.
         21   -1    0    0  502  503 -0.00000000000E+00 -0.00000000000E+00 -0.13935708328E+03  0.13935708328E+03  0.00000000000E+00 0. -1.
         24    1    1    2    0    0  0.81369190182E+02 -0.84331554280E+00 -0.38815466214E+02  0.12081188958E+03  0.80419002446E+02 0. -1.
          1    1    1    2  501    0 -0.26635313098E+02  0.12478463577E+02  0.92200959451E+02  0.96778969207E+02  0.00000000000E+00 0. -1.
         -2    1    1    2    0  503 -0.54733877084E+02 -0.11635148034E+02 -0.43582202634E+02  0.70926598373E+02  0.00000000000E+00 0.  1.
<mgrwt>
<rscale>  2 0.99888484E+02</rscale>
<asrwt>0</asrwt>
<pdfrwt beam="1">  1       21 0.22947750E-01 0.99888484E+02</pdfrwt>
<pdfrwt beam="2">  1       21 0.21439551E-01 0.99888484E+02</pdfrwt>
<totfact> 0.36664312E+05</totfact>
</mgrwt>
</event>
<event>
 5    1  0.1590180E+000  0.1027466E+03  0.7546771E-02  0.1274624E+00
         21   -1    0    0  501  502  0.00000000000E+00  0.00000000000E+00  0.11245641189E+03  0.11245641189E+03  0.00000000000E+00 0. -1.
         21   -1    0    0  502  503 -0.00000000000E+00 -0.00000000000E+00 -0.17153471018E+03  0.17153471018E+03  0.00000000000E+00 0. -1.
         24    1    1    2    0    0 -0.23438123495E+02 -0.59212540867E+02 -0.84072562158E+02  0.13263062350E+03  0.80419002446E+02 0. -1.
          1    1    1    2  501    0 -0.28951375292E+02  0.89291892800E+01  0.62628379354E+02  0.69571736022E+02  0.00000000000E+00 0. -1.
         -2    1    1    2    0  503  0.52389498788E+02  0.50283351587E+02 -0.37634115490E+02  0.81788762545E+02  0.00000000000E+00 0.  1.
<mgrwt>
<rscale>  2 0.10274658E+03</rscale>
<asrwt>0</asrwt>
<pdfrwt beam="1">  1       21 0.17300986E-01 0.10274658E+03</pdfrwt>
<pdfrwt beam="2">  1       21 0.26389955E-01 0.10274658E+03</pdfrwt>
<totfact> 0.41767261E+05</totfact>
</mgrwt>
</event>
<event>
 5    1  0.2111747E+000  0.9461494E+02  0.7546771E-02  0.1292046E+00
         21   -1    0    0  503  502  0.00000000000E+00  0.00000000000E+00  0.96735333839E+02  0.96735333839E+02  0.00000000000E+00 0. -1.
         21   -1    0    0  501  503 -0.00000000000E+00 -0.00000000000E+00 -0.84561237920E+03  0.84561237920E+03  0.00000000000E+00 0. -1.
         24    1    1    2    0    0  0.22790285584E+02  0.73833985558E+01 -0.57566584804E+02  0.10175971370E+03  0.80419002446E+02 0. -1.
          1    1    1    2  501    0  0.54781614039E+01  0.45246678126E+02 -0.75319467202E+03  0.75457238625E+03  0.00000000000E+00 0. -1.
         -2    1    1    2    0  502 -0.28268446988E+02 -0.52630076681E+02  0.61884211464E+02  0.86015613089E+02  0.00000000000E+00 0.  1.
<mgrwt>
<rscale>  2 0.94614944E+02</rscale>
<asrwt>0</asrwt>
<pdfrwt beam="1">  1       21 0.14882358E-01 0.94614944E+02</pdfrwt>
<pdfrwt beam="2">  1       21 0.13009422E+00 0.94614944E+02</pdfrwt>
<totfact> 0.18596596E+04</totfact>
</mgrwt>
</event>
<event>
 5    1  0.1590180E+000  0.1067724E+03  0.7546771E-02  0.1266666E+00
         21   -1    0    0  503  502  0.00000000000E+00  0.00000000000E+00  0.28238408277E+02  0.28238408277E+02  0.00000000000E+00 0. -1.
         21   -1    0    0  501  503 -0.00000000000E+00 -0.00000000000E+00 -0.78953509993E+03  0.78953509993E+03  0.00000000000E+00 0. -1.
         24    1    1    2    0    0  0.77543022919E+02  0.28322359739E+02 -0.40310261297E+03  0.41925411029E+03  0.80419002446E+02 0. -1.
          1    1    1    2  501    0 -0.25364520370E+01 -0.22958076196E+02 -0.30626197331E+03  0.30713173582E+03  0.00000000000E+00 0. -1.
         -2    1    1    2    0  502 -0.75006570882E+02 -0.53642835430E+01 -0.51932105371E+02  0.91387662086E+02  0.00000000000E+00 0.  1.
<mgrwt>
<rscale>  2 0.10677237E+03</rscale>
<asrwt>0</asrwt>
<pdfrwt beam="1">  1       21 0.43443698E-02 0.10677237E+03</pdfrwt>
<pdfrwt beam="2">  1       21 0.12146696E+00 0.10677237E+03</pdfrwt>
<totfact> 0.18049243E+05</totfact>
</mgrwt>
</event>
<event>
 5    1  0.1590180E+000  0.9223371E+02  0.7546771E-02  0.1297531E+00
         21   -1    0    0  501  502  0.00000000000E+00  0.00000000000E+00  0.47843076855E+03  0.47843076855E+03  0.00000000000E+00 0. -1.
         21   -1    0    0  502  503 -0.00000000000E+00 -0.00000000000E+00 -0.42430841475E+02  0.42430841475E+02  0.00000000000E+00 0.  1.
         24    1    1    2    0    0 -0.42240139715E+02  0.26951183903E+02  0.18853106875E+03  0.21100183780E+03  0.80419002446E+02 0. -1.
          1    1    1    2  501    0  0.53681648035E+02 -0.43845559009E+02  0.27041338143E+03  0.27915506307E+03  0.00000000000E+00 0. -1.
         -2    1    1    2    0  503 -0.11441508321E+02  0.16894375106E+02 -0.22944523114E+02  0.30704709147E+02  0.00000000000E+00 0.  1.
<mgrwt>
<rscale>  2 0.92233713E+02</rscale>
<asrwt>0</asrwt>
<pdfrwt beam="1">  1       21 0.73604730E-01 0.92233713E+02</pdfrwt>
<pdfrwt beam="2">  1       21 0.65278221E-02 0.92233713E+02</pdfrwt>
<totfact> 0.28960146E+05</totfact>
</mgrwt>
</event>
<event>
 5    1  0.1590180E+000  0.1056679E+03  0.7546771E-02  0.1268809E+00
         21   -1    0    0  503  502  0.00000000000E+00  0.00000000000E+00  0.80911466887E+02  0.80911466887E+02  0.00000000000E+00 0. -1.
         21   -1    0    0  501  503 -0.00000000000E+00 -0.00000000000E+00 -0.14428610368E+03  0.14428610368E+03  0.00000000000E+00 0. -1.
         24    1    1    2    0    0  0.41402986736E+02 -0.46138385972E+02 -0.10139081290E+02  0.10204398510E+03  0.80419002446E+02 0. -1.
          1    1    1    2  501    0  0.23646428338E+02  0.37280144913E+02 -0.30583028518E+02  0.53705534270E+02  0.00000000000E+00 0. -1.
         -2    1    1    2    0  502 -0.65049415074E+02  0.88582410596E+01 -0.22652526981E+02  0.69448051195E+02  0.00000000000E+00 0.  1.
<mgrwt>
<rscale>  2 0.10566794E+03</rscale>
<asrwt>0</asrwt>
<pdfrwt beam="1">  1       21 0.12447918E-01 0.10566794E+03</pdfrwt>
<pdfrwt beam="2">  1       21 0.22197862E-01 0.10566794E+03</pdfrwt>
<totfact> 0.10409757E+06</totfact>
</mgrwt>
</event>
<event>
 5    1  0.1590180E+000  0.1231956E+03  0.7546771E-02  0.1237917E+00
         21   -1    0    0  503  502  0.00000000000E+00  0.00000000000E+00  0.62315182920E+03  0.62315182920E+03  0.00000000000E+00 0. -1.
         21   -1    0    0  501  503 -0.00000000000E+00 -0.00000000000E+00 -0.47025521739E+02  0.47025521739E+02  0.00000000000E+00 0. -1.
         24    1    1    2    0    0 -0.42163122031E+02 -0.98131307077E+02  0.38190975759E+03  0.40463534347E+03  0.80419002446E+02 0. -1.
          1    1    1    2  501    0  0.21564472558E+02  0.86271835131E+02  0.21885645863E+02  0.91579678468E+02  0.00000000000E+00 0. -1.
         -2    1    1    2    0  502  0.20598649472E+02  0.11859471946E+02  0.17233090401E+03  0.17396232900E+03  0.00000000000E+00 0.  1.
<mgrwt>
<rscale>  2 0.12319556E+03</rscale>
<asrwt>0</asrwt>
<pdfrwt beam="1">  1       21 0.95869506E-01 0.12319556E+03</pdfrwt>
<pdfrwt beam="2">  1       21 0.72346961E-02 0.12319556E+03</pdfrwt>
<totfact> 0.13302473E+05</totfact>
</mgrwt>
</event>
<event>
 5    1  0.1590180E+000  0.1225084E+03  0.7546771E-02  0.1239015E+00
         21   -1    0    0  503  502  0.00000000000E+00  0.00000000000E+00  0.66383556301E+03  0.66383556301E+03  0.00000000000E+00 0.  1.
         21   -1    0    0  501  503 -0.00000000000E+00 -0.00000000000E+00 -0.51843204146E+02  0.51843204146E+02  0.00000000000E+00 0. -1.
         24    1    1    2    0    0 -0.34900056593E+02  0.85211449188E+02  0.16445684550E+03  0.20492016740E+03  0.80419002446E+02 0. -1.
          1    1    1    2  501    0 -0.25013941216E+02 -0.10846723440E+02 -0.19844720676E+02  0.33721826808E+02  0.00000000000E+00 0. -1.
         -2    1    1    2    0  502  0.59913997809E+02 -0.74364725748E+02  0.46738023404E+03  0.47703677294E+03  0.00000000000E+00 0.  1.
<mgrwt>
<rscale>  2 0.12250840E+03</rscale>
<asrwt>0</asrwt>
<pdfrwt beam="1">  1       21 0.10212854E+00 0.12250840E+03</pdfrwt>
<pdfrwt beam="2">  1       21 0.79758781E-02 0.12250840E+03</pdfrwt>
<totfact> 0.97116982E+04</totfact>
</mgrwt>
</event>
<event>
 5    1  0.1590180E+000  0.7122645E+02  0.7546771E-02  0.1355971E+00
         21   -1    0    0  503  502  0.00000000000E+00  0.00000000000E+00  0.50219382285E+03  0.50219382285E+03  0.00000000000E+00 0.  1.
         21   -1    0    0  501  503 -0.00000000000E+00 -0.00000000000E+00 -0.75301884928E+02  0.75301884928E+02  0.00000000000E+00 0. -1.
         24    1    1    2    0    0  0.37301840085E+02 -0.45335455258E+01  0.73380780746E+02  0.11516915927E+03  0.80419002446E+02 0.  1.
          1    1    1    2  501    0 -0.15900655663E+02 -0.17035565778E+02 -0.51316725873E+02  0.56359983199E+02  0.00000000000E+00 0. -1.
         -2    1    1    2    0  502 -0.21401184422E+02  0.21569111304E+02  0.40482788305E+03  0.40596656531E+03  0.00000000000E+00 0.  1.
<mgrwt>
<rscale>  2 0.71226452E+02</rscale>
<asrwt>0</asrwt>
<pdfrwt beam="1">  1       21 0.77260586E-01 0.71226452E+02</pdfrwt>
<pdfrwt beam="2">  1       21 0.11584906E-01 0.71226452E+02</pdfrwt>
<totfact> 0.98403831E+04</totfact>
</mgrwt>
</event>
<event>
 5    1  0.1590180E+000  0.8276803E+02  0.7546771E-02  0.1321375E+00
         21   -1    0    0  503  502  0.00000000000E+00  0.00000000000E+00  0.14434507972E+04  0.14434507972E+04  0.00000000000E+00 0.  1.
         21   -1    0    0  501  503 -0.00000000000E+00 -0.00000000000E+00 -0.43224533208E+02  0.43224533208E+02  0.00000000000E+00 0. -1.
         24    1    1    2    0    0 -0.50334294860E+00  0.23514894274E+02  0.30605640310E+03  0.31731835976E+03  0.80419002446E+02 0.  1.
          1    1    1    2  501    0  0.39392391881E+02 -0.11128418981E+02 -0.25967754162E+02  0.48476040508E+02  0.00000000000E+00 0. -1.
         -2    1    1    2    0  502 -0.38889048932E+02 -0.12386475293E+02  0.11201376150E+04  0.11208809301E+04  0.00000000000E+00 0.  1.
<mgrwt>
<rscale>  2 0.82768034E+02</rscale>
<asrwt>0</asrwt>
<pdfrwt beam="1">  1       21 0.22206932E+00 0.82768034E+02</pdfrwt>
<pdfrwt beam="2">  1       21 0.66499293E-02 0.82768034E+02</pdfrwt>
<totfact> 0.18260476E+04</totfact>
</mgrwt>
</event>
<event>
 5    1  0.1590180E+000  0.1079515E+03  0.7546771E-02  0.1264411E+00
         21   -1    0    0  503  502  0.00000000000E+00  0.00000000000E+00  0.18032959670E+03  0.18032959670E+03  0.00000000000E+00 0. -1.
         21   -1    0    0  501  503 -0.00000000000E+00 -0.00000000000E+00 -0.79654345354E+02  0.79654345354E+02  0.00000000000E+00 0. -1.
         24    1    1    2    0    0  0.35092213102E+02  0.54201802659E+02  0.10452125784E+03  0.14683735263E+03  0.80419002446E+02 0. -1.
          1    1    1    2  501    0 -0.62258415439E+02 -0.58302732860E+02  0.70397128182E+00  0.85298385257E+02  0.00000000000E+00 0. -1.
         -2    1    1    2    0  502  0.27166202337E+02  0.41009302011E+01 -0.45499777715E+01  0.27848204173E+02  0.00000000000E+00 0.  1.
<mgrwt>
<rscale>  2 0.10795148E+03</rscale>
<asrwt>0</asrwt>
<pdfrwt beam="1">  1       21 0.27743015E-01 0.10795148E+03</pdfrwt>
<pdfrwt beam="2">  1       21 0.12254515E-01 0.10795148E+03</pdfrwt>
<totfact> 0.70403673E+05</totfact>
</mgrwt>
</event>
<event>
 5    1  0.1590180E+000  0.7029111E+02  0.7546771E-02  0.1359106E+00
         21   -1    0    0  503  502  0.00000000000E+00  0.00000000000E+00  0.40600595504E+01  0.40600595504E+01  0.00000000000E+00 0. -1.
         21   -1    0    0  501  503 -0.00000000000E+00 -0.00000000000E+00 -0.16715814307E+04  0.16715814307E+04  0.00000000000E+00 0. -1.
         24    1    1    2    0    0 -0.43832092080E+02  0.17747252910E+02 -0.65366428671E+03  0.66028814388E+03  0.80419002446E+02 0. -1.
          1    1    1    2  501    0  0.20947334382E+02 -0.82880910933E+01 -0.74964105074E+03  0.74997945854E+03  0.00000000000E+00 0. -1.
         -2    1    1    2    0  502  0.22884757698E+02 -0.94591618165E+01 -0.26421603372E+03  0.26537388785E+03  0.00000000000E+00 0.  1.
<mgrwt>
<rscale>  2 0.70291106E+02</rscale>
<asrwt>0</asrwt>
<pdfrwt beam="1">  1       21 0.62462424E-03 0.70291106E+02</pdfrwt>
<pdfrwt beam="2">  1       21 0.25716650E+00 0.70291106E+02</pdfrwt>
<totfact> 0.51777153E+05</totfact>
</mgrwt>
</event>
<event>
 5    1  0.1590180E+000  0.7920112E+02  0.7546771E-02  0.1331334E+00
         21   -1    0    0  501  502  0.00000000000E+00  0.00000000000E+00  0.44534869952E+03  0.44534869952E+03  0.00000000000E+00 0. -1.
         21   -1    0    0  502  503 -0.00000000000E+00 -0.00000000000E+00 -0.21033060385E+03  0.21033060385E+03  0.00000000000E+00 0. -1.
         24    1    1    2    0    0  0.88516442585E+01  0.47577998148E+01  0.10125933830E+01  0.81050783863E+02  0.80419002446E+02 0. -1.
          1    1    1    2  501    0 -0.42905722335E+02  0.44829638717E+00  0.40141979656E+03  0.40370652094E+03  0.00000000000E+00 0. -1.
         -2    1    1    2    0  503  0.34054078077E+02 -0.52060962020E+01 -0.16741429426E+03  0.17092199857E+03  0.00000000000E+00 0.  1.
<mgrwt>
<rscale>  2 0.79201125E+02</rscale>
<asrwt>0</asrwt>
<pdfrwt beam="1">  1       21 0.68515184E-01 0.79201125E+02</pdfrwt>
<pdfrwt beam="2">  1       21 0.32358554E-01 0.79201125E+02</pdfrwt>
<totfact> 0.19529545E+04</totfact>
</mgrwt>
</event>
<event>
 5    1  0.1590180E+000  0.8662289E+02  0.7546771E-02  0.1311242E+00
         21   -1    0    0  501  502  0.00000000000E+00  0.00000000000E+00  0.11338919134E+03  0.11338919134E+03  0.00000000000E+00 0. -1.
         21   -1    0    0  502  503 -0.00000000000E+00 -0.00000000000E+00 -0.15672982130E+03  0.15672982130E+03  0.00000000000E+00 0.  1.
         24    1    1    2    0    0  0.27651849982E+02 -0.16017032118E+02  0.29458803527E+02  0.91412292307E+02  0.80419002446E+02 0.  0.
          1    1    1    2  501    0 -0.40109748288E+02  0.41888798363E+02  0.34601662471E+02  0.67533239089E+02  0.00000000000E+00 0. -1.
         -2    1    1    2    0  503  0.12457898306E+02 -0.25871766245E+02 -0.10740109596E+03  0.11117348125E+03  0.00000000000E+00 0.  1.
<mgrwt>
<rscale>  2 0.86622885E+02</rscale>
<asrwt>0</asrwt>
<pdfrwt beam="1">  1       21 0.17444491E-01 0.86622885E+02</pdfrwt>
<pdfrwt beam="2">  1       21 0.24112280E-01 0.86622885E+02</pdfrwt>
<totfact> 0.48775167E+05</totfact>
</mgrwt>
</event>
<event>
 5    1  0.1590180E+000  0.1176813E+03  0.7546771E-02  0.1246972E+00
         21   -1    0    0  501  502  0.00000000000E+00  0.00000000000E+00  0.22074204363E+03  0.22074204363E+03  0.00000000000E+00 0. -1.
         21   -1    0    0  502  503 -0.00000000000E+00 -0.00000000000E+00 -0.31809269720E+03  0.31809269720E+03  0.00000000000E+00 0.  1.
         24    1    1    2    0    0 -0.10224734004E+02 -0.10210781065E+03  0.42537815758E+02  0.13713946151E+03  0.80419002446E+02 0. -1.
          1    1    1    2  501    0  0.16801998267E+02  0.57758425032E+02  0.12198589742E+03  0.13601066861E+03  0.00000000000E+00 0. -1.
         -2    1    1    2    0  503 -0.65772642636E+01  0.44349385614E+02 -0.26187436675E+03  0.26568461071E+03  0.00000000000E+00 0.  1.
<mgrwt>
<rscale>  2 0.11768130E+03</rscale>
<asrwt>0</asrwt>
<pdfrwt beam="1">  1       21 0.33960314E-01 0.11768130E+03</pdfrwt>
<pdfrwt beam="2">  1       21 0.48937338E-01 0.11768130E+03</pdfrwt>
<totfact> 0.34755746E+04</totfact>
</mgrwt>
</event>
<event>
 5    1  0.1590180E+000  0.6110649E+02  0.7546771E-02  0.1393246E+00
         21   -1    0    0  503  502  0.00000000000E+00  0.00000000000E+00  0.10535992023E+03  0.10535992023E+03  0.00000000000E+00 0. -1.
         21   -1    0    0  501  503 -0.00000000000E+00 -0.00000000000E+00 -0.37199470533E+02  0.37199470533E+02  0.00000000000E+00 0.  1.
         24    1    1    2    0    0  0.38935618748E+01  0.85986197391E+01  0.36708162889E+02  0.88903325374E+02  0.80419002446E+02 0. -1.
          1    1    1    2  501    0 -0.20709941791E+02  0.28402762434E+01  0.74404156095E+01  0.22188479952E+02  0.00000000000E+00 0. -1.
         -2    1    1    2    0  502  0.16816379917E+02 -0.11438895983E+02  0.24011871202E+02  0.31467585440E+02  0.00000000000E+00 0.  1.
<mgrwt>
<rscale>  2 0.61106487E+02</rscale>
<asrwt>0</asrwt>
<pdfrwt beam="1">  1       21 0.16209218E-01 0.61106487E+02</pdfrwt>
<pdfrwt beam="2">  1       21 0.57229955E-02 0.61106487E+02</pdfrwt>
<totfact> 0.67567540E+06</totfact>
</mgrwt>
</event>
<event>
 5    1  0.1590180E+000  0.6328625E+02  0.7546771E-02  0.1384536E+00
         21   -1    0    0  501  502  0.00000000000E+00  0.00000000000E+00  0.40092283882E+02  0.40092283882E+02  0.00000000000E+00 0. -1.
         21   -1    0    0  502  503 -0.00000000000E+00 -0.00000000000E+00 -0.55861099623E+03  0.55861099623E+03  0.00000000000E+00 0.  1.
         24    1    1    2    0    0 -0.27469334705E+01 -0.15657039601E+02 -0.89378534742E+02  0.12127830375E+03  0.80419002446E+02 0.  0.
          1    1    1    2  501    0 -0.19485487778E+02  0.63303091139E+01  0.19412906831E+02  0.28224422033E+02  0.00000000000E+00 0. -1.
         -2    1    1    2    0  503  0.22232421249E+02  0.93267304869E+01 -0.44855308444E+03  0.44920055433E+03  0.00000000000E+00 0.  1.
<mgrwt>
<rscale>  2 0.63286253E+02</rscale>
<asrwt>0</asrwt>
<pdfrwt beam="1">  1       21 0.61680435E-02 0.63286253E+02</pdfrwt>
<pdfrwt beam="2">  1       21 0.85940155E-01 0.63286253E+02</pdfrwt>
<totfact> 0.22838038E+05</totfact>
</mgrwt>
</event>
<event>
 5    1  0.1590180E+000  0.7007721E+02  0.7546771E-02  0.1359831E+00
         21   -1    0    0  503  502  0.00000000000E+00  0.00000000000E+00  0.37081575533E+02  0.37081575533E+02  0.00000000000E+00 0. -1.
         21   -1    0    0  501  503 -0.00000000000E+00 -0.00000000000E+00 -0.15645788928E+03  0.15645788928E+03  0.00000000000E+00 0.  1.
         24    1    1    2    0    0  0.13704662187E+02  0.44147919611E+01 -0.56876119929E+02  0.99546055303E+02  0.80419002446E+02 0. -1.
          1    1    1    2  501    0 -0.26474079996E+02 -0.23562871118E+02 -0.61469703772E+02  0.70954987766E+02  0.00000000000E+00 0. -1.
         -2    1    1    2    0  502  0.12769417809E+02  0.19148079157E+02 -0.10304900415E+01  0.23038421741E+02  0.00000000000E+00 0.  1.
<mgrwt>
<rscale>  2 0.70077213E+02</rscale>
<asrwt>0</asrwt>
<pdfrwt beam="1">  1       21 0.57048578E-02 0.70077213E+02</pdfrwt>
<pdfrwt beam="2">  1       21 0.24070445E-01 0.70077213E+02</pdfrwt>
<totfact> 0.33542090E+06</totfact>
</mgrwt>
</event>
<event>
 5    1  0.1590180E+000  0.8707193E+02  0.7546771E-02  0.1310101E+00
         21   -1    0    0  501  502  0.00000000000E+00  0.00000000000E+00  0.26468144158E+02  0.26468144158E+02  0.00000000000E+00 0.  1.
         21   -1    0    0  502  503 -0.00000000000E+00 -0.00000000000E+00 -0.46994359208E+03  0.46994359208E+03  0.00000000000E+00 0.  1.
         24    1    1    2    0    0 -0.62703423241E+02 -0.57279863442E+01 -0.94819881470E+02  0.13936482695E+03  0.80419002446E+02 0.  1.
          1    1    1    2  501    0  0.16852352994E+02 -0.14177173135E+02 -0.56391553029E+02  0.60539254146E+02  0.00000000000E+00 0. -1.
         -2    1    1    2    0  503  0.45851070247E+02  0.19905159479E+02 -0.29226401343E+03  0.29650765515E+03  0.00000000000E+00 0.  1.
<mgrwt>
<rscale>  2 0.87071926E+02</rscale>
<asrwt>0</asrwt>
<pdfrwt beam="1">  1       21 0.40720224E-02 0.87071926E+02</pdfrwt>
<pdfrwt beam="2">  1       21 0.72299011E-01 0.87071926E+02</pdfrwt>
<totfact> 0.66149548E+05</totfact>
</mgrwt>
</event>
<event>
 5    1  0.2794421E+000  0.1322888E+03  0.7546771E-02  0.1224099E+00
         21   -1    0    0  503  502  0.00000000000E+00  0.00000000000E+00  0.27447329837E+03  0.27447329837E+03  0.00000000000E+00 0.  1.
         21   -1    0    0  501  503 -0.00000000000E+00 -0.00000000000E+00 -0.36874833503E+03  0.36874833503E+03  0.00000000000E+00 0. -1.
         24    1    1    2    0    0  0.30919564046E+02  0.33715032300E+02  0.87216172729E+00  0.92524048032E+02  0.80419002446E+02 0. -1.
          1    1    1    2  501    0 -0.13478051887E+02 -0.10133356335E+03 -0.30913757068E+03  0.32560126927E+03  0.00000000000E+00 0. -1.
         -2    1    1    2    0  502 -0.17441512159E+02  0.67618531052E+02  0.21399037229E+03  0.22509631610E+03  0.00000000000E+00 0.  1.
<mgrwt>
<rscale>  2 0.13228882E+03</rscale>
<asrwt>0</asrwt>
<pdfrwt beam="1">  1       21 0.42226662E-01 0.13228882E+03</pdfrwt>
<pdfrwt beam="2">  1       21 0.56730513E-01 0.13228882E+03</pdfrwt>
<totfact> 0.16422989E+04</totfact>
</mgrwt>
</event>
<event>
 5    1  0.1590180E+000  0.7888610E+02  0.7546771E-02  0.1332243E+00
         21   -1    0    0  501  502  0.00000000000E+00  0.00000000000E+00  0.36444864677E+02  0.36444864677E+02  0.00000000000E+00 0. -1.
         21   -1    0    0  502  503 -0.00000000000E+00 -0.00000000000E+00 -0.33706395975E+03  0.33706395975E+03  0.00000000000E+00 0. -1.
         24    1    1    2    0    0 -0.10621927899E+02  0.44889629727E+02 -0.38832587045E+02  0.10051412826E+03  0.80419002446E+02 0. -1.
          1    1    1    2  501    0 -0.17897252188E+02 -0.22820005899E+02 -0.47188444698E+02  0.55387847206E+02  0.00000000000E+00 0. -1.
         -2    1    1    2    0  503  0.28519180087E+02 -0.22069623828E+02 -0.21459806333E+03  0.21760684896E+03  0.00000000000E+00 0.  1.
<mgrwt>
<rscale>  2 0.78886102E+02</rscale>
<asrwt>0</asrwt>
<pdfrwt beam="1">  1       21 0.56069021E-02 0.78886102E+02</pdfrwt>
<pdfrwt beam="2">  1       21 0.51855996E-01 0.78886102E+02</pdfrwt>
<totfact> 0.78277651E+05</totfact>
</mgrwt>
</event>
<event>
 5    1  0.1590180E+000  0.6393246E+02  0.7546771E-02  0.1382033E+00
         21   -1    0    0  503  502  0.00000000000E+00  0.00000000000E+00  0.67127076264E+02  0.67127076264E+02  0.00000000000E+00 0.  1.
         21   -1    0    0  501  503 -0.00000000000E+00 -0.00000000000E+00 -0.17785382682E+03  0.17785382682E+03  0.00000000000E+00 0.  1.
         24    1    1    2    0    0 -0.16243454603E+02  0.22959503918E+02 -0.10287026840E+03  0.13356832227E+03  0.80419002446E+02 0.  1.
          1    1    1    2  501    0  0.19992710914E+02 -0.60370697267E+00 -0.55313985917E+02  0.58819299468E+02  0.00000000000E+00 0. -1.
         -2    1    1    2    0  502 -0.37492563117E+01 -0.22355796945E+02  0.47457503763E+02  0.52593281352E+02  0.00000000000E+00 0.  1.
<mgrwt>
<rscale>  2 0.63932464E+02</rscale>
<asrwt>0</asrwt>
<pdfrwt beam="1">  1       21 0.10327243E-01 0.63932464E+02</pdfrwt>
<pdfrwt beam="2">  1       21 0.27362127E-01 0.63932464E+02</pdfrwt>
<totfact> 0.96520046E+05</totfact>
</mgrwt>
</event>
<event>
 5    1  0.1590180E+000  0.6344819E+02  0.7546771E-02  0.1383906E+00
         21   -1    0    0  501  502  0.00000000000E+00  0.00000000000E+00  0.10388917826E+03  0.10388917826E+03  0.00000000000E+00 0.  1.
         21   -1    0    0  502  503 -0.00000000000E+00 -0.00000000000E+00 -0.40771172770E+02  0.40771172770E+02  0.00000000000E+00 0. -1.
         24    1    1    2    0    0  0.25571213020E+01  0.18521044916E+01  0.54174418929E+02  0.97015734709E+02  0.80419002446E+02 0.  0.
          1    1    1    2  501    0  0.18284361393E+02  0.11559188173E+02  0.72047507775E+01  0.22800024924E+02  0.00000000000E+00 0. -1.
         -2    1    1    2    0  503 -0.20841482695E+02 -0.13411292665E+02  0.17388357839E+01  0.24844591398E+02  0.00000000000E+00 0.  1.
<mgrwt>
<rscale>  2 0.63448190E+02</rscale>
<asrwt>0</asrwt>
<pdfrwt beam="1">  1       21 0.15982950E-01 0.63448190E+02</pdfrwt>
<pdfrwt beam="2">  1       21 0.62724882E-02 0.63448190E+02</pdfrwt>
<totfact> 0.59687130E+06</totfact>
</mgrwt>
</event>
<event>
 5    1  0.1590180E+000  0.1577810E+03  0.7546771E-02  0.1191225E+00
         21   -1    0    0  501  502  0.00000000000E+00  0.00000000000E+00  0.50020762308E+03  0.50020762308E+03  0.00000000000E+00 0. -1.
         21   -1    0    0  502  503 -0.00000000000E+00 -0.00000000000E+00 -0.62207479003E+02  0.62207479003E+02  0.00000000000E+00 0. -1.
         24    1    1    2    0    0  0.39072764946E+02 -0.80907955654E+02  0.75131917875E+02  0.14207321805E+03  0.80419002446E+02 0. -1.
          1    1    1    2  501    0 -0.95315440578E+02  0.97491239945E+02  0.31960584063E+03  0.34747297513E+03  0.00000000000E+00 0. -1.
         -2    1    1    2    0  503  0.56242675632E+02 -0.16583284291E+02  0.43262385575E+02  0.72868908910E+02  0.00000000000E+00 0.  1.
<mgrwt>
<rscale>  2 0.15778102E+03</rscale>
<asrwt>0</asrwt>
<pdfrwt beam="1">  1       21 0.76955016E-01 0.15778102E+03</pdfrwt>
<pdfrwt beam="2">  1       21 0.95703817E-02 0.15778102E+03</pdfrwt>
<totfact> 0.13330586E+05</totfact>
</mgrwt>
</event>
<event>
 5    1  0.1590180E+000  0.8066484E+02  0.7546771E-02  0.1327175E+00
         21   -1    0    0  503  502  0.00000000000E+00  0.00000000000E+00  0.53937769981E+02  0.53937769981E+02  0.00000000000E+00 0.  1.
         21   -1    0    0  501  503 -0.00000000000E+00 -0.00000000000E+00 -0.10558380390E+04  0.10558380390E+04  0.00000000000E+00 0. -1.
         24    1    1    2    0    0 -0.49929099087E+02 -0.11608538475E+02 -0.15290675938E+03  0.18020922873E+03  0.80419002446E+02 0.  1.
          1    1    1    2  501    0  0.16708081224E+02  0.25061974888E+02 -0.88099957231E+03  0.88151432715E+03  0.00000000000E+00 0. -1.
         -2    1    1    2    0  502  0.33221017864E+02 -0.13453436412E+02  0.32006062676E+02  0.48052253092E+02  0.00000000000E+00 0.  1.
<mgrwt>
<rscale>  2 0.80664838E+02</rscale>
<asrwt>0</asrwt>
<pdfrwt beam="1">  1       21 0.82981195E-02 0.80664838E+02</pdfrwt>
<pdfrwt beam="2">  1       21 0.16243660E+00 0.80664838E+02</pdfrwt>
<totfact> 0.29895084E+04</totfact>
</mgrwt>
</event>
<event>
 5    1  0.1590180E+000  0.1384193E+03  0.7546771E-02  0.1215472E+00
         21   -1    0    0  501  502  0.00000000000E+00  0.00000000000E+00  0.30185873306E+02  0.30185873306E+02  0.00000000000E+00 0.  1.
         21   -1    0    0  502  503 -0.00000000000E+00 -0.00000000000E+00 -0.82815592831E+03  0.82815592831E+03  0.00000000000E+00 0.  1.
         24    1    1    2    0    0 -0.11730444154E+03 -0.33765093356E+02 -0.36370231143E+03  0.39197831679E+03  0.80419002446E+02 0.  1.
          1    1    1    2  501    0  0.16720814182E+02  0.24486823942E+02 -0.11675852531E+02  0.31867157169E+02  0.00000000000E+00 0. -1.
         -2    1    1    2    0  503  0.10058362736E+03  0.92782694141E+01 -0.42259189104E+03  0.43449632766E+03  0.00000000000E+00 0.  1.
<mgrwt>
<rscale>  2 0.13841925E+03</rscale>
<asrwt>0</asrwt>
<pdfrwt beam="1">  1       21 0.46439810E-02 0.13841925E+03</pdfrwt>
<pdfrwt beam="2">  1       21 0.12740859E+00 0.13841925E+03</pdfrwt>
<totfact> 0.14169767E+05</totfact>
</mgrwt>
</event>
<event>
 5    1  0.1590180E+000  0.6830731E+02  0.7546771E-02  0.1365946E+00
         21   -1    0    0  503  502  0.00000000000E+00  0.00000000000E+00  0.47913801699E+03  0.47913801699E+03  0.00000000000E+00 0. -1.
         21   -1    0    0  501  503 -0.00000000000E+00 -0.00000000000E+00 -0.35801675160E+02  0.35801675160E+02  0.00000000000E+00 0. -1.
         24    1    1    2    0    0  0.26635946594E+01 -0.36102140059E+02  0.29649993803E+03  0.30933782255E+03  0.80419002446E+02 0. -1.
          1    1    1    2  501    0  0.14784424044E+02  0.17754422399E+02 -0.23757437745E+02  0.33139320410E+02  0.00000000000E+00 0. -1.
         -2    1    1    2    0  502 -0.17448018703E+02  0.18347717660E+02  0.17059384155E+03  0.17246254919E+03  0.00000000000E+00 0.  1.
<mgrwt>
<rscale>  2 0.68307307E+02</rscale>
<asrwt>0</asrwt>
<pdfrwt beam="1">  1       21 0.73713537E-01 0.68307307E+02</pdfrwt>
<pdfrwt beam="2">  1       21 0.55079504E-02 0.68307307E+02</pdfrwt>
<totfact> 0.38508730E+05</totfact>
</mgrwt>
</event>
<event>
 5    1  0.1590180E+000  0.7489668E+02  0.7546771E-02  0.1344191E+00
         21   -1    0    0  501  502  0.00000000000E+00  0.00000000000E+00  0.32234714725E+03  0.32234714725E+03  0.00000000000E+00 0. -1.
         21   -1    0    0  502  503 -0.00000000000E+00 -0.00000000000E+00 -0.17580317696E+02  0.17580317696E+02  0.00000000000E+00 0. -1.
         24    1    1    2    0    0  0.28426039256E+02 -0.40592923649E+02  0.17816945411E+03  0.20166158655E+03  0.80419002446E+02 0. -1.
          1    1    1    2  501    0 -0.76413713151E+01  0.31899591192E+02  0.81519631112E+02  0.87871637805E+02  0.00000000000E+00 0. -1.
         -2    1    1    2    0  503 -0.20784667941E+02  0.86933324570E+01  0.45077744327E+02  0.50394240586E+02  0.00000000000E+00 0.  1.
<mgrwt>
<rscale>  2 0.74896679E+02</rscale>
<asrwt>0</asrwt>
<pdfrwt beam="1">  1       21 0.49591864E-01 0.74896679E+02</pdfrwt>
<pdfrwt beam="2">  1       21 0.27046645E-02 0.74896679E+02</pdfrwt>
<totfact> 0.28248271E+06</totfact>
</mgrwt>
</event>
<event>
 5    1  0.1590180E+000  0.9677440E+02  0.7546771E-02  0.1287229E+00
         21   -1    0    0  501  502  0.00000000000E+00  0.00000000000E+00  0.10289734873E+02  0.10289734873E+02  0.00000000000E+00 0.  1.
         21   -1    0    0  502  503 -0.00000000000E+00 -0.00000000000E+00 -0.11274894989E+04  0.11274894989E+04  0.00000000000E+00 0. -1.
         24    1    1    2    0    0 -0.49631461549E+02 -0.49474104874E+02 -0.68094341054E+03  0.68924749789E+03  0.80419002446E+02 0.  0.
          1    1    1    2  501    0  0.12859546603E+02  0.48414307140E+02 -0.11849812947E+03  0.12865115531E+03  0.00000000000E+00 0. -1.
         -2    1    1    2    0  503  0.36771914946E+02  0.10597977334E+01 -0.31775822401E+03  0.31988058057E+03  0.00000000000E+00 0.  1.
<mgrwt>
<rscale>  2 0.96774402E+02</rscale>
<asrwt>0</asrwt>
<pdfrwt beam="1">  1       21 0.15830359E-02 0.96774402E+02</pdfrwt>
<pdfrwt beam="2">  1       21 0.17345995E+00 0.96774402E+02</pdfrwt>
<totfact> 0.37632959E+05</totfact>
</mgrwt>
</event>
<event>
 5    1  0.1590180E+000  0.7336311E+02  0.7546771E-02  0.1349016E+00
         21   -1    0    0  501  502  0.00000000000E+00  0.00000000000E+00  0.11982551439E+03  0.11982551439E+03  0.00000000000E+00 0. -1.
         21   -1    0    0  502  503 -0.00000000000E+00 -0.00000000000E+00 -0.10810271745E+03  0.10810271745E+03  0.00000000000E+00 0. -1.
         24    1    1    2    0    0 -0.25454929875E+02 -0.86484421396E+01 -0.25894863276E+02  0.88659511080E+02  0.80419002446E+02 0. -1.
          1    1    1    2  501    0 -0.19492590129E+01  0.28200914378E+02  0.80171392246E+02  0.85009077851E+02  0.00000000000E+00 0. -1.
         -2    1    1    2    0  503  0.27404188888E+02 -0.19552472238E+02 -0.42553732029E+02  0.54259642911E+02  0.00000000000E+00 0.  1.
<mgrwt>
<rscale>  2 0.73363108E+02</rscale>
<asrwt>0</asrwt>
<pdfrwt beam="1">  1       21 0.18434695E-01 0.73363108E+02</pdfrwt>
<pdfrwt beam="2">  1       21 0.16631187E-01 0.73363108E+02</pdfrwt>
<totfact> 0.86787255E+05</totfact>
</mgrwt>
</event>
<event>
 5    1  0.1590180E+000  0.7091859E+02  0.7546771E-02  0.1356997E+00
         21   -1    0    0  501  502  0.00000000000E+00  0.00000000000E+00  0.80475004562E+03  0.80475004562E+03  0.00000000000E+00 0.  1.
         21   -1    0    0  502  503 -0.00000000000E+00 -0.00000000000E+00 -0.64043426622E+01  0.64043426622E+01  0.00000000000E+00 0. -1.
         24    1    1    2    0    0 -0.25313444920E+02  0.40865339546E+02  0.49934468007E+03  0.50805813834E+03  0.80419002446E+02 0.  0.
          1    1    1    2  501    0  0.15447479287E+02 -0.22389354701E+02  0.20455238432E+03  0.20635306092E+03  0.00000000000E+00 0. -1.
         -2    1    1    2    0  503  0.98659656330E+01 -0.18475984845E+02  0.94448638572E+02  0.96743189021E+02  0.00000000000E+00 0.  1.
<mgrwt>
<rscale>  2 0.70918589E+02</rscale>
<asrwt>0</asrwt>
<pdfrwt beam="1">  1       21 0.12380762E+00 0.70918589E+02</pdfrwt>
<pdfrwt beam="2">  1       21 0.98528413E-03 0.70918589E+02</pdfrwt>
<totfact> 0.18647902E+06</totfact>
</mgrwt>
</event>
<event>
 5    1  0.1590180E+000  0.7285337E+02  0.7546771E-02  0.1350650E+00
         21   -1    0    0  501  502  0.00000000000E+00  0.00000000000E+00  0.80136389469E+03  0.80136389469E+03  0.00000000000E+00 0.  1.
         21   -1    0    0  502  503 -0.00000000000E+00 -0.00000000000E+00 -0.69727159263E+01  0.69727159263E+01  0.00000000000E+00 0. -1.
         24    1    1    2    0    0  0.30434122042E+02  0.23620065946E+02  0.42186270163E+03  0.43118383351E+03  0.80419002446E+02 0. -1.
          1    1    1    2  501    0 -0.28478396041E+02  0.40783812045E+01  0.24196401724E+03  0.24366829477E+03  0.00000000000E+00 0. -1.
         -2    1    1    2    0  503 -0.19557260013E+01 -0.27698447150E+02  0.13056445989E+03  0.13348448234E+03  0.00000000000E+00 0.  1.
<mgrwt>
<rscale>  2 0.72853373E+02</rscale>
<asrwt>0</asrwt>
<pdfrwt beam="1">  1       21 0.12328668E+00 0.72853373E+02</pdfrwt>
<pdfrwt beam="2">  1       21 0.10727262E-02 0.72853373E+02</pdfrwt>
<totfact> 0.16515025E+06</totfact>
</mgrwt>
</event>
<event>
 5    1  0.1590180E+000  0.1016798E+03  0.7546771E-02  0.1276803E+00
         21   -1    0    0  501  502  0.00000000000E+00  0.00000000000E+00  0.52706557956E+03  0.52706557956E+03  0.00000000000E+00 0. -1.
         21   -1    0    0  502  503 -0.00000000000E+00 -0.00000000000E+00 -0.34820121729E+02  0.34820121729E+02  0.00000000000E+00 0.  1.
         24    1    1    2    0    0  0.70375449493E+01  0.33189997615E+02  0.21379695121E+03  0.23092738097E+03  0.80419002446E+02 0. -1.
          1    1    1    2  501    0 -0.43274635602E+02 -0.57849909236E+02  0.27788519225E+03  0.28712277192E+03  0.00000000000E+00 0. -1.
         -2    1    1    2    0  503  0.36237090653E+02  0.24659911621E+02  0.56331437177E+00  0.43835548397E+02  0.00000000000E+00 0.  1.
<mgrwt>
<rscale>  2 0.10167984E+03</rscale>
<asrwt>0</asrwt>
<pdfrwt beam="1">  1       21 0.81087006E-01 0.10167984E+03</pdfrwt>
<pdfrwt beam="2">  1       21 0.53569422E-02 0.10167984E+03</pdfrwt>
<totfact> 0.32567545E+05</totfact>
</mgrwt>
</event>
<event>
 5    1  0.1590180E+000  0.9212108E+02  0.7546771E-02  0.1297795E+00
         21   -1    0    0  503  502  0.00000000000E+00  0.00000000000E+00  0.12634837628E+02  0.12634837628E+02  0.00000000000E+00 0. -1.
         21   -1    0    0  501  503 -0.00000000000E+00 -0.00000000000E+00 -0.75234114158E+03  0.75234114158E+03  0.00000000000E+00 0.  1.
         24    1    1    2    0    0 -0.62894665723E+02  0.27753511604E+02 -0.32633392896E+03  0.34305545547E+03  0.80419002446E+02 0. -1.
          1    1    1    2  501    0  0.29472029823E+02 -0.33404387165E+02 -0.30866705796E+03  0.31186504500E+03  0.00000000000E+00 0. -1.
         -2    1    1    2    0  502  0.33422635900E+02  0.56508755615E+01 -0.10470531703E+03  0.11005547874E+03  0.00000000000E+00 0.  1.
<mgrwt>
<rscale>  2 0.92121081E+02</rscale>
<asrwt>0</asrwt>
<pdfrwt beam="1">  1       21 0.19438215E-02 0.92121081E+02</pdfrwt>
<pdfrwt beam="2">  1       21 0.11574477E+00 0.92121081E+02</pdfrwt>
<totfact> 0.75352883E+05</totfact>
</mgrwt>
</event>
<event>
 5    1  0.1590180E+000  0.8770059E+02  0.7546771E-02  0.1308518E+00
         21   -1    0    0  503  502  0.00000000000E+00  0.00000000000E+00  0.12936631342E+03  0.12936631342E+03  0.00000000000E+00 0.  1.
         21   -1    0    0  501  503 -0.00000000000E+00 -0.00000000000E+00 -0.67417241673E+02  0.67417241673E+02  0.00000000000E+00 0. -1.
         24    1    1    2    0    0  0.42515669116E+02 -0.15306245099E+01  0.15573012847E+02  0.92302002228E+02  0.80419002446E+02 0. -1.
          1    1    1    2  501    0  0.85397028966E+00  0.31623488225E+02 -0.35380243878E+01  0.31832246062E+02  0.00000000000E+00 0. -1.
         -2    1    1    2    0  502 -0.43369639406E+02 -0.30092863715E+02  0.49914083290E+02  0.72649306806E+02  0.00000000000E+00 0.  1.
<mgrwt>
<rscale>  2 0.87700588E+02</rscale>
<asrwt>0</asrwt>
<pdfrwt beam="1">  1       21 0.19902510E-01 0.87700588E+02</pdfrwt>
<pdfrwt beam="2">  1       21 0.10371883E-01 0.87700588E+02</pdfrwt>
<totfact> 0.17437041E+06</totfact>
</mgrwt>
</event>
<event>
 5    1  0.1590180E+000  0.1820431E+03  0.7546771E-02  0.1165840E+00
         21   -1    0    0  501  502  0.00000000000E+00  0.00000000000E+00  0.21694950089E+03  0.21694950089E+03  0.00000000000E+00 0.  1.
         21   -1    0    0  502  503 -0.00000000000E+00 -0.00000000000E+00 -0.17168116360E+03  0.17168116360E+03  0.00000000000E+00 0.  1.
         24    1    1    2    0    0  0.26046242044E+02  0.17078900191E+03 -0.24241293565E+02  0.19209931329E+03  0.80419002446E+02 0.  1.
          1    1    1    2  501    0 -0.90546475528E+01 -0.22355056113E+02  0.36136040122E+02  0.43445926988E+02  0.00000000000E+00 0. -1.
         -2    1    1    2    0  503 -0.16991594492E+02 -0.14843394580E+03  0.33373590739E+02  0.15308542421E+03  0.00000000000E+00 0.  1.
<mgrwt>
<rscale>  2 0.18204308E+03</rscale>
<asrwt>0</asrwt>
<pdfrwt beam="1">  1       21 0.33376847E-01 0.18204308E+03</pdfrwt>
<pdfrwt beam="2">  1       21 0.26412486E-01 0.18204308E+03</pdfrwt>
<totfact> 0.11830306E+05</totfact>
</mgrwt>
</event>
<event>
 5    1  0.1590180E+000  0.1028714E+03  0.7546771E-02  0.1274371E+00
         21   -1    0    0  501  502  0.00000000000E+00  0.00000000000E+00  0.14378215773E+03  0.14378215773E+03  0.00000000000E+00 0. -1.
         21   -1    0    0  502  503 -0.00000000000E+00 -0.00000000000E+00 -0.50007015179E+03  0.50007015179E+03  0.00000000000E+00 0. -1.
         24    1    1    2    0    0 -0.49555842291E+01  0.43992468957E+02 -0.29476661356E+03  0.30873041244E+03  0.80419002446E+02 0. -1.
          1    1    1    2  501    0  0.17885826527E+02 -0.76707955985E+02  0.12366785102E+03  0.14662111266E+03  0.00000000000E+00 0. -1.
         -2    1    1    2    0  503 -0.12930242298E+02  0.32715487028E+02 -0.18518923152E+03  0.18850078443E+03  0.00000000000E+00 0.  1.
<mgrwt>
<rscale>  2 0.10287145E+03</rscale>
<asrwt>0</asrwt>
<pdfrwt beam="1">  1       21 0.22120332E-01 0.10287145E+03</pdfrwt>
<pdfrwt beam="2">  1       21 0.76933869E-01 0.10287145E+03</pdfrwt>
<totfact> 0.30388628E+04</totfact>
</mgrwt>
</event>
<event>
 5    1  0.1590180E+000  0.1092405E+03  0.7546771E-02  0.1261983E+00
         21   -1    0    0  501  502  0.00000000000E+00  0.00000000000E+00  0.93933038978E+02  0.93933038978E+02  0.00000000000E+00 0. -1.
         21   -1    0    0  502  503 -0.00000000000E+00 -0.00000000000E+00 -0.52399188276E+03  0.52399188276E+03  0.00000000000E+00 0. -1.
         24    1    1    2    0    0 -0.22462848709E+01  0.54167262179E+02 -0.26791465760E+03  0.28492914523E+03  0.80419002446E+02 0. -1.
          1    1    1    2  501    0  0.88702395220E+01  0.32951407017E+02  0.73847123408E+02  0.81350316590E+02  0.00000000000E+00 0. -1.
         -2    1    1    2    0  503 -0.66239546510E+01 -0.87118669196E+02 -0.23599130959E+03  0.25164545992E+03  0.00000000000E+00 0.  1.
<mgrwt>
<rscale>  2 0.10924046E+03</rscale>
<asrwt>0</asrwt>
<pdfrwt beam="1">  1       21 0.14451237E-01 0.10924046E+03</pdfrwt>
<pdfrwt beam="2">  1       21 0.80614135E-01 0.10924046E+03</pdfrwt>
<totfact> 0.59217057E+04</totfact>
</mgrwt>
</event>
<event>
 5    1  0.1590180E+000  0.8726314E+02  0.7546771E-02  0.1309618E+00
         21   -1    0    0  503  502  0.00000000000E+00  0.00000000000E+00  0.23044783658E+03  0.23044783658E+03  0.00000000000E+00 0.  1.
         21   -1    0    0  501  503 -0.00000000000E+00 -0.00000000000E+00 -0.48256949858E+02  0.48256949858E+02  0.00000000000E+00 0.  1.
         24    1    1    2    0    0 -0.39929763151E+02  0.55537203280E+02  0.12681751128E+03  0.16501110283E+03  0.80419002446E+02 0.  1.
          1    1    1    2  501    0  0.97794003188E+01 -0.20601023668E+02 -0.16593189108E+02  0.28202354007E+02  0.00000000000E+00 0. -1.
         -2    1    1    2    0  502  0.30150362833E+02 -0.34936179612E+02  0.71966564545E+02  0.85491329602E+02  0.00000000000E+00 0.  1.
<mgrwt>
<rscale>  2 0.87263141E+02</rscale>
<asrwt>0</asrwt>
<pdfrwt beam="1">  1       21 0.35453513E-01 0.87263141E+02</pdfrwt>
<pdfrwt beam="2">  1       21 0.74241463E-02 0.87263141E+02</pdfrwt>
<totfact> 0.10432126E+06</totfact>
</mgrwt>
</event>
<event>
 5    1  0.1590180E+000  0.6666658E+02  0.7546771E-02  0.1371810E+00
         21   -1    0    0  503  502  0.00000000000E+00  0.00000000000E+00  0.51023140063E+02  0.51023140063E+02  0.00000000000E+00 0.  1.
         21   -1    0    0  501  503 -0.00000000000E+00 -0.00000000000E+00 -0.89626413259E+02  0.89626413259E+02  0.00000000000E+00 0. -1.
         24    1    1    2    0    0 -0.21690190338E+02  0.11304014211E+02 -0.14399888162E+02  0.85280817466E+02  0.80419002446E+02 0.  1.
          1    1    1    2  501    0  0.20795258434E+02  0.13281731054E+02 -0.16115864824E+02  0.29471482015E+02  0.00000000000E+00 0. -1.
         -2    1    1    2    0  502  0.89493190407E+00 -0.24585745265E+02 -0.80875202103E+01  0.25897253841E+02  0.00000000000E+00 0.  1.
<mgrwt>
<rscale>  2 0.66666577E+02</rscale>
<asrwt>0</asrwt>
<pdfrwt beam="1">  1       21 0.78497140E-02 0.66666577E+02</pdfrwt>
<pdfrwt beam="2">  1       21 0.13788679E-01 0.66666577E+02</pdfrwt>
<totfact> 0.53376464E+06</totfact>
</mgrwt>
</event>
<event>
 5    1  0.1590180E+000  0.7707775E+02  0.7546771E-02  0.1337555E+00
         21   -1    0    0  501  502  0.00000000000E+00  0.00000000000E+00  0.70133523226E+02  0.70133523226E+02  0.00000000000E+00 0. -1.
         21   -1    0    0  502  503 -0.00000000000E+00 -0.00000000000E+00 -0.13458758194E+03  0.13458758194E+03  0.00000000000E+00 0. -1.
         24    1    1    2    0    0  0.20787535004E+02  0.37645786945E+02 -0.28711682476E+02  0.95608072626E+02  0.80419002446E+02 0. -1.
          1    1    1    2  501    0 -0.29481900537E+02 -0.59272060581E+01  0.25611465285E+02  0.39500144114E+02  0.00000000000E+00 0. -1.
         -2    1    1    2    0  503  0.86943655328E+01 -0.31718580887E+02 -0.61353841528E+02  0.69612888431E+02  0.00000000000E+00 0.  1.
<mgrwt>
<rscale>  2 0.77077752E+02</rscale>
<asrwt>0</asrwt>
<pdfrwt beam="1">  1       21 0.10789773E-01 0.77077752E+02</pdfrwt>
<pdfrwt beam="2">  1       21 0.20705782E-01 0.77077752E+02</pdfrwt>
<totfact> 0.15075143E+06</totfact>
</mgrwt>
</event>
<event>
 5    1  0.1590180E+000  0.8756208E+02  0.7546771E-02  0.1308865E+00
         21   -1    0    0  503  502  0.00000000000E+00  0.00000000000E+00  0.25160487117E+03  0.25160487117E+03  0.00000000000E+00 0. -1.
         21   -1    0    0  501  503 -0.00000000000E+00 -0.00000000000E+00 -0.32198820554E+02  0.32198820554E+02  0.00000000000E+00 0.  1.
         24    1    1    2    0    0 -0.22713176364E+02 -0.37857781054E+02  0.81860834524E+02  0.12295329256E+03  0.80419002446E+02 0.  1.
          1    1    1    2  501    0  0.31487291599E+02 -0.11296555676E+02  0.54094459963E+02  0.63602455150E+02  0.00000000000E+00 0. -1.
         -2    1    1    2    0  502 -0.87741152353E+01  0.49154336730E+02  0.83450756129E+02  0.97247944019E+02  0.00000000000E+00 0.  1.
<mgrwt>
<rscale>  2 0.87562076E+02</rscale>
<asrwt>0</asrwt>
<pdfrwt beam="1">  1       21 0.38708441E-01 0.87562076E+02</pdfrwt>
<pdfrwt beam="2">  1       21 0.49536649E-02 0.87562076E+02</pdfrwt>
<totfact> 0.17337218E+06</totfact>
</mgrwt>
</event>
<event>
 5    1  0.1590180E+000  0.8690065E+02  0.7546771E-02  0.1310536E+00
         21   -1    0    0  503  502  0.00000000000E+00  0.00000000000E+00  0.36408637735E+03  0.36408637735E+03  0.00000000000E+00 0.  1.
         21   -1    0    0  501  503 -0.00000000000E+00 -0.00000000000E+00 -0.89747434036E+03  0.89747434036E+03  0.00000000000E+00 0. -1.
         24    1    1    2    0    0 -0.44069331824E+02  0.38254309614E+02  0.21012895394E+03  0.23243685476E+03  0.80419002446E+02 0.  1.
          1    1    1    2  501    0  0.21170313445E+02  0.81564639887E+01 -0.88148080791E+03  0.88177271719E+03  0.00000000000E+00 0. -1.
         -2    1    1    2    0  502  0.22899018379E+02 -0.46410773602E+02  0.13796389095E+03  0.14735114576E+03  0.00000000000E+00 0.  1.
<mgrwt>
<rscale>  2 0.86900646E+02</rscale>
<asrwt>0</asrwt>
<pdfrwt beam="1">  1       21 0.56013289E-01 0.86900646E+02</pdfrwt>
<pdfrwt beam="2">  1       21 0.13807297E+00 0.86900646E+02</pdfrwt>
<totfact> 0.12909404E+03</totfact>
</mgrwt>
</event>
<event>
 5    1  0.1590180E+000  0.9591849E+02  0.7546771E-02  0.1289121E+00
         21   -1    0    0  501  502  0.00000000000E+00  0.00000000000E+00  0.11915577988E+03  0.11915577988E+03  0.00000000000E+00 0. -1.
         21   -1    0    0  502  503 -0.00000000000E+00 -0.00000000000E+00 -0.10460362556E+03  0.10460362556E+03  0.00000000000E+00 0. -1.
         24    1    1    2    0    0 -0.15794695209E+01  0.18954826662E+01  0.19703992438E+02  0.82834478636E+02  0.80419002446E+02 0. -1.
          1    1    1    2  501    0 -0.86096355066E+01  0.53939903108E+02  0.40571048069E+02  0.68041523441E+02  0.00000000000E+00 0. -1.
         -2    1    1    2    0  503  0.10189105028E+02 -0.55835385774E+02 -0.45722886187E+02  0.72883403372E+02  0.00000000000E+00 0.  1.
<mgrwt>
<rscale>  2 0.95918495E+02</rscale>
<asrwt>0</asrwt>
<pdfrwt beam="1">  1       21 0.18331658E-01 0.95918495E+02</pdfrwt>
<pdfrwt beam="2">  1       21 0.16092866E-01 0.95918495E+02</pdfrwt>
<totfact> 0.93477278E+05</totfact>
</mgrwt>
</event>
<event>
 5    1  0.1590180E+000  0.1096210E+03  0.7546771E-02  0.1261273E+00
         21   -1    0    0  501  502  0.00000000000E+00  0.00000000000E+00  0.30429457560E+03  0.30429457560E+03  0.00000000000E+00 0. -1.
         21   -1    0    0  502  503 -0.00000000000E+00 -0.00000000000E+00 -0.13297129050E+03  0.13297129050E+03  0.00000000000E+00 0. -1.
         24    1    1    2    0    0  0.20401347286E+02  0.25720657134E+02 -0.98612546625E+02  0.13141315566E+03  0.80419002446E+02 0. -1.
          1    1    1    2  501    0 -0.46271124326E+01 -0.77813736965E+02  0.21422628709E+03  0.22796773875E+03  0.00000000000E+00 0. -1.
         -2    1    1    2    0  503 -0.15774234853E+02  0.52093079831E+02  0.55709544639E+02  0.77884971692E+02  0.00000000000E+00 0.  1.
<mgrwt>
<rscale>  2 0.10962102E+03</rscale>
<asrwt>0</asrwt>
<pdfrwt beam="1">  1       21 0.46814550E-01 0.10962102E+03</pdfrwt>
<pdfrwt beam="2">  1       21 0.20457122E-01 0.10962102E+03</pdfrwt>
<totfact> 0.99929929E+04</totfact>
</mgrwt>
</event>
<event>
 5    1  0.1590180E+000  0.6671810E+02  0.7546771E-02  0.1371623E+00
         21   -1    0    0  501  502  0.00000000000E+00  0.00000000000E+00  0.15894893299E+03  0.15894893299E+03  0.00000000000E+00 0.  1.
         21   -1    0    0  502  503 -0.00000000000E+00 -0.00000000000E+00 -0.54065242089E+02  0.54065242089E+02  0.00000000000E+00 0. -1.
         24    1    1    2    0    0  0.15948358133E+02  0.91194528495E+00 -0.76221687103E+01  0.82343762250E+02  0.80419002446E+02 0. -1.
          1    1    1    2  501    0 -0.10060845453E+02 -0.24842176670E+02  0.99009131737E+02  0.10257271821E+03  0.00000000000E+00 0. -1.
         -2    1    1    2    0  503 -0.58875126799E+01  0.23930231385E+02  0.13496727872E+02  0.28097694620E+02  0.00000000000E+00 0.  1.
<mgrwt>
<rscale>  2 0.66718101E+02</rscale>
<asrwt>0</asrwt>
<pdfrwt beam="1">  1       21 0.24453682E-01 0.66718101E+02</pdfrwt>
<pdfrwt beam="2">  1       21 0.83177296E-02 0.66718101E+02</pdfrwt>
<totfact> 0.17241689E+06</totfact>
</mgrwt>
</event>
<event>
 5    1  0.1590180E+000  0.6728192E+02  0.7546771E-02  0.1369588E+00
         21   -1    0    0  501  502  0.00000000000E+00  0.00000000000E+00  0.34057347893E+02  0.34057347893E+02  0.00000000000E+00 0.  1.
         21   -1    0    0  502  503 -0.00000000000E+00 -0.00000000000E+00 -0.37347443724E+03  0.37347443724E+03  0.00000000000E+00 0. -1.
         24    1    1    2    0    0  0.95341026051E+01 -0.35956653395E+02 -0.11261845871E+03  0.14329659184E+03  0.80419002446E+02 0.  1.
          1    1    1    2  501    0  0.87164926155E+01  0.19598118722E+02  0.11732514646E+02  0.24448218767E+02  0.00000000000E+00 0. -1.
         -2    1    1    2    0  503 -0.18250595221E+02  0.16358534672E+02 -0.23853114529E+03  0.23978697453E+03  0.00000000000E+00 0.  1.
<mgrwt>
<rscale>  2 0.67281916E+02</rscale>
<asrwt>0</asrwt>
<pdfrwt beam="1">  1       21 0.52395919E-02 0.67281916E+02</pdfrwt>
<pdfrwt beam="2">  1       21 0.57457607E-01 0.67281916E+02</pdfrwt>
<totfact> 0.70779158E+05</totfact>
</mgrwt>
</event>
<event>
 5    1  0.1590180E+000  0.7249216E+02  0.7546771E-02  0.1351818E+00
         21   -1    0    0  501  502  0.00000000000E+00  0.00000000000E+00  0.84224203180E+01  0.84224203180E+01  0.00000000000E+00 0. -1.
         21   -1    0    0  502  503 -0.00000000000E+00 -0.00000000000E+00 -0.66755439973E+03  0.66755439973E+03  0.00000000000E+00 0. -1.
         24    1    1    2    0    0  0.34690749121E+02  0.33980186459E+02 -0.46695468102E+03  0.47631081367E+03  0.80419002446E+02 0. -1.
          1    1    1    2  501    0 -0.14016267215E+02 -0.24655676964E+02 -0.72330276610E+02  0.77691872597E+02  0.00000000000E+00 0. -1.
         -2    1    1    2    0  503 -0.20674481906E+02 -0.93245094946E+01 -0.11984702179E+03  0.12197413378E+03  0.00000000000E+00 0.  1.
<mgrwt>
<rscale>  2 0.72492165E+02</rscale>
<asrwt>0</asrwt>
<pdfrwt beam="1">  1       21 0.12957568E-02 0.72492165E+02</pdfrwt>
<pdfrwt beam="2">  1       21 0.10270069E+00 0.72492165E+02</pdfrwt>
<totfact> 0.18893994E+06</totfact>
</mgrwt>
</event>
<event>
 5    1  0.1590180E+000  0.1147886E+03  0.7546771E-02  0.1251951E+00
         21   -1    0    0  501  502  0.00000000000E+00  0.00000000000E+00  0.10321461617E+03  0.10321461617E+03  0.00000000000E+00 0. -1.
         21   -1    0    0  502  503 -0.00000000000E+00 -0.00000000000E+00 -0.37411817475E+03  0.37411817475E+03  0.00000000000E+00 0.  1.
         24    1    1    2    0    0  0.16306954260E+02 -0.10646776825E+02 -0.15640214183E+03  0.17694099733E+03  0.80419002446E+02 0.  1.
          1    1    1    2  501    0 -0.81197250593E+02  0.80511105346E+00  0.68337210884E+02  0.10613018467E+03  0.00000000000E+00 0. -1.
         -2    1    1    2    0  503  0.64890296333E+02  0.98416657716E+01 -0.18283862763E+03  0.19426160892E+03  0.00000000000E+00 0.  1.
<mgrwt>
<rscale>  2 0.11478856E+03</rscale>
<asrwt>0</asrwt>
<pdfrwt beam="1">  1       21 0.15879172E-01 0.11478856E+03</pdfrwt>
<pdfrwt beam="2">  1       21 0.57556642E-01 0.11478856E+03</pdfrwt>
<totfact> 0.10326523E+05</totfact>
</mgrwt>
</event>
<event>
 5    1  0.1590180E+000  0.9391764E+02  0.7546771E-02  0.1293633E+00
         21   -1    0    0  501  502  0.00000000000E+00  0.00000000000E+00  0.26205327030E+02  0.26205327030E+02  0.00000000000E+00 0.  1.
         21   -1    0    0  502  503 -0.00000000000E+00 -0.00000000000E+00 -0.47882734293E+03  0.47882734293E+03  0.00000000000E+00 0.  1.
         24    1    1    2    0    0 -0.51265935364E+02  0.57028725341E+02 -0.14641386590E+03  0.18380616890E+03  0.80419002446E+02 0.  1.
          1    1    1    2  501    0  0.19775193841E+02 -0.23594100378E+02 -0.37018975363E+02  0.48147112074E+02  0.00000000000E+00 0. -1.
         -2    1    1    2    0  503  0.31490741523E+02 -0.33434624963E+02 -0.26918917464E+03  0.27307938899E+03  0.00000000000E+00 0.  1.
<mgrwt>
<rscale>  2 0.93917636E+02</rscale>
<asrwt>0</asrwt>
<pdfrwt beam="1">  1       21 0.40315892E-02 0.93917636E+02</pdfrwt>
<pdfrwt beam="2">  1       21 0.73665737E-01 0.93917636E+02</pdfrwt>
<totfact> 0.64573204E+05</totfact>
</mgrwt>
</event>
<event>
 5    1  0.1590180E+000  0.1508515E+03  0.7546771E-02  0.1199431E+00
         21   -1    0    0  501  502  0.00000000000E+00  0.00000000000E+00  0.23879652367E+02  0.23879652367E+02  0.00000000000E+00 0. -1.
         21   -1    0    0  502  503 -0.00000000000E+00 -0.00000000000E+00 -0.10128599284E+04  0.10128599284E+04  0.00000000000E+00 0. -1.
         24    1    1    2    0    0  0.10885054813E+03 -0.87851877911E+02 -0.52358284863E+03  0.54788010515E+03  0.80419002446E+02 0. -1.
          1    1    1    2  501    0 -0.55995719393E+02  0.52563839593E+02 -0.16763914561E+03  0.18439457954E+03  0.00000000000E+00 0. -1.
         -2    1    1    2    0  503 -0.52854828734E+02  0.35288038317E+02 -0.29775828178E+03  0.30446489607E+03  0.00000000000E+00 0.  1.
<mgrwt>
<rscale>  2 0.15085153E+03</rscale>
<asrwt>0</asrwt>
<pdfrwt beam="1">  1       21 0.36737923E-02 0.15085153E+03</pdfrwt>
<pdfrwt beam="2">  1       21 0.15582462E+00 0.15085153E+03</pdfrwt>
<totfact> 0.12452807E+05</totfact>
</mgrwt>
</event>
<event>
 5    1  0.1590180E+000  0.6700674E+02  0.7546771E-02  0.1370578E+00
         21   -1    0    0  503  502  0.00000000000E+00  0.00000000000E+00  0.58413421720E+02  0.58413421720E+02  0.00000000000E+00 0.  1.
         21   -1    0    0  501  503 -0.00000000000E+00 -0.00000000000E+00 -0.13781954606E+03  0.13781954606E+03  0.00000000000E+00 0. -1.
         24    1    1    2    0    0 -0.20581028932E+02  0.70719273197E+01 -0.84610389700E+02  0.11874226252E+03  0.80419002446E+02 0.  0.
          1    1    1    2  501    0  0.60749386243E+01 -0.26087258892E+02 -0.26565363691E+02  0.37724905617E+02  0.00000000000E+00 0. -1.
         -2    1    1    2    0  502  0.14506090307E+02  0.19015331572E+02  0.31769629056E+02  0.39765799642E+02  0.00000000000E+00 0.  1.
<mgrwt>
<rscale>  2 0.67006741E+02</rscale>
<asrwt>0</asrwt>
<pdfrwt beam="1">  1       21 0.89866805E-02 0.67006741E+02</pdfrwt>
<pdfrwt beam="2">  1       21 0.21203007E-01 0.67006741E+02</pdfrwt>
<totfact> 0.19647450E+06</totfact>
</mgrwt>
</event>
<event>
 5    1  0.1590180E+000  0.7883582E+02  0.7546771E-02  0.1332388E+00
         21   -1    0    0  503  502  0.00000000000E+00  0.00000000000E+00  0.66920845818E+02  0.66920845818E+02  0.00000000000E+00 0. -1.
         21   -1    0    0  501  503 -0.00000000000E+00 -0.00000000000E+00 -0.21752397019E+03  0.21752397019E+03  0.00000000000E+00 0. -1.
         24    1    1    2    0    0  0.43038984552E+02  0.38879981151E+02 -0.36424176350E+02  0.10563116824E+03  0.80419002446E+02 0.  0.
          1    1    1    2  501    0 -0.28830376882E+02 -0.20932140763E+02 -0.13990933091E+03  0.14437439532E+03  0.00000000000E+00 0. -1.
         -2    1    1    2    0  502 -0.14208607670E+02 -0.17947840388E+02  0.25730382884E+02  0.34439252458E+02  0.00000000000E+00 0.  1.
<mgrwt>
<rscale>  2 0.78835824E+02</rscale>
<asrwt>0</asrwt>
<pdfrwt beam="1">  1       21 0.10295515E-01 0.78835824E+02</pdfrwt>
<pdfrwt beam="2">  1       21 0.33465227E-01 0.78835824E+02</pdfrwt>
<totfact> 0.66503859E+05</totfact>
</mgrwt>
</event>
<event>
 5    1  0.1590180E+000  0.9078263E+02  0.7546771E-02  0.1300967E+00
         21   -1    0    0  501  502  0.00000000000E+00  0.00000000000E+00  0.22589791376E+04  0.22589791376E+04  0.00000000000E+00 0. -1.
         21   -1    0    0  502  503 -0.00000000000E+00 -0.00000000000E+00 -0.57869029598E+01  0.57869029598E+01  0.00000000000E+00 0. -1.
         24    1    1    2    0    0 -0.11942386721E+02 -0.47145886481E+02  0.62279026983E+03  0.62984148113E+03  0.80419002446E+02 0. -1.
          1    1    1    2  501    0  0.33849766140E+02  0.54771143109E+02  0.15474883195E+04  0.15488272285E+04  0.00000000000E+00 0. -1.
         -2    1    1    2    0  503 -0.21907379418E+02 -0.76252566277E+01  0.82913645328E+02  0.86097330929E+02  0.00000000000E+00 0.  1.
<mgrwt>
<rscale>  2 0.90782628E+02</rscale>
<asrwt>0</asrwt>
<pdfrwt beam="1">  1       21 0.34753455E+00 0.90782628E+02</pdfrwt>
<pdfrwt beam="2">  1       21 0.89029456E-03 0.90782628E+02</pdfrwt>
<totfact> 0.92921259E+04</totfact>
</mgrwt>
</event>
<event>
 5    1  0.1590180E+000  0.1033601E+03  0.7546771E-02  0.1273385E+00
         21   -1    0    0  503  502  0.00000000000E+00  0.00000000000E+00  0.64065460918E+03  0.64065460918E+03  0.00000000000E+00 0.  1.
         21   -1    0    0  501  503 -0.00000000000E+00 -0.00000000000E+00 -0.31049133388E+02  0.31049133388E+02  0.00000000000E+00 0.  1.
         24    1    1    2    0    0 -0.31779479698E+02  0.40498625025E+02  0.12105424197E+03  0.15417982817E+03  0.80419002446E+02 0.  1.
          1    1    1    2  501    0  0.10016419172E+02  0.33050182318E+02  0.14747030852E+02  0.37551539559E+02  0.00000000000E+00 0. -1.
         -2    1    1    2    0  502  0.21763060527E+02 -0.73548807343E+02  0.47380420297E+03  0.47997237484E+03  0.00000000000E+00 0.  1.
<mgrwt>
<rscale>  2 0.10336013E+03</rscale>
<asrwt>0</asrwt>
<pdfrwt beam="1">  1       21 0.98562238E-01 0.10336013E+03</pdfrwt>
<pdfrwt beam="2">  1       21 0.47767902E-02 0.10336013E+03</pdfrwt>
<totfact> 0.25328415E+05</totfact>
</mgrwt>
</event>
<event>
 5    1  0.1590180E+000  0.7976544E+02  0.7546771E-02  0.1329718E+00
         21   -1    0    0  501  502  0.00000000000E+00  0.00000000000E+00  0.60154825332E+02  0.60154825332E+02  0.00000000000E+00 0. -1.
         21   -1    0    0  502  503 -0.00000000000E+00 -0.00000000000E+00 -0.14262692525E+03  0.14262692525E+03  0.00000000000E+00 0.  1.
         24    1    1    2    0    0 -0.19098565041E+02  0.24521979041E+02 -0.43250236312E+02  0.96456630349E+02  0.80419002446E+02 0.  1.
          1    1    1    2  501    0 -0.22727798819E+02 -0.21650577937E+02  0.17385914469E+02  0.35882731029E+02  0.00000000000E+00 0. -1.
         -2    1    1    2    0  503  0.41826363861E+02 -0.28714011042E+01 -0.56607778070E+02  0.70442389200E+02  0.00000000000E+00 0.  1.
<mgrwt>
<rscale>  2 0.79765442E+02</rscale>
<asrwt>0</asrwt>
<pdfrwt beam="1">  1       21 0.92545886E-02 0.79765442E+02</pdfrwt>
<pdfrwt beam="2">  1       21 0.21942604E-01 0.79765442E+02</pdfrwt>
<totfact> 0.17685886E+06</totfact>
</mgrwt>
</event>
<event>
 5    1  0.1590180E+000  0.1079808E+03  0.7546771E-02  0.1264356E+00
         21   -1    0    0  501  502  0.00000000000E+00  0.00000000000E+00  0.40234091303E+03  0.40234091303E+03  0.00000000000E+00 0. -1.
         21   -1    0    0  502  503 -0.00000000000E+00 -0.00000000000E+00 -0.41433777488E+02  0.41433777488E+02  0.00000000000E+00 0. -1.
         24    1    1    2    0    0  0.76405145005E+02 -0.20363707659E+02  0.72023516279E+02  0.13381714996E+03  0.80419002446E+02 0. -1.
          1    1    1    2  501    0 -0.82894900645E+02  0.11530955589E+01  0.26928297383E+03  0.28175559298E+03  0.00000000000E+00 0. -1.
         -2    1    1    2    0  503  0.64897556401E+01  0.19210612100E+02  0.19600645441E+02  0.28201947579E+02  0.00000000000E+00 0.  1.
<mgrwt>
<rscale>  2 0.10798075E+03</rscale>
<asrwt>0</asrwt>
<pdfrwt beam="1">  1       21 0.61898599E-01 0.10798075E+03</pdfrwt>
<pdfrwt beam="2">  1       21 0.63744276E-02 0.10798075E+03</pdfrwt>
<totfact> 0.43641559E+05</totfact>
</mgrwt>
</event>
<event>
 5    1  0.1590180E+000  0.7797903E+02  0.7546771E-02  0.1334886E+00
         21   -1    0    0  503  502  0.00000000000E+00  0.00000000000E+00  0.11071489252E+03  0.11071489252E+03  0.00000000000E+00 0.  1.
         21   -1    0    0  501  503 -0.00000000000E+00 -0.00000000000E+00 -0.15819739213E+03  0.15819739213E+03  0.00000000000E+00 0. -1.
         24    1    1    2    0    0  0.13713957671E+02 -0.47111082804E+02  0.18860683819E+02  0.96075325170E+02  0.80419002446E+02 0. -1.
          1    1    1    2  501    0  0.77040825900E+01  0.37488394823E+02 -0.11370556850E+03  0.11997370104E+03  0.00000000000E+00 0. -1.
         -2    1    1    2    0  502 -0.21418040261E+02  0.96226879805E+01  0.47362385067E+02  0.52863258430E+02  0.00000000000E+00 0.  1.
<mgrwt>
<rscale>  2 0.77979033E+02</rscale>
<asrwt>0</asrwt>
<pdfrwt beam="1">  1       21 0.17033060E-01 0.77979033E+02</pdfrwt>
<pdfrwt beam="2">  1       21 0.24338060E-01 0.77979033E+02</pdfrwt>
<totfact> 0.50033403E+05</totfact>
</mgrwt>
</event>
<event>
 5    1  0.1590180E+000  0.6804112E+02  0.7546771E-02  0.1366884E+00
         21   -1    0    0  501  502  0.00000000000E+00  0.00000000000E+00  0.20456258024E+03  0.20456258024E+03  0.00000000000E+00 0. -1.
         21   -1    0    0  502  503 -0.00000000000E+00 -0.00000000000E+00 -0.95200309652E+02  0.95200309652E+02  0.00000000000E+00 0.  1.
         24    1    1    2    0    0  0.45262931711E+01 -0.28771410428E+02  0.36890800496E+02  0.93147348344E+02  0.80419002446E+02 0. -1.
          1    1    1    2  501    0  0.18362553216E+02  0.97493885084E+01  0.13540918323E+03  0.13699591541E+03  0.00000000000E+00 0. -1.
         -2    1    1    2    0  503 -0.22888846387E+02  0.19022021919E+02 -0.62937713143E+02  0.69619626130E+02  0.00000000000E+00 0.  1.
<mgrwt>
<rscale>  2 0.68041122E+02</rscale>
<asrwt>0</asrwt>
<pdfrwt beam="1">  1       21 0.31471166E-01 0.68041122E+02</pdfrwt>
<pdfrwt beam="2">  1       21 0.14646202E-01 0.68041122E+02</pdfrwt>
<totfact> 0.40364061E+05</totfact>
</mgrwt>
</event>
<event>
 5    1  0.1590180E+000  0.9589862E+02  0.7546771E-02  0.1289165E+00
         21   -1    0    0  503  502  0.00000000000E+00  0.00000000000E+00  0.17556624415E+03  0.17556624415E+03  0.00000000000E+00 0. -1.
         21   -1    0    0  501  503 -0.00000000000E+00 -0.00000000000E+00 -0.11426252553E+03  0.11426252553E+03  0.00000000000E+00 0. -1.
         24    1    1    2    0    0  0.95564935075E+01  0.25224767917E+02  0.99489992471E+02  0.13074054475E+03  0.80419002446E+02 0. -1.
          1    1    1    2  501    0  0.16945576413E+02 -0.60514236704E+02 -0.77643922580E+02  0.99888458380E+02  0.00000000000E+00 0. -1.
         -2    1    1    2    0  502 -0.26502069920E+02  0.35289468787E+02  0.39457648722E+02  0.59199766554E+02  0.00000000000E+00 0.  1.
<mgrwt>
<rscale>  2 0.95898623E+02</rscale>
<asrwt>0</asrwt>
<pdfrwt beam="1">  1       21 0.27010192E-01 0.95898623E+02</pdfrwt>
<pdfrwt beam="2">  1       21 0.17578850E-01 0.95898623E+02</pdfrwt>
<totfact> 0.38861304E+05</totfact>
</mgrwt>
</event>
<event>
 5    1  0.1590180E+000  0.1149602E+03  0.7546771E-02  0.1251651E+00
         21   -1    0    0  503  502  0.00000000000E+00  0.00000000000E+00  0.45276890938E+02  0.45276890938E+02  0.00000000000E+00 0.  1.
         21   -1    0    0  501  503 -0.00000000000E+00 -0.00000000000E+00 -0.17587046977E+04  0.17587046977E+04  0.00000000000E+00 0. -1.
         24    1    1    2    0    0 -0.44082133489E+02 -0.88946776243E+02 -0.16499167561E+03  0.20867254844E+03  0.80419002446E+02 0.  1.
          1    1    1    2  501    0  0.33330304712E+01  0.31807865407E+02 -0.15187847570E+04  0.15191214525E+04  0.00000000000E+00 0. -1.
         -2    1    1    2    0  502  0.40749103018E+02  0.57138910835E+02 -0.29651374150E+02  0.76187587685E+02  0.00000000000E+00 0.  1.
<mgrwt>
<rscale>  2 0.11496016E+03</rscale>
<asrwt>0</asrwt>
<pdfrwt beam="1">  1       21 0.69656738E-02 0.11496016E+03</pdfrwt>
<pdfrwt beam="2">  1       21 0.27057002E+00 0.11496016E+03</pdfrwt>
<totfact> 0.84854789E+03</totfact>
</mgrwt>
</event>
<event>
 5    1  0.1590180E+000  0.6093633E+02  0.7546771E-02  0.1393944E+00
         21   -1    0    0  501  502  0.00000000000E+00  0.00000000000E+00  0.16591813322E+03  0.16591813322E+03  0.00000000000E+00 0. -1.
         21   -1    0    0  502  503 -0.00000000000E+00 -0.00000000000E+00 -0.72809442639E+02  0.72809442639E+02  0.00000000000E+00 0.  1.
         24    1    1    2    0    0 -0.70728869835E+01 -0.27107479140E+01 -0.99258377731E+01  0.81382504842E+02  0.80419002446E+02 0. -1.
          1    1    1    2  501    0 -0.30028207325E+01  0.20464754156E+02  0.12538242726E+03  0.12707704813E+03  0.00000000000E+00 0. -1.
         -2    1    1    2    0  503  0.10075707716E+02 -0.17754006242E+02 -0.22347898911E+02  0.30268022885E+02  0.00000000000E+00 0.  1.
<mgrwt>
<rscale>  2 0.60936326E+02</rscale>
<asrwt>0</asrwt>
<pdfrwt beam="1">  1       21 0.25525867E-01 0.60936326E+02</pdfrwt>
<pdfrwt beam="2">  1       21 0.11201453E-01 0.60936326E+02</pdfrwt>
<totfact> 0.95347214E+05</totfact>
</mgrwt>
</event>
<event>
 5    1  0.1590180E+000  0.7318286E+02  0.7546771E-02  0.1349592E+00
         21   -1    0    0  501  502  0.00000000000E+00  0.00000000000E+00  0.14675843914E+03  0.14675843914E+03  0.00000000000E+00 0. -1.
         21   -1    0    0  502  503 -0.00000000000E+00 -0.00000000000E+00 -0.42892252170E+02  0.42892252170E+02  0.00000000000E+00 0.  1.
         24    1    1    2    0    0 -0.88799458835E+00  0.14751821727E+02  0.64252835556E+02  0.10399061309E+03  0.80419002446E+02 0.  0.
          1    1    1    2  501    0 -0.28640544235E+01 -0.39482573848E+02  0.45144066710E+02  0.60042178545E+02  0.00000000000E+00 0. -1.
         -2    1    1    2    0  503  0.37520490118E+01  0.24730752120E+02 -0.55307152969E+01  0.25617899678E+02  0.00000000000E+00 0.  1.
<mgrwt>
<rscale>  2 0.73182859E+02</rscale>
<asrwt>0</asrwt>
<pdfrwt beam="1">  1       21 0.22578221E-01 0.73182859E+02</pdfrwt>
<pdfrwt beam="2">  1       21 0.65988081E-02 0.73182859E+02</pdfrwt>
<totfact> 0.29675141E+06</totfact>
</mgrwt>
</event>
<event>
 5    1  0.1590180E+000  0.2033678E+03  0.7546771E-02  0.1146928E+00
         21   -1    0    0  503  502  0.00000000000E+00  0.00000000000E+00  0.32255558249E+03  0.32255558249E+03  0.00000000000E+00 0.  1.
         21   -1    0    0  501  503 -0.00000000000E+00 -0.00000000000E+00 -0.16630777137E+03  0.16630777137E+03  0.00000000000E+00 0. -1.
         24    1    1    2    0    0 -0.75918280843E+02  0.90460172020E+02  0.14907949616E+03  0.20649101728E+03  0.80419002446E+02 0. -1.
          1    1    1    2  501    0  0.63715323907E+02 -0.17095577519E+03 -0.42063129811E+02  0.18722934188E+03  0.00000000000E+00 0. -1.
         -2    1    1    2    0  502  0.12202956936E+02  0.80495603165E+02  0.49231444759E+02  0.95142994697E+02  0.00000000000E+00 0.  1.
<mgrwt>
<rscale>  2 0.20336777E+03</rscale>
<asrwt>0</asrwt>
<pdfrwt beam="1">  1       21 0.49623936E-01 0.20336777E+03</pdfrwt>
<pdfrwt beam="2">  1       21 0.25585811E-01 0.20336777E+03</pdfrwt>
<totfact> 0.55806710E+04</totfact>
</mgrwt>
</event>
<event>
 5    1  0.1590180E+000  0.1025774E+03  0.7546771E-02  0.1274968E+00
         21   -1    0    0  501  502  0.00000000000E+00  0.00000000000E+00  0.74917721161E+03  0.74917721161E+03  0.00000000000E+00 0.  1.
         21   -1    0    0  502  503 -0.00000000000E+00 -0.00000000000E+00 -0.38339053106E+02  0.38339053106E+02  0.00000000000E+00 0.  1.
         24    1    1    2    0    0  0.10910473917E+01  0.46374551856E+02  0.26375906823E+03  0.27962090672E+03  0.80419002446E+02 0.  1.
          1    1    1    2  501    0  0.11465701523E+02  0.31455371835E+02  0.42459851596E+03  0.42591642664E+03  0.00000000000E+00 0. -1.
         -2    1    1    2    0  503 -0.12556748914E+02 -0.77829923691E+02  0.22480574314E+02  0.81978931358E+02  0.00000000000E+00 0.  1.
<mgrwt>
<rscale>  2 0.10257741E+03</rscale>
<asrwt>0</asrwt>
<pdfrwt beam="1">  1       21 0.11525802E+00 0.10257741E+03</pdfrwt>
<pdfrwt beam="2">  1       21 0.58983164E-02 0.10257741E+03</pdfrwt>
<totfact> 0.12308506E+05</totfact>
</mgrwt>
</event>
<event>
 5    1  0.1590180E+000  0.1308726E+03  0.7546771E-02  0.1226167E+00
         21   -1    0    0  503  502  0.00000000000E+00  0.00000000000E+00  0.49394322166E+03  0.49394322166E+03  0.00000000000E+00 0.  1.
         21   -1    0    0  501  503 -0.00000000000E+00 -0.00000000000E+00 -0.59977112680E+02  0.59977112680E+02  0.00000000000E+00 0.  1.
         24    1    1    2    0    0 -0.24847118291E+02 -0.10728520302E+03  0.17357924379E+03  0.22073618621E+03  0.80419002446E+02 0.  1.
          1    1    1    2  501    0 -0.17305224072E+02  0.11625463137E+02 -0.23053211386E+02  0.31081710515E+02  0.00000000000E+00 0. -1.
         -2    1    1    2    0  502  0.42152342363E+02  0.95659739884E+02  0.28344007658E+03  0.30210243762E+03  0.00000000000E+00 0.  1.
<mgrwt>
<rscale>  2 0.13087260E+03</rscale>
<asrwt>0</asrwt>
<pdfrwt beam="1">  1       21 0.75991262E-01 0.13087260E+03</pdfrwt>
<pdfrwt beam="2">  1       21 0.92272484E-02 0.13087260E+03</pdfrwt>
<totfact> 0.14744548E+05</totfact>
</mgrwt>
</event>
<event>
 5    1  0.1590180E+000  0.1034465E+03  0.7546771E-02  0.1273211E+00
         21   -1    0    0  501  502  0.00000000000E+00  0.00000000000E+00  0.10561884935E+03  0.10561884935E+03  0.00000000000E+00 0.  1.
         21   -1    0    0  502  503 -0.00000000000E+00 -0.00000000000E+00 -0.11807591120E+03  0.11807591120E+03  0.00000000000E+00 0.  1.
         24    1    1    2    0    0  0.29703200110E+01 -0.77015208320E+02  0.28242433654E+02  0.11491308075E+03  0.80419002446E+02 0.  1.
          1    1    1    2  501    0 -0.22794195612E+02  0.87446250375E+01  0.40955786885E+01  0.24755152704E+02  0.00000000000E+00 0. -1.
         -2    1    1    2    0  503  0.19823875601E+02  0.68270583282E+02 -0.44795074190E+02  0.84026527105E+02  0.00000000000E+00 0.  1.
<mgrwt>
<rscale>  2 0.10344646E+03</rscale>
<asrwt>0</asrwt>
<pdfrwt beam="1">  1       21 0.16249054E-01 0.10344646E+03</pdfrwt>
<pdfrwt beam="2">  1       21 0.18165525E-01 0.10344646E+03</pdfrwt>
<totfact> 0.93500558E+05</totfact>
</mgrwt>
</event>
<event>
 5    1  0.1590180E+000  0.1677271E+03  0.7546771E-02  0.1180239E+00
         21   -1    0    0  503  502  0.00000000000E+00  0.00000000000E+00  0.24149622039E+03  0.24149622039E+03  0.00000000000E+00 0.  1.
         21   -1    0    0  501  503 -0.00000000000E+00 -0.00000000000E+00 -0.12004850129E+03  0.12004850129E+03  0.00000000000E+00 0. -1.
         24    1    1    2    0    0  0.48466893749E+02 -0.54033555034E+02  0.52772123468E+02  0.12050219014E+03  0.80419002446E+02 0.  1.
          1    1    1    2  501    0 -0.13447546193E+03  0.29344481618E+02  0.19723802792E+02  0.13904595233E+03  0.00000000000E+00 0. -1.
         -2    1    1    2    0  502  0.86008568185E+02  0.24689073417E+02  0.48951792842E+02  0.10199657921E+03  0.00000000000E+00 0.  1.
<mgrwt>
<rscale>  2 0.16772709E+03</rscale>
<asrwt>0</asrwt>
<pdfrwt beam="1">  1       21 0.37153264E-01 0.16772709E+03</pdfrwt>
<pdfrwt beam="2">  1       21 0.18469000E-01 0.16772709E+03</pdfrwt>
<totfact> 0.18844065E+05</totfact>
</mgrwt>
</event>
<event>
 5    1  0.1590180E+000  0.9641469E+02  0.7546771E-02  0.1288021E+00
         21   -1    0    0  503  502  0.00000000000E+00  0.00000000000E+00  0.22032697293E+03  0.22032697293E+03  0.00000000000E+00 0.  1.
         21   -1    0    0  501  503 -0.00000000000E+00 -0.00000000000E+00 -0.44659980985E+02  0.44659980985E+02  0.00000000000E+00 0. -1.
         24    1    1    2    0    0 -0.98315010684E+01 -0.14696795451E+02  0.61125089799E+02  0.10254826555E+03  0.80419002446E+02 0.  0.
          1    1    1    2  501    0  0.44205723165E+00 -0.47543154567E+02  0.27189389827E+02  0.54770520172E+02  0.00000000000E+00 0. -1.
         -2    1    1    2    0  502  0.93894438368E+01  0.62239950018E+02  0.87352512319E+02  0.10766816819E+03  0.00000000000E+00 0.  1.
<mgrwt>
<rscale>  2 0.96414691E+02</rscale>
<asrwt>0</asrwt>
<pdfrwt beam="1">  1       21 0.33896457E-01 0.96414691E+02</pdfrwt>
<pdfrwt beam="2">  1       21 0.68707664E-02 0.96414691E+02</pdfrwt>
<totfact> 0.13011261E+06</totfact>
</mgrwt>
</event>
<event>
 5    1  0.1590180E+000  0.7804723E+02  0.7546771E-02  0.1334686E+00
         21   -1    0    0  501  502  0.00000000000E+00  0.00000000000E+00  0.73349817476E+02  0.73349817476E+02  0.00000000000E+00 0. -1.
         21   -1    0    0  502  503 -0.00000000000E+00 -0.00000000000E+00 -0.12947731658E+03  0.12947731658E+03  0.00000000000E+00 0.  1.
         24    1    1    2    0    0 -0.19525027896E+02 -0.47943665967E+02  0.22239334471E+02  0.98191780577E+02  0.80419002446E+02 0. -1.
          1    1    1    2  501    0 -0.58378321059E+01  0.26816996576E+02 -0.10907839357E+02  0.29533244802E+02  0.00000000000E+00 0. -1.
         -2    1    1    2    0  503  0.25362860002E+02  0.21126669391E+02 -0.67458994213E+02  0.75102108674E+02  0.00000000000E+00 0.  1.
<mgrwt>
<rscale>  2 0.78047233E+02</rscale>
<asrwt>0</asrwt>
<pdfrwt beam="1">  1       21 0.11284587E-01 0.78047233E+02</pdfrwt>
<pdfrwt beam="2">  1       21 0.19919587E-01 0.78047233E+02</pdfrwt>
<totfact> 0.14973107E+06</totfact>
</mgrwt>
</event>
<event>
 5    1  0.1590180E+000  0.7532074E+02  0.7546771E-02  0.1342881E+00
         21   -1    0    0  503  502  0.00000000000E+00  0.00000000000E+00  0.43620669725E+03  0.43620669725E+03  0.00000000000E+00 0. -1.
         21   -1    0    0  501  503 -0.00000000000E+00 -0.00000000000E+00 -0.13683332376E+02  0.13683332376E+02  0.00000000000E+00 0. -1.
         24    1    1    2    0    0 -0.51794261860E+02  0.11445259886E+02  0.28622532968E+03  0.30200297158E+03  0.80419002446E+02 0. -1.
          1    1    1    2  501    0  0.31146426799E+02 -0.12659290067E+02  0.59388027754E+02  0.68244379753E+02  0.00000000000E+00 0. -1.
         -2    1    1    2    0  502  0.20647835061E+02  0.12140301814E+01  0.76910007433E+02  0.79642678291E+02  0.00000000000E+00 0.  1.
<mgrwt>
<rscale>  2 0.75320741E+02</rscale>
<asrwt>0</asrwt>
<pdfrwt beam="1">  1       21 0.67108712E-01 0.75320741E+02</pdfrwt>
<pdfrwt beam="2">  1       21 0.21051284E-02 0.75320741E+02</pdfrwt>
<totfact> 0.22528837E+06</totfact>
</mgrwt>
</event>
<event>
 5    1  0.1590180E+000  0.7512532E+02  0.7546771E-02  0.1343483E+00
         21   -1    0    0  501  502  0.00000000000E+00  0.00000000000E+00  0.46034999255E+02  0.46034999255E+02  0.00000000000E+00 0.  1.
         21   -1    0    0  502  503 -0.00000000000E+00 -0.00000000000E+00 -0.17992960411E+03  0.17992960411E+03  0.00000000000E+00 0. -1.
         24    1    1    2    0    0 -0.25227110912E+01 -0.41513734123E+02 -0.76038977411E+02  0.11823238233E+03  0.80419002446E+02 0.  1.
          1    1    1    2  501    0 -0.19858356600E+02  0.24851330793E+02  0.10823102892E+02  0.33601823243E+02  0.00000000000E+00 0. -1.
         -2    1    1    2    0  503  0.22381067692E+02  0.16662403331E+02 -0.68678730335E+02  0.74130397788E+02  0.00000000000E+00 0.  1.
<mgrwt>
<rscale>  2 0.75125321E+02</rscale>
<asrwt>0</asrwt>
<pdfrwt beam="1">  1       21 0.70823076E-02 0.75125321E+02</pdfrwt>
<pdfrwt beam="2">  1       21 0.27681478E-01 0.75125321E+02</pdfrwt>
<totfact> 0.18057633E+06</totfact>
</mgrwt>
</event>
<event>
 5    1  0.1590180E+000  0.7559752E+02  0.7546771E-02  0.1342031E+00
         21   -1    0    0  503  502  0.00000000000E+00  0.00000000000E+00  0.47466204016E+03  0.47466204016E+03  0.00000000000E+00 0. -1.
         21   -1    0    0  501  503 -0.00000000000E+00 -0.00000000000E+00 -0.13986208304E+02  0.13986208304E+02  0.00000000000E+00 0. -1.
         24    1    1    2    0    0 -0.21160215534E+02  0.47502574601E+02  0.20341882027E+03  0.22483478759E+03  0.80419002446E+02 0. -1.
          1    1    1    2  501    0  0.19482697987E+02 -0.20168665641E+02  0.88133352834E+02  0.92486963818E+02  0.00000000000E+00 0. -1.
         -2    1    1    2    0  502  0.16775175466E+01 -0.27333908959E+02  0.16912365875E+03  0.17132649706E+03  0.00000000000E+00 0.  1.
<mgrwt>
<rscale>  2 0.75597524E+02</rscale>
<asrwt>0</asrwt>
<pdfrwt beam="1">  1       21 0.73024917E-01 0.75597524E+02</pdfrwt>
<pdfrwt beam="2">  1       21 0.21517247E-02 0.75597524E+02</pdfrwt>
<totfact> 0.18152028E+06</totfact>
</mgrwt>
</event>
<event>
 5    1  0.1590180E+000  0.6996170E+02  0.7546771E-02  0.1360223E+00
         21   -1    0    0  503  502  0.00000000000E+00  0.00000000000E+00  0.36630110363E+02  0.36630110363E+02  0.00000000000E+00 0. -1.
         21   -1    0    0  501  503 -0.00000000000E+00 -0.00000000000E+00 -0.17690932064E+03  0.17690932064E+03  0.00000000000E+00 0.  1.
         24    1    1    2    0    0  0.22641350120E+01 -0.26752646461E+01 -0.96238641819E+02  0.12546463837E+03  0.80419002446E+02 0.  1.
          1    1    1    2  501    0 -0.63897009618E+01  0.30569618263E+02 -0.50285017236E+02  0.59193857769E+02  0.00000000000E+00 0. -1.
         -2    1    1    2    0  502  0.41255659498E+01 -0.27894353617E+02  0.62444487759E+01  0.28880934865E+02  0.00000000000E+00 0.  1.
<mgrwt>
<rscale>  2 0.69961698E+02</rscale>
<asrwt>0</asrwt>
<pdfrwt beam="1">  1       21 0.56354015E-02 0.69961698E+02</pdfrwt>
<pdfrwt beam="2">  1       21 0.27216819E-01 0.69961698E+02</pdfrwt>
<totfact> 0.27232004E+06</totfact>
</mgrwt>
</event>
<event>
 5    1  0.1590180E+000  0.1684936E+03  0.7546771E-02  0.1179428E+00
         21   -1    0    0  503  502  0.00000000000E+00  0.00000000000E+00  0.16504683370E+03  0.16504683370E+03  0.00000000000E+00 0.  1.
         21   -1    0    0  501  503 -0.00000000000E+00 -0.00000000000E+00 -0.72931802696E+03  0.72931802696E+03  0.00000000000E+00 0.  1.
         24    1    1    2    0    0  0.97330317208E+02 -0.58944493596E+02 -0.27156251979E+03  0.30522297109E+03  0.80419002446E+02 0.  1.
          1    1    1    2  501    0 -0.69454727995E+02 -0.49752379768E+02 -0.41468836275E+03  0.42339779964E+03  0.00000000000E+00 0. -1.
         -2    1    1    2    0  502 -0.27875589213E+02  0.10869687336E+03  0.12197968927E+03  0.16574408993E+03  0.00000000000E+00 0.  1.
<mgrwt>
<rscale>  2 0.16849363E+03</rscale>
<asrwt>0</asrwt>
<pdfrwt beam="1">  1       21 0.25391820E-01 0.16849363E+03</pdfrwt>
<pdfrwt beam="2">  1       21 0.11220277E+00 0.16849363E+03</pdfrwt>
<totfact> 0.93200691E+03</totfact>
</mgrwt>
</event>
<event>
 5    1  0.1590180E+000  0.7520321E+02  0.7546771E-02  0.1343243E+00
         21   -1    0    0  503  502  0.00000000000E+00  0.00000000000E+00  0.64307580302E+03  0.64307580302E+03  0.00000000000E+00 0. -1.
         21   -1    0    0  501  503 -0.00000000000E+00 -0.00000000000E+00 -0.10006514967E+02  0.10006514967E+02  0.00000000000E+00 0.  1.
         24    1    1    2    0    0 -0.14392587334E+02 -0.37994156561E+02  0.46825317882E+03  0.47684269726E+03  0.80419002446E+02 0. -1.
          1    1    1    2  501    0 -0.15514717329E+02  0.20326310722E+02  0.48237395039E+02  0.54595893999E+02  0.00000000000E+00 0. -1.
         -2    1    1    2    0  502  0.29907304663E+02  0.17667845838E+02  0.11657871419E+03  0.12164372672E+03  0.00000000000E+00 0.  1.
<mgrwt>
<rscale>  2 0.75203213E+02</rscale>
<asrwt>0</asrwt>
<pdfrwt beam="1">  1       21 0.98934707E-01 0.75203213E+02</pdfrwt>
<pdfrwt beam="2">  1       21 0.15394643E-02 0.75203213E+02</pdfrwt>
<totfact> 0.15721410E+06</totfact>
</mgrwt>
</event>
<event>
 5    1  0.1590180E+000  0.6358527E+02  0.7546771E-02  0.1383374E+00
         21   -1    0    0  503  502  0.00000000000E+00  0.00000000000E+00  0.76462812391E+01  0.76462812391E+01  0.00000000000E+00 0. -1.
         21   -1    0    0  501  503 -0.00000000000E+00 -0.00000000000E+00 -0.56634985954E+03  0.56634985954E+03  0.00000000000E+00 0.  1.
         24    1    1    2    0    0 -0.63997207059E+01  0.12552833527E+02 -0.28258779176E+03  0.29414555251E+03  0.80419002446E+02 0. -1.
          1    1    1    2  501    0 -0.15100978453E+02 -0.17852094038E+02 -0.13585446678E+03  0.13785199656E+03  0.00000000000E+00 0. -1.
         -2    1    1    2    0  502  0.21500699159E+02  0.52992605118E+01 -0.14026131976E+03  0.14199859171E+03  0.00000000000E+00 0.  1.
<mgrwt>
<rscale>  2 0.63585274E+02</rscale>
<asrwt>0</asrwt>
<pdfrwt beam="1">  1       21 0.11763513E-02 0.63585274E+02</pdfrwt>
<pdfrwt beam="2">  1       21 0.87130722E-01 0.63585274E+02</pdfrwt>
<totfact> 0.31695567E+06</totfact>
</mgrwt>
</event>
<event>
 5    1  0.1590180E+000  0.8740345E+02  0.7546771E-02  0.1309264E+00
         21   -1    0    0  501  502  0.00000000000E+00  0.00000000000E+00  0.43060237941E+02  0.43060237941E+02  0.00000000000E+00 0.  1.
         21   -1    0    0  502  503 -0.00000000000E+00 -0.00000000000E+00 -0.55549367922E+03  0.55549367922E+03  0.00000000000E+00 0.  1.
         24    1    1    2    0    0 -0.33759399951E+01  0.64783269362E+02 -0.38223461527E+02  0.11016586552E+03  0.80419002446E+02 0.  1.
          1    1    1    2  501    0 -0.10641420846E+02 -0.49970154946E+02 -0.88873104863E+02  0.10251187732E+03  0.00000000000E+00 0. -1.
         -2    1    1    2    0  503  0.14017360841E+02 -0.14813114416E+02 -0.38533687489E+03  0.38587617432E+03  0.00000000000E+00 0.  1.
<mgrwt>
<rscale>  2 0.87403447E+02</rscale>
<asrwt>0</asrwt>
<pdfrwt beam="1">  1       21 0.66246528E-02 0.87403447E+02</pdfrwt>
<pdfrwt beam="2">  1       21 0.85460555E-01 0.87403447E+02</pdfrwt>
<totfact> 0.20347933E+05</totfact>
</mgrwt>
</event>
<event>
 5    1  0.1590180E+000  0.9236406E+02  0.7546771E-02  0.1297226E+00
         21   -1    0    0  503  502  0.00000000000E+00  0.00000000000E+00  0.39929061830E+02  0.39929061830E+02  0.00000000000E+00 0.  1.
         21   -1    0    0  501  503 -0.00000000000E+00 -0.00000000000E+00 -0.62021358590E+03  0.62021358590E+03  0.00000000000E+00 0. -1.
         24    1    1    2    0    0  0.17237335995E+02  0.60964224522E+02 -0.28308290064E+03  0.30102642245E+03  0.80419002446E+02 0. -1.
          1    1    1    2  501    0 -0.29473638849E+02 -0.11901441098E+02 -0.30612369900E+03  0.30776948968E+03  0.00000000000E+00 0. -1.
         -2    1    1    2    0  502  0.12236302854E+02 -0.49062783423E+02  0.89220755684E+01  0.51346735605E+02  0.00000000000E+00 0.  1.
<mgrwt>
<rscale>  2 0.92364065E+02</rscale>
<asrwt>0</asrwt>
<pdfrwt beam="1">  1       21 0.61429328E-02 0.92364065E+02</pdfrwt>
<pdfrwt beam="2">  1       21 0.95417472E-01 0.92364065E+02</pdfrwt>
<totfact> 0.17978459E+05</totfact>
</mgrwt>
</event>
<event>
 5    1  0.1590180E+000  0.1208906E+03  0.7546771E-02  0.1241635E+00
         21   -1    0    0  503  502  0.00000000000E+00  0.00000000000E+00  0.23075191558E+03  0.23075191558E+03  0.00000000000E+00 0. -1.
         21   -1    0    0  501  503 -0.00000000000E+00 -0.00000000000E+00 -0.95143402392E+02  0.95143402392E+02  0.00000000000E+00 0.  1.
         24    1    1    2    0    0  0.47418415265E+02 -0.41555334766E+02  0.53536235709E+01  0.10232902420E+03  0.80419002446E+02 0.  1.
          1    1    1    2  501    0 -0.90339551828E+02  0.27747086108E+02  0.98743356982E+01  0.95019145005E+02  0.00000000000E+00 0. -1.
         -2    1    1    2    0  502  0.42921136563E+02  0.13808248657E+02  0.12038055392E+03  0.12854714877E+03  0.00000000000E+00 0.  1.
<mgrwt>
<rscale>  2 0.12089058E+03</rscale>
<asrwt>0</asrwt>
<pdfrwt beam="1">  1       21 0.35500295E-01 0.12089058E+03</pdfrwt>
<pdfrwt beam="2">  1       21 0.14637447E-01 0.12089058E+03</pdfrwt>
<totfact> 0.31823447E+05</totfact>
</mgrwt>
</event>
<event>
 5    1  0.1590180E+000  0.7528055E+02  0.7546771E-02  0.1343004E+00
         21   -1    0    0  501  502  0.00000000000E+00  0.00000000000E+00  0.37095097893E+02  0.37095097893E+02  0.00000000000E+00 0.  1.
         21   -1    0    0  502  503 -0.00000000000E+00 -0.00000000000E+00 -0.42046084585E+03  0.42046084585E+03  0.00000000000E+00 0.  1.
         24    1    1    2    0    0 -0.46993197499E+02 -0.21910208926E+02 -0.30659713038E+02  0.10047712090E+03  0.80419002446E+02 0.  1.
          1    1    1    2  501    0  0.22071398556E+02  0.20160267217E+02 -0.16098248330E+03  0.16373436700E+03  0.00000000000E+00 0. -1.
         -2    1    1    2    0  503  0.24921798944E+02  0.17499417095E+01 -0.19172355162E+03  0.19334445584E+03  0.00000000000E+00 0.  1.
<mgrwt>
<rscale>  2 0.75280548E+02</rscale>
<asrwt>0</asrwt>
<pdfrwt beam="1">  1       21 0.57069381E-02 0.75280548E+02</pdfrwt>
<pdfrwt beam="2">  1       21 0.64686285E-01 0.75280548E+02</pdfrwt>
<totfact> 0.47981439E+05</totfact>
</mgrwt>
</event>
<event>
 5    1  0.1590180E+000  0.1124129E+03  0.7546771E-02  0.1256166E+00
         21   -1    0    0  501  502  0.00000000000E+00  0.00000000000E+00  0.13221746530E+04  0.13221746530E+04  0.00000000000E+00 0.  1.
         21   -1    0    0  502  503 -0.00000000000E+00 -0.00000000000E+00 -0.27929358760E+02  0.27929358760E+02  0.00000000000E+00 0.  1.
         24    1    1    2    0    0 -0.56073979075E+02  0.52606536222E+02  0.10705849235E+03  0.15440361240E+03  0.80419002446E+02 0.  1.
          1    1    1    2  501    0 -0.19457535113E+02 -0.28057917327E+02  0.78525984862E+03  0.78600182713E+03  0.00000000000E+00 0. -1.
         -2    1    1    2    0  503  0.75531514187E+02 -0.24548618896E+02  0.40192695326E+03  0.40969857223E+03  0.00000000000E+00 0.  1.
<mgrwt>
<rscale>  2 0.11241293E+03</rscale>
<asrwt>0</asrwt>
<pdfrwt beam="1">  1       21 0.20341144E+00 0.11241293E+03</pdfrwt>
<pdfrwt beam="2">  1       21 0.42968255E-02 0.11241293E+03</pdfrwt>
<totfact> 0.47209747E+04</totfact>
</mgrwt>
</event>
<event>
 5    1  0.1590180E+000  0.6663117E+02  0.7546771E-02  0.1371939E+00
         21   -1    0    0  501  502  0.00000000000E+00  0.00000000000E+00  0.14708475607E+03  0.14708475607E+03  0.00000000000E+00 0.  1.
         21   -1    0    0  502  503 -0.00000000000E+00 -0.00000000000E+00 -0.15607585708E+03  0.15607585708E+03  0.00000000000E+00 0.  1.
         24    1    1    2    0    0 -0.12220552028E+02  0.33708198509E+02 -0.15068260600E+02  0.89330022783E+02  0.80419002446E+02 0.  0.
          1    1    1    2  501    0  0.19547847120E+02 -0.13607226358E+02  0.10753521909E+03  0.11014126512E+03  0.00000000000E+00 0. -1.
         -2    1    1    2    0  503 -0.73272950925E+01 -0.20100972151E+02 -0.10145805949E+03  0.10368932525E+03  0.00000000000E+00 0.  1.
<mgrwt>
<rscale>  2 0.66631172E+02</rscale>
<asrwt>0</asrwt>
<pdfrwt beam="1">  1       21 0.22628424E-01 0.66631172E+02</pdfrwt>
<pdfrwt beam="2">  1       21 0.24011670E-01 0.66631172E+02</pdfrwt>
<totfact> 0.30633579E+05</totfact>
</mgrwt>
</event>
<event>
 5    1  0.1590180E+000  0.7856374E+02  0.7546771E-02  0.1333177E+00
         21   -1    0    0  503  502  0.00000000000E+00  0.00000000000E+00  0.15571894194E+03  0.15571894194E+03  0.00000000000E+00 0. -1.
         21   -1    0    0  501  503 -0.00000000000E+00 -0.00000000000E+00 -0.42168841674E+02  0.42168841674E+02  0.00000000000E+00 0.  1.
         24    1    1    2    0    0 -0.48619177049E+02 -0.30535081915E+02  0.52592038553E+02  0.11193459732E+03  0.80419002446E+02 0.  0.
          1    1    1    2  501    0  0.34400395077E+02  0.15848713647E+02  0.27733439786E+02  0.46943717238E+02  0.00000000000E+00 0. -1.
         -2    1    1    2    0  502  0.14218781971E+02  0.14686368268E+02  0.33224621925E+02  0.39009469052E+02  0.00000000000E+00 0.  1.
<mgrwt>
<rscale>  2 0.78563742E+02</rscale>
<asrwt>0</asrwt>
<pdfrwt beam="1">  1       21 0.23956760E-01 0.78563742E+02</pdfrwt>
<pdfrwt beam="2">  1       21 0.64875142E-02 0.78563742E+02</pdfrwt>
<totfact> 0.27476060E+06</totfact>
</mgrwt>
</event>
<event>
 5    1  0.1590180E+000  0.8848334E+02  0.7546771E-02  0.1306567E+00
         21   -1    0    0  503  502  0.00000000000E+00  0.00000000000E+00  0.71127526375E+03  0.71127526375E+03  0.00000000000E+00 0.  1.
         21   -1    0    0  501  503 -0.00000000000E+00 -0.00000000000E+00 -0.50528825455E+02  0.50528825455E+02  0.00000000000E+00 0.  1.
         24    1    1    2    0    0 -0.44781579489E+02  0.31241435695E+02  0.70498033261E+01  0.97459390759E+02  0.80419002446E+02 0.  1.
          1    1    1    2  501    0  0.18686680670E+02 -0.46093371098E+02  0.12128582994E+03  0.13108792255E+03  0.00000000000E+00 0. -1.
         -2    1    1    2    0  502  0.26094898819E+02  0.14851935403E+02  0.53241080502E+03  0.53325677589E+03  0.00000000000E+00 0.  1.
<mgrwt>
<rscale>  2 0.88483341E+02</rscale>
<asrwt>0</asrwt>
<pdfrwt beam="1">  1       21 0.10942696E+00 0.88483341E+02</pdfrwt>
<pdfrwt beam="2">  1       21 0.77736660E-02 0.88483341E+02</pdfrwt>
<totfact> 0.87924391E+04</totfact>
</mgrwt>
</event>
<event>
 5    1  0.1590180E+000  0.8357834E+02  0.7546771E-02  0.1319193E+00
         21   -1    0    0  501  502  0.00000000000E+00  0.00000000000E+00  0.27297911121E+03  0.27297911121E+03  0.00000000000E+00 0. -1.
         21   -1    0    0  502  503 -0.00000000000E+00 -0.00000000000E+00 -0.44289549689E+02  0.44289549689E+02  0.00000000000E+00 0.  1.
         24    1    1    2    0    0 -0.11687647910E+01 -0.39687066755E+02  0.22180256722E+03  0.23924887473E+03  0.80419002446E+02 0. -1.
          1    1    1    2  501    0 -0.17098522883E+02 -0.13146269412E+02  0.47031545681E+01  0.22074952936E+02  0.00000000000E+00 0. -1.
         -2    1    1    2    0  503  0.18267287674E+02  0.52833336166E+02  0.21838397284E+01  0.55944833232E+02  0.00000000000E+00 0.  1.
<mgrwt>
<rscale>  2 0.83578343E+02</rscale>
<asrwt>0</asrwt>
<pdfrwt beam="1">  1       21 0.41996785E-01 0.83578343E+02</pdfrwt>
<pdfrwt beam="2">  1       21 0.68137771E-02 0.83578343E+02</pdfrwt>
<totfact> 0.86397694E+05</totfact>
</mgrwt>
</event>
<event>
 5    1  0.1590180E+000  0.7595499E+02  0.7546771E-02  0.1340939E+00
         21   -1    0    0  503  502  0.00000000000E+00  0.00000000000E+00  0.81503986788E+01  0.81503986788E+01  0.00000000000E+00 0.  1.
         21   -1    0    0  501  503 -0.00000000000E+00 -0.00000000000E+00 -0.80476737263E+03  0.80476737263E+03  0.00000000000E+00 0. -1.
         24    1    1    2    0    0 -0.17146152373E+02 -0.17356464655E+01 -0.56406700092E+03  0.57003140307E+03  0.80419002446E+02 0.  0.
          1    1    1    2  501    0  0.18348785800E+02 -0.31474912950E+02 -0.13507424407E+03  0.13990139205E+03  0.00000000000E+00 0. -1.
         -2    1    1    2    0  502 -0.12026334277E+01  0.33210559416E+02 -0.97475728967E+02  0.10298497619E+03  0.00000000000E+00 0.  1.
<mgrwt>
<rscale>  2 0.75954994E+02</rscale>
<asrwt>0</asrwt>
<pdfrwt beam="1">  1       21 0.12539071E-02 0.75954994E+02</pdfrwt>
<pdfrwt beam="2">  1       21 0.12381041E+00 0.75954994E+02</pdfrwt>
<totfact> 0.12819365E+06</totfact>
</mgrwt>
</event>
<event>
 5    1  0.1590180E+000  0.1041111E+03  0.7546771E-02  0.1271881E+00
         21   -1    0    0  503  502  0.00000000000E+00  0.00000000000E+00  0.22230260121E+03  0.22230260121E+03  0.00000000000E+00 0. -1.
         21   -1    0    0  501  503 -0.00000000000E+00 -0.00000000000E+00 -0.76906106395E+02  0.76906106395E+02  0.00000000000E+00 0. -1.
         24    1    1    2    0    0 -0.56392029418E+02 -0.43128508751E+02  0.15572008688E+03  0.18909280965E+03  0.80419002446E+02 0. -1.
          1    1    1    2  501    0  0.18583221061E+02  0.57556162822E+02 -0.27141156190E+02  0.66292460681E+02  0.00000000000E+00 0. -1.
         -2    1    1    2    0  502  0.37808808357E+02 -0.14427654071E+02  0.16817564125E+02  0.43823437273E+02  0.00000000000E+00 0.  1.
<mgrwt>
<rscale>  2 0.10411107E+03</rscale>
<asrwt>0</asrwt>
<pdfrwt beam="1">  1       21 0.34200400E-01 0.10411107E+03</pdfrwt>
<pdfrwt beam="2">  1       21 0.11831709E-01 0.10411107E+03</pdfrwt>
<totfact> 0.50068108E+05</totfact>
</mgrwt>
</event>
<event>
 5    1  0.1590180E+000  0.7615738E+02  0.7546771E-02  0.1340324E+00
         21   -1    0    0  501  502  0.00000000000E+00  0.00000000000E+00  0.34988680649E+03  0.34988680649E+03  0.00000000000E+00 0. -1.
         21   -1    0    0  502  503 -0.00000000000E+00 -0.00000000000E+00 -0.17549324298E+02  0.17549324298E+02  0.00000000000E+00 0. -1.
         24    1    1    2    0    0  0.11864872939E+02  0.29559024189E+02  0.15349036573E+03  0.17618461751E+03  0.80419002446E+02 0. -1.
          1    1    1    2  501    0 -0.35330893848E+02 -0.17168629450E+02  0.12806549328E+03  0.13395448655E+03  0.00000000000E+00 0. -1.
         -2    1    1    2    0  503  0.23466020910E+02 -0.12390394739E+02  0.50781623177E+02  0.57297026726E+02  0.00000000000E+00 0.  1.
<mgrwt>
<rscale>  2 0.76157381E+02</rscale>
<asrwt>0</asrwt>
<pdfrwt beam="1">  1       21 0.53828734E-01 0.76157381E+02</pdfrwt>
<pdfrwt beam="2">  1       21 0.26998963E-02 0.76157381E+02</pdfrwt>
<totfact> 0.23983836E+06</totfact>
</mgrwt>
</event>
<event>
 5    1  0.1590180E+000  0.9575565E+02  0.7546771E-02  0.1289483E+00
         21   -1    0    0  501  502  0.00000000000E+00  0.00000000000E+00  0.41496307566E+02  0.41496307566E+02  0.00000000000E+00 0. -1.
         21   -1    0    0  502  503 -0.00000000000E+00 -0.00000000000E+00 -0.48063380660E+03  0.48063380660E+03  0.00000000000E+00 0.  1.
         24    1    1    2    0    0  0.67136403607E+01  0.63304895189E+01 -0.15618113910E+03  0.17591166030E+03  0.80419002446E+02 0.  0.
          1    1    1    2  501    0 -0.58939021779E+01  0.51947541763E+02  0.49101468531E+01  0.52510900965E+02  0.00000000000E+00 0. -1.
         -2    1    1    2    0  503 -0.81973818284E+00 -0.58278031282E+02 -0.28786650679E+03  0.29370755291E+03  0.00000000000E+00 0.  1.
<mgrwt>
<rscale>  2 0.95755650E+02</rscale>
<asrwt>0</asrwt>
<pdfrwt beam="1">  1       21 0.63840470E-02 0.95755650E+02</pdfrwt>
<pdfrwt beam="2">  1       21 0.73943666E-01 0.95755650E+02</pdfrwt>
<totfact> 0.29746261E+05</totfact>
</mgrwt>
</event>
<event>
 5    1  0.1590180E+000  0.9367055E+02  0.7546771E-02  0.1294199E+00
         21   -1    0    0  501  502  0.00000000000E+00  0.00000000000E+00  0.70013563332E+02  0.70013563332E+02  0.00000000000E+00 0. -1.
         21   -1    0    0  502  503 -0.00000000000E+00 -0.00000000000E+00 -0.43075002073E+03  0.43075002073E+03  0.00000000000E+00 0. -1.
         24    1    1    2    0    0  0.10254681215E+02  0.70855199689E+02 -0.25305381139E+03  0.27500739121E+03  0.80419002446E+02 0. -1.
          1    1    1    2  501    0 -0.19739326656E+02 -0.20607709714E+02  0.51327237773E+02  0.58726519171E+02  0.00000000000E+00 0. -1.
         -2    1    1    2    0  503  0.94846454413E+01 -0.50247489975E+02 -0.15900988379E+03  0.16702967368E+03  0.00000000000E+00 0.  1.
<mgrwt>
<rscale>  2 0.93670551E+02</rscale>
<asrwt>0</asrwt>
<pdfrwt beam="1">  1       21 0.10771318E-01 0.93670551E+02</pdfrwt>
<pdfrwt beam="2">  1       21 0.66269232E-01 0.93670551E+02</pdfrwt>
<totfact> 0.15380797E+05</totfact>
</mgrwt>
</event>
<event>
 5    1  0.1590180E+000  0.7548159E+02  0.7546771E-02  0.1342386E+00
         21   -1    0    0  501  502  0.00000000000E+00  0.00000000000E+00  0.34194827631E+02  0.34194827631E+02  0.00000000000E+00 0. -1.
         21   -1    0    0  502  503 -0.00000000000E+00 -0.00000000000E+00 -0.18681757815E+03  0.18681757815E+03  0.00000000000E+00 0. -1.
         24    1    1    2    0    0  0.39986609004E+02  0.33569689151E+02 -0.73671933351E+02  0.12091576674E+03  0.80419002446E+02 0. -1.
          1    1    1    2  501    0 -0.24428272443E+02 -0.90647343729E+01 -0.15490167342E+02  0.30312624236E+02  0.00000000000E+00 0. -1.
         -2    1    1    2    0  503 -0.15558336562E+02 -0.24504954779E+02 -0.63460649824E+02  0.69784014798E+02  0.00000000000E+00 0.  1.
<mgrwt>
<rscale>  2 0.75481592E+02</rscale>
<asrwt>0</asrwt>
<pdfrwt beam="1">  1       21 0.52607428E-02 0.75481592E+02</pdfrwt>
<pdfrwt beam="2">  1       21 0.28741165E-01 0.75481592E+02</pdfrwt>
<totfact> 0.27674795E+06</totfact>
</mgrwt>
</event>
<event>
 5    1  0.1590180E+000  0.1502923E+03  0.7546771E-02  0.1200114E+00
         21   -1    0    0  501  502  0.00000000000E+00  0.00000000000E+00  0.18579540346E+03  0.18579540346E+03  0.00000000000E+00 0.  1.
         21   -1    0    0  502  503 -0.00000000000E+00 -0.00000000000E+00 -0.15681964458E+03  0.15681964458E+03  0.00000000000E+00 0.  1.
         24    1    1    2    0    0 -0.43500078813E+01 -0.12475210145E+03  0.21625974121E+02  0.15005634973E+03  0.80419002446E+02 0.  1.
          1    1    1    2  501    0 -0.30798082826E+02  0.10468976588E+02  0.54957932575E+02  0.63863101471E+02  0.00000000000E+00 0. -1.
         -2    1    1    2    0  503  0.35148090707E+02  0.11428312486E+03 -0.47608147814E+02  0.12869559684E+03  0.00000000000E+00 0.  1.
<mgrwt>
<rscale>  2 0.15029228E+03</rscale>
<asrwt>0</asrwt>
<pdfrwt beam="1">  1       21 0.28583908E-01 0.15029228E+03</pdfrwt>
<pdfrwt beam="2">  1       21 0.24126099E-01 0.15029228E+03</pdfrwt>
<totfact> 0.19207376E+05</totfact>
</mgrwt>
</event>
<event>
 5    1  0.1590180E+000  0.6525895E+02  0.7546771E-02  0.1377000E+00
         21   -1    0    0  501  502  0.00000000000E+00  0.00000000000E+00  0.25499423134E+02  0.25499423134E+02  0.00000000000E+00 0. -1.
         21   -1    0    0  502  503 -0.00000000000E+00 -0.00000000000E+00 -0.18682122294E+03  0.18682122294E+03  0.00000000000E+00 0.  1.
         24    1    1    2    0    0  0.23351600808E+02  0.51728846804E+01 -0.10540320574E+03  0.13471862429E+03  0.80419002446E+02 0. -1.
          1    1    1    2  501    0 -0.15521670106E+02  0.17049177832E+02 -0.83566174094E+01  0.24524064960E+02  0.00000000000E+00 0. -1.
         -2    1    1    2    0  503 -0.78299307020E+01 -0.22222062512E+02 -0.47561976661E+02  0.53077956828E+02  0.00000000000E+00 0.  1.
<mgrwt>
<rscale>  2 0.65258951E+02</rscale>
<asrwt>0</asrwt>
<pdfrwt beam="1">  1       21 0.39229882E-02 0.65258951E+02</pdfrwt>
<pdfrwt beam="2">  1       21 0.28741727E-01 0.65258951E+02</pdfrwt>
<totfact> 0.44420589E+06</totfact>
</mgrwt>
</event>
<event>
 5    1  0.1590180E+000  0.6936177E+02  0.7546771E-02  0.1362277E+00
         21   -1    0    0  503  502  0.00000000000E+00  0.00000000000E+00  0.91607166712E+01  0.91607166712E+01  0.00000000000E+00 0. -1.
         21   -1    0    0  501  503 -0.00000000000E+00 -0.00000000000E+00 -0.58690628691E+03  0.58690628691E+03  0.00000000000E+00 0.  1.
         24    1    1    2    0    0 -0.26544130823E+02  0.89584052775E+01 -0.42681884401E+03  0.43523141599E+03  0.80419002446E+02 0.  1.
          1    1    1    2  501    0  0.18176293203E+02 -0.27647750623E+02 -0.11286696494E+03  0.11761686751E+03  0.00000000000E+00 0. -1.
         -2    1    1    2    0  502  0.83678376199E+01  0.18689345346E+02 -0.38059761290E+02  0.43218720079E+02  0.00000000000E+00 0.  1.
<mgrwt>
<rscale>  2 0.69361770E+02</rscale>
<asrwt>0</asrwt>
<pdfrwt beam="1">  1       21 0.14093403E-02 0.69361770E+02</pdfrwt>
<pdfrwt beam="2">  1       21 0.90293319E-01 0.69361770E+02</pdfrwt>
<totfact> 0.22159847E+06</totfact>
</mgrwt>
</event>
<event>
 5    1  0.1590180E+000  0.1153231E+03  0.7546771E-02  0.1251018E+00
         21   -1    0    0  501  502  0.00000000000E+00  0.00000000000E+00  0.22158961525E+03  0.22158961525E+03  0.00000000000E+00 0. -1.
         21   -1    0    0  502  503 -0.00000000000E+00 -0.00000000000E+00 -0.85018369389E+02  0.85018369389E+02  0.00000000000E+00 0.  1.
         24    1    1    2    0    0  0.22757725959E+02 -0.51246266067E+02  0.58033715189E+02  0.11392638821E+03  0.80419002446E+02 0.  1.
          1    1    1    2  501    0 -0.18984760844E+02 -0.38424601147E+02  0.92410562042E+02  0.10186551475E+03  0.00000000000E+00 0. -1.
         -2    1    1    2    0  503 -0.37729651149E+01  0.89670867214E+02 -0.13873031374E+02  0.90816081683E+02  0.00000000000E+00 0.  1.
<mgrwt>
<rscale>  2 0.11532311E+03</rscale>
<asrwt>0</asrwt>
<pdfrwt beam="1">  1       21 0.34090710E-01 0.11532311E+03</pdfrwt>
<pdfrwt beam="2">  1       21 0.13079749E-01 0.11532311E+03</pdfrwt>
<totfact> 0.42158030E+05</totfact>
</mgrwt>
</event>
<event>
 5    1  0.1590180E+000  0.1122174E+03  0.7546771E-02  0.1256518E+00
         21   -1    0    0  503  502  0.00000000000E+00  0.00000000000E+00  0.16231291577E+04  0.16231291577E+04  0.00000000000E+00 0.  1.
         21   -1    0    0  501  503 -0.00000000000E+00 -0.00000000000E+00 -0.13734201404E+04  0.13734201404E+04  0.00000000000E+00 0. -1.
         24    1    1    2    0    0 -0.65897324224E+02 -0.98869683960E+01  0.20451217866E+03  0.22963592197E+03  0.80419002446E+02 0.  0.
          1    1    1    2  501    0  0.82021073262E+02  0.35786292194E+02 -0.13592212751E+04  0.13621639364E+04  0.00000000000E+00 0. -1.
         -2    1    1    2    0  502 -0.16123749038E+02 -0.25899323798E+02  0.14044181137E+04  0.14047494397E+04  0.00000000000E+00 0.  1.
<mgrwt>
<rscale>  2 0.11221745E+03</rscale>
<asrwt>0</asrwt>
<pdfrwt beam="1">  1       21 0.24971218E+00 0.11221745E+03</pdfrwt>
<pdfrwt beam="2">  1       21 0.21129541E+00 0.11221745E+03</pdfrwt>
<totfact> 0.93937920E+00</totfact>
</mgrwt>
</event>
<event>
 5    1  0.1590180E+000  0.6767819E+02  0.7546771E-02  0.1368171E+00
         21   -1    0    0  501  502  0.00000000000E+00  0.00000000000E+00  0.95838713159E+03  0.95838713159E+03  0.00000000000E+00 0.  1.
         21   -1    0    0  502  503 -0.00000000000E+00 -0.00000000000E+00 -0.56436407513E+01  0.56436407513E+01  0.00000000000E+00 0. -1.
         24    1    1    2    0    0  0.17855569912E+02  0.21526206890E+02  0.76134666769E+03  0.76609279028E+03  0.80419002446E+02 0.  1.
          1    1    1    2  501    0  0.87119019323E+01 -0.21977868781E+02  0.80309553851E+02  0.83717073475E+02  0.00000000000E+00 0. -1.
         -2    1    1    2    0  503 -0.26567471844E+02  0.45166189051E+00  0.11108726930E+03  0.11422090859E+03  0.00000000000E+00 0.  1.
<mgrwt>
<rscale>  2 0.67678190E+02</rscale>
<asrwt>0</asrwt>
<pdfrwt beam="1">  1       21 0.14744405E+00 0.67678190E+02</pdfrwt>
<pdfrwt beam="2">  1       21 0.86825318E-03 0.67678190E+02</pdfrwt>
<totfact> 0.14766901E+06</totfact>
</mgrwt>
</event>
<event>
 5    1  0.1590180E+000  0.1151652E+03  0.7546771E-02  0.1251293E+00
         21   -1    0    0  501  502  0.00000000000E+00  0.00000000000E+00  0.98873047458E+03  0.98873047458E+03  0.00000000000E+00 0. -1.
         21   -1    0    0  502  503 -0.00000000000E+00 -0.00000000000E+00 -0.55585471044E+02  0.55585471044E+02  0.00000000000E+00 0. -1.
         24    1    1    2    0    0 -0.97828177141E+02 -0.14169741728E+02  0.11614863627E+03  0.17242057732E+03  0.80419002446E+02 0. -1.
          1    1    1    2  501    0  0.75322506750E+02  0.22952508034E+02  0.83689846797E+03  0.84059463675E+03  0.00000000000E+00 0. -1.
         -2    1    1    2    0  503  0.22505670391E+02 -0.87827663064E+01 -0.19902100694E+02  0.31300731553E+02  0.00000000000E+00 0.  1.
<mgrwt>
<rscale>  2 0.11516522E+03</rscale>
<asrwt>0</asrwt>
<pdfrwt beam="1">  1       21 0.15211237E+00 0.11516522E+03</pdfrwt>
<pdfrwt beam="2">  1       21 0.85516116E-02 0.11516522E+03</pdfrwt>
<totfact> 0.32491200E+04</totfact>
</mgrwt>
</event>
<event>
 5    1  0.1590180E+000  0.7550436E+02  0.7546771E-02  0.1342316E+00
         21   -1    0    0  503  502  0.00000000000E+00  0.00000000000E+00  0.15127789602E+04  0.15127789602E+04  0.00000000000E+00 0.  1.
         21   -1    0    0  501  503 -0.00000000000E+00 -0.00000000000E+00 -0.49208413033E+01  0.49208413033E+01  0.00000000000E+00 0. -1.
         24    1    1    2    0    0 -0.17376081584E+02 -0.29042007008E+02  0.11610410119E+04  0.11643147399E+04  0.80419002446E+02 0.  1.
          1    1    1    2  501    0  0.30914467571E+02 -0.86866997711E+00  0.10865765086E+03  0.11297320029E+03  0.00000000000E+00 0. -1.
         -2    1    1    2    0  502 -0.13538385987E+02  0.29910676985E+02  0.23815945611E+03  0.24041186124E+03  0.00000000000E+00 0.  1.
<mgrwt>
<rscale>  2 0.75504363E+02</rscale>
<asrwt>0</asrwt>
<pdfrwt beam="1">  1       21 0.23273485E+00 0.75504363E+02</pdfrwt>
<pdfrwt beam="2">  1       21 0.75705371E-03 0.75504363E+02</pdfrwt>
<totfact> 0.52400224E+05</totfact>
</mgrwt>
</event>
<event>
 5    1  0.1590180E+000  0.1248640E+03  0.7546771E-02  0.1235282E+00
         21   -1    0    0  503  502  0.00000000000E+00  0.00000000000E+00  0.11392220631E+03  0.11392220631E+03  0.00000000000E+00 0. -1.
         21   -1    0    0  501  503 -0.00000000000E+00 -0.00000000000E+00 -0.17167871495E+03  0.17167871495E+03  0.00000000000E+00 0.  1.
         24    1    1    2    0    0  0.91362253102E+02  0.62441030152E+02 -0.84230236745E+02  0.16064834974E+03  0.80419002446E+02 0.  1.
          1    1    1    2  501    0 -0.22508850651E+02 -0.28058654094E+02 -0.13263317085E+02  0.38338649002E+02  0.00000000000E+00 0. -1.
         -2    1    1    2    0  502 -0.68853402451E+02 -0.34382376058E+02  0.39737045187E+02  0.86613922510E+02  0.00000000000E+00 0.  1.
<mgrwt>
<rscale>  2 0.12486401E+03</rscale>
<asrwt>0</asrwt>
<pdfrwt beam="1">  1       21 0.17526493E-01 0.12486401E+03</pdfrwt>
<pdfrwt beam="2">  1       21 0.26412110E-01 0.12486401E+03</pdfrwt>
<totfact> 0.40637127E+05</totfact>
</mgrwt>
</event>
<event>
 5    1  0.1590180E+000  0.1120166E+03  0.7546771E-02  0.1256880E+00
         21   -1    0    0  501  502  0.00000000000E+00  0.00000000000E+00  0.10932189913E+04  0.10932189913E+04  0.00000000000E+00 0. -1.
         21   -1    0    0  502  503 -0.00000000000E+00 -0.00000000000E+00 -0.24063032334E+02  0.24063032334E+02  0.00000000000E+00 0.  1.
         24    1    1    2    0    0 -0.45132235741E+02 -0.73220355739E+02  0.58015351691E+03  0.59198265036E+03  0.80419002446E+02 0. -1.
          1    1    1    2  501    0  0.13005848737E+02  0.73005408814E+02  0.48753126834E+03  0.49313860063E+03  0.00000000000E+00 0. -1.
         -2    1    1    2    0  503  0.32126387004E+02  0.21494692472E+00  0.14711737049E+01  0.32160772630E+02  0.00000000000E+00 0.  1.
<mgrwt>
<rscale>  2 0.11201660E+03</rscale>
<asrwt>0</asrwt>
<pdfrwt beam="1">  1       21 0.16818750E+00 0.11201660E+03</pdfrwt>
<pdfrwt beam="2">  1       21 0.37020058E-02 0.11201660E+03</pdfrwt>
<totfact> 0.10252578E+05</totfact>
</mgrwt>
</event>
<event>
 5    1  0.1724771E+000  0.1537925E+03  0.7546771E-02  0.1195889E+00
         21   -1    0    0  503  502  0.00000000000E+00  0.00000000000E+00  0.67391801979E+02  0.67391801979E+02  0.00000000000E+00 0.  1.
         21   -1    0    0  501  503 -0.00000000000E+00 -0.00000000000E+00 -0.57770362567E+03  0.57770362567E+03  0.00000000000E+00 0. -1.
         24    1    1    2    0    0 -0.59652057973E+02 -0.72592130721E+02 -0.71566263052E+02  0.14288782812E+03  0.80419002446E+02 0.  0.
          1    1    1    2  501    0  0.11410963109E+03  0.55076819580E+02 -0.42484620989E+03  0.44333820727E+03  0.00000000000E+00 0. -1.
         -2    1    1    2    0  502 -0.54457573121E+02  0.17515311141E+02 -0.13899350751E+02  0.58869392267E+02  0.00000000000E+00 0.  1.
<mgrwt>
<rscale>  2 0.15379250E+03</rscale>
<asrwt>0</asrwt>
<pdfrwt beam="1">  1       21 0.10367969E-01 0.15379250E+03</pdfrwt>
<pdfrwt beam="2">  1       21 0.88877482E-01 0.15379250E+03</pdfrwt>
<totfact> 0.83738761E+04</totfact>
</mgrwt>
</event>
<event>
 5    1  0.1590180E+000  0.7755791E+02  0.7546771E-02  0.1336128E+00
         21   -1    0    0  501  502  0.00000000000E+00  0.00000000000E+00  0.30896543631E+03  0.30896543631E+03  0.00000000000E+00 0. -1.
         21   -1    0    0  502  503 -0.00000000000E+00 -0.00000000000E+00 -0.49983054850E+02  0.49983054850E+02  0.00000000000E+00 0.  1.
         24    1    1    2    0    0  0.22457357211E+02  0.95309500875E+01  0.51927862068E+02  0.98787097922E+02  0.80419002446E+02 0.  1.
          1    1    1    2  501    0  0.18238371947E+02  0.14953043653E+02  0.21117669148E+03  0.21248959210E+03  0.00000000000E+00 0. -1.
         -2    1    1    2    0  503 -0.40695729158E+02 -0.24483993740E+02 -0.41221720869E+01  0.47671801140E+02  0.00000000000E+00 0.  1.
<mgrwt>
<rscale>  2 0.77557912E+02</rscale>
<asrwt>0</asrwt>
<pdfrwt beam="1">  1       21 0.47533143E-01 0.77557912E+02</pdfrwt>
<pdfrwt beam="2">  1       21 0.76897010E-02 0.77557912E+02</pdfrwt>
<totfact> 0.54903078E+05</totfact>
</mgrwt>
</event>
<event>
 5    1  0.1590180E+000  0.8563857E+02  0.7546771E-02  0.1313771E+00
         21   -1    0    0  503  502  0.00000000000E+00  0.00000000000E+00  0.13608634943E+02  0.13608634943E+02  0.00000000000E+00 0.  1.
         21   -1    0    0  501  503 -0.00000000000E+00 -0.00000000000E+00 -0.89567312439E+03  0.89567312439E+03  0.00000000000E+00 0.  1.
         24    1    1    2    0    0 -0.12296128324E+02 -0.20900195332E+02 -0.28132000075E+03  0.29359184545E+03  0.80419002446E+02 0.  0.
          1    1    1    2  501    0 -0.28436980295E+02 -0.15732709153E+02 -0.49965344312E+03  0.50070924018E+03  0.00000000000E+00 0. -1.
         -2    1    1    2    0  502  0.40733108619E+02  0.36632904485E+02 -0.10109104558E+03  0.11498067370E+03  0.00000000000E+00 0.  1.
<mgrwt>
<rscale>  2 0.85638569E+02</rscale>
<asrwt>0</asrwt>
<pdfrwt beam="1">  1       21 0.20936364E-02 0.85638569E+02</pdfrwt>
<pdfrwt beam="2">  1       21 0.13779585E+00 0.85638569E+02</pdfrwt>
<totfact> 0.43804923E+05</totfact>
</mgrwt>
</event>
<event>
 5    1  0.1590180E+000  0.1114973E+03  0.7546771E-02  0.1257822E+00
         21   -1    0    0  503  502  0.00000000000E+00  0.00000000000E+00  0.99988503065E+02  0.99988503065E+02  0.00000000000E+00 0.  1.
         21   -1    0    0  501  503 -0.00000000000E+00 -0.00000000000E+00 -0.20076771307E+03  0.20076771307E+03  0.00000000000E+00 0.  1.
         24    1    1    2    0    0 -0.95332437905E+02  0.10417861145E+02 -0.14222585067E+03  0.18945240590E+03  0.80419002446E+02 0.  1.
          1    1    1    2  501    0  0.35378660773E+02  0.55097190735E+01 -0.15298335987E+01  0.35837787784E+02  0.00000000000E+00 0. -1.
         -2    1    1    2    0  502  0.59953777131E+02 -0.15927580218E+02  0.42976474267E+02  0.75466022450E+02  0.00000000000E+00 0.  1.
<mgrwt>
<rscale>  2 0.11149726E+03</rscale>
<asrwt>0</asrwt>
<pdfrwt beam="1">  1       21 0.15382847E-01 0.11149726E+03</pdfrwt>
<pdfrwt beam="2">  1       21 0.30887340E-01 0.11149726E+03</pdfrwt>
<totfact> 0.38213941E+05</totfact>
</mgrwt>
</event>
<event>
 5    1  0.1590180E+000  0.7907613E+02  0.7546771E-02  0.1331694E+00
         21   -1    0    0  503  502  0.00000000000E+00  0.00000000000E+00  0.11004342720E+03  0.11004342720E+03  0.00000000000E+00 0. -1.
         21   -1    0    0  501  503 -0.00000000000E+00 -0.00000000000E+00 -0.74155205081E+02  0.74155205081E+02  0.00000000000E+00 0. -1.
         24    1    1    2    0    0  0.22861653011E+02 -0.25150867114E+01  0.47655323509E+02  0.96266435753E+02  0.80419002446E+02 0.  0.
          1    1    1    2  501    0  0.41609220523E+01 -0.31101085799E+02 -0.27796167689E+02  0.41919181151E+02  0.00000000000E+00 0. -1.
         -2    1    1    2    0  502 -0.27022575063E+02  0.33616172511E+02  0.16029066294E+02  0.46013015371E+02  0.00000000000E+00 0.  1.
<mgrwt>
<rscale>  2 0.79076135E+02</rscale>
<asrwt>0</asrwt>
<pdfrwt beam="1">  1       21 0.16929758E-01 0.79076135E+02</pdfrwt>
<pdfrwt beam="2">  1       21 0.11408493E-01 0.79076135E+02</pdfrwt>
<totfact> 0.19725803E+06</totfact>
</mgrwt>
</event>
<event>
 5    1  0.1590180E+000  0.7588115E+02  0.7546771E-02  0.1341164E+00
         21   -1    0    0  503  502  0.00000000000E+00  0.00000000000E+00  0.76750081725E+02  0.76750081725E+02  0.00000000000E+00 0. -1.
         21   -1    0    0  501  503 -0.00000000000E+00 -0.00000000000E+00 -0.16403804400E+03  0.16403804400E+03  0.00000000000E+00 0. -1.
         24    1    1    2    0    0  0.22050692131E+02  0.29864350983E+01 -0.56222462441E+02  0.10061477553E+03  0.80419002446E+02 0.  1.
          1    1    1    2  501    0  0.17604678598E+02  0.16507744447E+02 -0.74440211921E+02  0.78254555689E+02  0.00000000000E+00 0. -1.
         -2    1    1    2    0  502 -0.39655370729E+02 -0.19494179546E+02  0.43374712088E+02  0.61918794502E+02  0.00000000000E+00 0.  1.
<mgrwt>
<rscale>  2 0.75881154E+02</rscale>
<asrwt>0</asrwt>
<pdfrwt beam="1">  1       21 0.11807705E-01 0.75881154E+02</pdfrwt>
<pdfrwt beam="2">  1       21 0.25236622E-01 0.75881154E+02</pdfrwt>
<totfact> 0.89414205E+05</totfact>
</mgrwt>
</event>
<event>
 5    1  0.1590180E+000  0.6976487E+02  0.7546771E-02  0.1360894E+00
         21   -1    0    0  501  502  0.00000000000E+00  0.00000000000E+00  0.11689091811E+03  0.11689091811E+03  0.00000000000E+00 0. -1.
         21   -1    0    0  502  503 -0.00000000000E+00 -0.00000000000E+00 -0.98664353590E+02  0.98664353590E+02  0.00000000000E+00 0.  1.
         24    1    1    2    0    0  0.95979657277E+01  0.55300479804E+01 -0.13486735556E+02  0.82291010245E+02  0.80419002446E+02 0. -1.
          1    1    1    2  501    0 -0.29883734577E+02 -0.17663753678E+02  0.75727234776E+02  0.83304620958E+02  0.00000000000E+00 0. -1.
         -2    1    1    2    0  503  0.20285768849E+02  0.12133705698E+02 -0.44013934695E+02  0.49959640502E+02  0.00000000000E+00 0.  1.
<mgrwt>
<rscale>  2 0.69764873E+02</rscale>
<asrwt>0</asrwt>
<pdfrwt beam="1">  1       21 0.17983218E-01 0.69764873E+02</pdfrwt>
<pdfrwt beam="2">  1       21 0.15179131E-01 0.69764873E+02</pdfrwt>
<totfact> 0.10664025E+06</totfact>
</mgrwt>
</event>
<event>
 5    1  0.1590180E+000  0.1132108E+03  0.7546771E-02  0.1254737E+00
         21   -1    0    0  503  502  0.00000000000E+00  0.00000000000E+00  0.20104382060E+02  0.20104382060E+02  0.00000000000E+00 0. -1.
         21   -1    0    0  501  503 -0.00000000000E+00 -0.00000000000E+00 -0.71504774821E+03  0.71504774821E+03  0.00000000000E+00 0. -1.
         24    1    1    2    0    0 -0.17213265993E+02 -0.54880459403E+02 -0.40934877456E+03  0.42111969383E+03  0.80419002446E+02 0. -1.
          1    1    1    2  501    0  0.61047261820E+02  0.57197495218E+02 -0.21731175617E+03  0.23285772696E+03  0.00000000000E+00 0. -1.
         -2    1    1    2    0  502 -0.43833995827E+02 -0.23170358146E+01 -0.68282835426E+02  0.81174709479E+02  0.00000000000E+00 0.  1.
<mgrwt>
<rscale>  2 0.11321084E+03</rscale>
<asrwt>0</asrwt>
<pdfrwt beam="1">  1       21 0.30929822E-02 0.11321084E+03</pdfrwt>
<pdfrwt beam="2">  1       21 0.11000733E+00 0.11321084E+03</pdfrwt>
<totfact> 0.40001253E+05</totfact>
</mgrwt>
</event>
<event>
 5    1  0.1590180E+000  0.6706568E+02  0.7546771E-02  0.1370365E+00
         21   -1    0    0  503  502  0.00000000000E+00  0.00000000000E+00  0.29372684429E+02  0.29372684429E+02  0.00000000000E+00 0. -1.
         21   -1    0    0  501  503 -0.00000000000E+00 -0.00000000000E+00 -0.19274476821E+03  0.19274476821E+03  0.00000000000E+00 0.  1.
         24    1    1    2    0    0 -0.70025504968E+01 -0.28239280323E+01 -0.75978730324E+02  0.11089181078E+03  0.80419002446E+02 0. -1.
          1    1    1    2  501    0  0.14594816450E+01 -0.24972415523E+02 -0.77123354020E+02  0.81078747888E+02  0.00000000000E+00 0. -1.
         -2    1    1    2    0  502  0.55430688518E+01  0.27796343555E+02 -0.10269999436E+02  0.30146893965E+02  0.00000000000E+00 0.  1.
<mgrwt>
<rscale>  2 0.67065679E+02</rscale>
<asrwt>0</asrwt>
<pdfrwt beam="1">  1       21 0.45188743E-02 0.67065679E+02</pdfrwt>
<pdfrwt beam="2">  1       21 0.29653042E-01 0.67065679E+02</pdfrwt>
<totfact> 0.33291943E+06</totfact>
</mgrwt>
</event>
<event>
 5    1  0.1590180E+000  0.7296883E+02  0.7546771E-02  0.1350279E+00
         21   -1    0    0  503  502  0.00000000000E+00  0.00000000000E+00  0.36254070362E+03  0.36254070362E+03  0.00000000000E+00 0. -1.
         21   -1    0    0  501  503 -0.00000000000E+00 -0.00000000000E+00 -0.19714989593E+02  0.19714989593E+02  0.00000000000E+00 0.  1.
         24    1    1    2    0    0 -0.10982996557E+02 -0.34339595774E+01  0.15104975940E+03  0.17150995324E+03  0.80419002446E+02 0.  1.
          1    1    1    2  501    0 -0.13515536957E+02  0.27322110972E+02  0.22091695448E+02  0.37645856279E+02  0.00000000000E+00 0. -1.
         -2    1    1    2    0  502  0.24498533514E+02 -0.23888151395E+02  0.16968425919E+03  0.17309988370E+03  0.00000000000E+00 0.  1.
<mgrwt>
<rscale>  2 0.72968828E+02</rscale>
<asrwt>0</asrwt>
<pdfrwt beam="1">  1       21 0.55775488E-01 0.72968828E+02</pdfrwt>
<pdfrwt beam="2">  1       21 0.30330756E-02 0.72968828E+02</pdfrwt>
<totfact> 0.18440693E+06</totfact>
</mgrwt>
</event>
<event>
 5    1  0.1590180E+000  0.8049801E+02  0.7546771E-02  0.1327644E+00
         21   -1    0    0  501  502  0.00000000000E+00  0.00000000000E+00  0.70027391758E+02  0.70027391758E+02  0.00000000000E+00 0. -1.
         21   -1    0    0  502  503 -0.00000000000E+00 -0.00000000000E+00 -0.10636927062E+03  0.10636927062E+03  0.00000000000E+00 0. -1.
         24    1    1    2    0    0 -0.46975420553E+02 -0.26954026185E+02 -0.52421825975E+02  0.11022011367E+03  0.80419002446E+02 0. -1.
          1    1    1    2  501    0  0.22929419475E+02  0.32101427807E+02  0.12117676121E+02  0.41268608158E+02  0.00000000000E+00 0. -1.
         -2    1    1    2    0  503  0.24046001078E+02 -0.51474016218E+01  0.39622709910E+01  0.24907940556E+02  0.00000000000E+00 0.  1.
<mgrwt>
<rscale>  2 0.80498011E+02</rscale>
<asrwt>0</asrwt>
<pdfrwt beam="1">  1       21 0.10773445E-01 0.80498011E+02</pdfrwt>
<pdfrwt beam="2">  1       21 0.16364503E-01 0.80498011E+02</pdfrwt>
<totfact> 0.23178601E+06</totfact>
</mgrwt>
</event>
<event>
 5    1  0.1590180E+000  0.6570677E+02  0.7546771E-02  0.1375332E+00
         21   -1    0    0  501  502  0.00000000000E+00  0.00000000000E+00  0.94906484385E+02  0.94906484385E+02  0.00000000000E+00 0.  1.
         21   -1    0    0  502  503 -0.00000000000E+00 -0.00000000000E+00 -0.61363551189E+02  0.61363551189E+02  0.00000000000E+00 0. -1.
         24    1    1    2    0    0 -0.42794977884E+01  0.61830301496E+01 -0.44351758820E+01  0.80891474845E+02  0.80419002446E+02 0.  0.
          1    1    1    2  501    0  0.25060127931E+02 -0.13681547909E+02  0.44025917137E+02  0.52473575682E+02  0.00000000000E+00 0. -1.
         -2    1    1    2    0  503 -0.20780630143E+02  0.74985177589E+01 -0.60478080591E+01  0.22904985048E+02  0.00000000000E+00 0.  1.
<mgrwt>
<rscale>  2 0.65706773E+02</rscale>
<asrwt>0</asrwt>
<pdfrwt beam="1">  1       21 0.14600998E-01 0.65706773E+02</pdfrwt>
<pdfrwt beam="2">  1       21 0.94405463E-02 0.65706773E+02</pdfrwt>
<totfact> 0.35221016E+06</totfact>
</mgrwt>
</event>
<event>
 5    1  0.1590180E+000  0.6532259E+02  0.7546771E-02  0.1376762E+00
         21   -1    0    0  503  502  0.00000000000E+00  0.00000000000E+00  0.54644134900E+03  0.54644134900E+03  0.00000000000E+00 0.  1.
         21   -1    0    0  501  503 -0.00000000000E+00 -0.00000000000E+00 -0.84895848038E+01  0.84895848038E+01  0.00000000000E+00 0. -1.
         24    1    1    2    0    0 -0.69092590289E+01  0.83858389024E+01  0.34718275620E+03  0.35654051987E+03  0.80419002446E+02 0.  0.
          1    1    1    2  501    0 -0.20901966947E+02 -0.48806208939E+01  0.43852959863E+02  0.48824120794E+02  0.00000000000E+00 0. -1.
         -2    1    1    2    0  502  0.27811225976E+02 -0.35052180085E+01  0.14691604814E+03  0.14956629314E+03  0.00000000000E+00 0.  1.
<mgrwt>
<rscale>  2 0.65322590E+02</rscale>
<asrwt>0</asrwt>
<pdfrwt beam="1">  1       21 0.84067872E-01 0.65322590E+02</pdfrwt>
<pdfrwt beam="2">  1       21 0.13060904E-02 0.65322590E+02</pdfrwt>
<totfact> 0.29181479E+06</totfact>
</mgrwt>
</event>
<event>
 5    1  0.1590180E+000  0.8484089E+02  0.7546771E-02  0.1315849E+00
         21   -1    0    0  501  502  0.00000000000E+00  0.00000000000E+00  0.19632001946E+03  0.19632001946E+03  0.00000000000E+00 0. -1.
         21   -1    0    0  502  503 -0.00000000000E+00 -0.00000000000E+00 -0.55753814893E+02  0.55753814893E+02  0.00000000000E+00 0.  1.
         24    1    1    2    0    0 -0.16895211508E+02  0.99945700318E+01  0.83618134178E+02  0.11766285701E+03  0.80419002446E+02 0.  1.
          1    1    1    2  501    0  0.21583955510E+02  0.35294162385E+02  0.74821722201E+02  0.85497573925E+02  0.00000000000E+00 0. -1.
         -2    1    1    2    0  503 -0.46887440027E+01 -0.45288732417E+02 -0.17873651815E+02  0.48913403414E+02  0.00000000000E+00 0.  1.
<mgrwt>
<rscale>  2 0.84840893E+02</rscale>
<asrwt>0</asrwt>
<pdfrwt beam="1">  1       21 0.30203080E-01 0.84840893E+02</pdfrwt>
<pdfrwt beam="2">  1       21 0.85775101E-02 0.84840893E+02</pdfrwt>
<totfact> 0.11097442E+06</totfact>
</mgrwt>
</event>
<event>
 5    1  0.1590180E+000  0.7653375E+02  0.7546771E-02  0.1339186E+00
         21   -1    0    0  501  502  0.00000000000E+00  0.00000000000E+00  0.17905301967E+02  0.17905301967E+02  0.00000000000E+00 0. -1.
         21   -1    0    0  502  503 -0.00000000000E+00 -0.00000000000E+00 -0.58071808195E+03  0.58071808195E+03  0.00000000000E+00 0.  1.
         24    1    1    2    0    0 -0.43206119359E+02 -0.16265359266E+02 -0.34831463239E+03  0.36044643118E+03  0.80419002446E+02 0.  0.
          1    1    1    2  501    0  0.21247379206E+02  0.28229913017E+02 -0.17193119499E+02  0.39293542348E+02  0.00000000000E+00 0. -1.
         -2    1    1    2    0  503  0.21958740153E+02 -0.11964553752E+02 -0.19730502810E+03  0.19888341039E+03  0.00000000000E+00 0.  1.
<mgrwt>
<rscale>  2 0.76533746E+02</rscale>
<asrwt>0</asrwt>
<pdfrwt beam="1">  1       21 0.27546623E-02 0.76533746E+02</pdfrwt>
<pdfrwt beam="2">  1       21 0.89341229E-01 0.76533746E+02</pdfrwt>
<totfact> 0.78356575E+05</totfact>
</mgrwt>
</event>
<event>
 5    1  0.1590180E+000  0.8560475E+02  0.7546771E-02  0.1313859E+00
         21   -1    0    0  501  502  0.00000000000E+00  0.00000000000E+00  0.44757754010E+02  0.44757754010E+02  0.00000000000E+00 0.  1.
         21   -1    0    0  502  503 -0.00000000000E+00 -0.00000000000E+00 -0.16435967617E+03  0.16435967617E+03  0.00000000000E+00 0. -1.
         24    1    1    2    0    0 -0.15413195947E+02  0.23716987980E+02 -0.65576351924E+02  0.10755248028E+03  0.80419002446E+02 0. -1.
          1    1    1    2  501    0 -0.32244400086E+02 -0.20469718487E+02 -0.25598179785E+02  0.45978011267E+02  0.00000000000E+00 0. -1.
         -2    1    1    2    0  503  0.47657596033E+02 -0.32472694928E+01 -0.28427390451E+02  0.55586938634E+02  0.00000000000E+00 0.  1.
<mgrwt>
<rscale>  2 0.85604751E+02</rscale>
<asrwt>0</asrwt>
<pdfrwt beam="1">  1       21 0.68858083E-02 0.85604751E+02</pdfrwt>
<pdfrwt beam="2">  1       21 0.25286104E-01 0.85604751E+02</pdfrwt>
<totfact> 0.22564404E+06</totfact>
</mgrwt>
</event>
<event>
 5    1  0.2834989E+000  0.1129014E+03  0.7546771E-02  0.1255289E+00
         21   -1    0    0  503  502  0.00000000000E+00  0.00000000000E+00  0.27655062348E+03  0.27655062348E+03  0.00000000000E+00 0.  1.
         21   -1    0    0  501  503 -0.00000000000E+00 -0.00000000000E+00 -0.12910093188E+03  0.12910093188E+03  0.00000000000E+00 0. -1.
         24    1    1    2    0    0  0.48270278635E+01  0.15677541959E+01  0.41779732103E+02  0.90766293415E+02  0.80419002446E+02 0.  0.
          1    1    1    2  501    0  0.50028205847E+02  0.49427055006E+02 -0.84830105766E+02  0.11019075275E+03  0.00000000000E+00 0. -1.
         -2    1    1    2    0  502 -0.54855233710E+02 -0.50994809202E+02  0.19050006527E+03  0.20469450920E+03  0.00000000000E+00 0.  1.
<mgrwt>
<rscale>  2 0.11290141E+03</rscale>
<asrwt>0</asrwt>
<pdfrwt beam="1">  1       21 0.42546250E-01 0.11290141E+03</pdfrwt>
<pdfrwt beam="2">  1       21 0.19861682E-01 0.11290141E+03</pdfrwt>
<totfact> 0.12783302E+05</totfact>
</mgrwt>
</event>
<event>
 5    1  0.1590180E+000  0.1230628E+03  0.7546771E-02  0.1238128E+00
         21   -1    0    0  501  502  0.00000000000E+00  0.00000000000E+00  0.33747763208E+03  0.33747763208E+03  0.00000000000E+00 0. -1.
         21   -1    0    0  502  503 -0.00000000000E+00 -0.00000000000E+00 -0.11827170227E+03  0.11827170227E+03  0.00000000000E+00 0. -1.
         24    1    1    2    0    0  0.35674473286E+02 -0.32750404645E+02 -0.41390920121E+02  0.10259474290E+03  0.80419002446E+02 0. -1.
          1    1    1    2  501    0 -0.78308891342E+02  0.62558876037E+02  0.28018089225E+03  0.29756886231E+03  0.00000000000E+00 0. -1.
         -2    1    1    2    0  503  0.42634418056E+02 -0.29808471392E+02 -0.19584042324E+02  0.55585729135E+02  0.00000000000E+00 0.  1.
<mgrwt>
<rscale>  2 0.12306275E+03</rscale>
<asrwt>0</asrwt>
<pdfrwt beam="1">  1       21 0.51919635E-01 0.12306275E+03</pdfrwt>
<pdfrwt beam="2">  1       21 0.18195647E-01 0.12306275E+03</pdfrwt>
<totfact> 0.99606527E+04</totfact>
</mgrwt>
</event>
<event>
 5    1  0.1590180E+000  0.8326200E+02  0.7546771E-02  0.1320041E+00
         21   -1    0    0  503  502  0.00000000000E+00  0.00000000000E+00  0.23591709747E+02  0.23591709747E+02  0.00000000000E+00 0. -1.
         21   -1    0    0  501  503 -0.00000000000E+00 -0.00000000000E+00 -0.14506676410E+04  0.14506676410E+04  0.00000000000E+00 0.  1.
         24    1    1    2    0    0  0.23146347311E+02 -0.10815267253E+02 -0.54107659296E+03  0.54761648880E+03  0.80419002446E+02 0.  1.
          1    1    1    2  501    0 -0.27212726497E+02 -0.30358765719E+02 -0.88429404958E+03  0.88523338914E+03  0.00000000000E+00 0. -1.
         -2    1    1    2    0  502  0.40663791861E+01  0.41174032972E+02 -0.17052887462E+01  0.41409472836E+02  0.00000000000E+00 0.  1.
<mgrwt>
<rscale>  2 0.83262004E+02</rscale>
<asrwt>0</asrwt>
<pdfrwt beam="1">  1       21 0.36294934E-02 0.83262004E+02</pdfrwt>
<pdfrwt beam="2">  1       21 0.22317966E+00 0.83262004E+02</pdfrwt>
<totfact> 0.49107384E+04</totfact>
</mgrwt>
</event>
<event>
 5    1  0.1590180E+000  0.6543223E+02  0.7546771E-02  0.1376353E+00
         21   -1    0    0  503  502  0.00000000000E+00  0.00000000000E+00  0.10276667437E+03  0.10276667437E+03  0.00000000000E+00 0. -1.
         21   -1    0    0  501  503 -0.00000000000E+00 -0.00000000000E+00 -0.52311465356E+02  0.52311465356E+02  0.00000000000E+00 0.  1.
         24    1    1    2    0    0 -0.30912753306E+02  0.10822117875E+01  0.98884370621E+01  0.86728119092E+02  0.80419002446E+02 0.  1.
          1    1    1    2  501    0  0.15363248025E+02 -0.16680210815E+02  0.56332217914E+00  0.22684271084E+02  0.00000000000E+00 0. -1.
         -2    1    1    2    0  502  0.15549505281E+02  0.15597999028E+02  0.40003449768E+02  0.45665749545E+02  0.00000000000E+00 0.  1.
<mgrwt>
<rscale>  2 0.65432233E+02</rscale>
<asrwt>0</asrwt>
<pdfrwt beam="1">  1       21 0.15810258E-01 0.65432233E+02</pdfrwt>
<pdfrwt beam="2">  1       21 0.80479178E-02 0.65432233E+02</pdfrwt>
<totfact> 0.40127032E+06</totfact>
</mgrwt>
</event>
<event>
 5    1  0.1590180E+000  0.1451011E+03  0.7546771E-02  0.1206625E+00
         21   -1    0    0  503  502  0.00000000000E+00  0.00000000000E+00  0.16040146555E+04  0.16040146555E+04  0.00000000000E+00 0. -1.
         21   -1    0    0  501  503 -0.00000000000E+00 -0.00000000000E+00 -0.53428278184E+02  0.53428278184E+02  0.00000000000E+00 0. -1.
         24    1    1    2    0    0  0.10999713182E+03  0.65513059162E+02  0.12923666618E+04  0.13011802851E+04  0.80419002446E+02 0. -1.
          1    1    1    2  501    0 -0.34552034643E+02 -0.51898257280E+02 -0.21714019541E+02  0.66020987960E+02  0.00000000000E+00 0. -1.
         -2    1    1    2    0  502 -0.75445097182E+02 -0.13614801882E+02  0.27993373504E+03  0.29024166057E+03  0.00000000000E+00 0.  1.
<mgrwt>
<rscale>  2 0.14510107E+03</rscale>
<asrwt>0</asrwt>
<pdfrwt beam="1">  1       21 0.24677145E+00 0.14510107E+03</pdfrwt>
<pdfrwt beam="2">  1       21 0.82197363E-02 0.14510107E+03</pdfrwt>
<totfact> 0.83688224E+03</totfact>
</mgrwt>
</event>
<event>
 5    1  0.1590180E+000  0.6509222E+02  0.7546771E-02  0.1377625E+00
         21   -1    0    0  503  502  0.00000000000E+00  0.00000000000E+00  0.29525356945E+03  0.29525356945E+03  0.00000000000E+00 0.  1.
         21   -1    0    0  501  503 -0.00000000000E+00 -0.00000000000E+00 -0.13214218962E+03  0.13214218962E+03  0.00000000000E+00 0. -1.
         24    1    1    2    0    0 -0.28526203957E+02 -0.39562672585E+01  0.71569707904E+02  0.11143982864E+03  0.80419002446E+02 0.  0.
          1    1    1    2  501    0  0.13273458831E+02  0.19107364508E+02 -0.11042447445E+03  0.11284875119E+03  0.00000000000E+00 0. -1.
         -2    1    1    2    0  502  0.15252745126E+02 -0.15151097249E+02  0.20196614637E+03  0.20310717925E+03  0.00000000000E+00 0.  1.
<mgrwt>
<rscale>  2 0.65092217E+02</rscale>
<asrwt>0</asrwt>
<pdfrwt beam="1">  1       21 0.45423626E-01 0.65092217E+02</pdfrwt>
<pdfrwt beam="2">  1       21 0.20329568E-01 0.65092217E+02</pdfrwt>
<totfact> 0.10994420E+05</totfact>
</mgrwt>
</event>
<event>
 5    1  0.1639449E+000  0.9879907E+02  0.7546771E-02  0.1282842E+00
         21   -1    0    0  501  502  0.00000000000E+00  0.00000000000E+00  0.27959067756E+03  0.27959067756E+03  0.00000000000E+00 0. -1.
         21   -1    0    0  502  503 -0.00000000000E+00 -0.00000000000E+00 -0.18492119425E+03  0.18492119425E+03  0.00000000000E+00 0.  1.
         24    1    1    2    0    0  0.49245795469E+02 -0.45433741714E+02  0.22622252735E+03  0.24926536280E+03  0.80419002446E+02 0. -1.
          1    1    1    2  501    0 -0.63966064306E+02  0.27248232967E+02  0.11343613997E+02  0.70447151548E+02  0.00000000000E+00 0. -1.
         -2    1    1    2    0  503  0.14720268837E+02  0.18185508746E+02 -0.14289665803E+03  0.14479935746E+03  0.00000000000E+00 0.  1.
<mgrwt>
<rscale>  2 0.98799075E+02</rscale>
<asrwt>0</asrwt>
<pdfrwt beam="1">  1       21 0.43013951E-01 0.98799075E+02</pdfrwt>
<pdfrwt beam="2">  1       21 0.28449414E-01 0.98799075E+02</pdfrwt>
<totfact> 0.64304226E+04</totfact>
</mgrwt>
</event>
<event>
 5    1  0.1590180E+000  0.6964344E+02  0.7546771E-02  0.1361310E+00
         21   -1    0    0  501  502  0.00000000000E+00  0.00000000000E+00  0.11824396070E+03  0.11824396070E+03  0.00000000000E+00 0. -1.
         21   -1    0    0  502  503 -0.00000000000E+00 -0.00000000000E+00 -0.11481162642E+03  0.11481162642E+03  0.00000000000E+00 0. -1.
         24    1    1    2    0    0  0.32257895330E+02 -0.21857233797E+02 -0.78352454066E+02  0.11884710132E+03  0.80419002446E+02 0. -1.
          1    1    1    2  501    0 -0.88546884796E+01  0.24803984609E+02  0.86267557888E+02  0.90198307659E+02  0.00000000000E+00 0. -1.
         -2    1    1    2    0  503 -0.23403206850E+02 -0.29467508118E+01 -0.44827695404E+01  0.24010178133E+02  0.00000000000E+00 0.  1.
<mgrwt>
<rscale>  2 0.69643436E+02</rscale>
<asrwt>0</asrwt>
<pdfrwt beam="1">  1       21 0.18191378E-01 0.69643436E+02</pdfrwt>
<pdfrwt beam="2">  1       21 0.17663327E-01 0.69643436E+02</pdfrwt>
<totfact> 0.79697415E+05</totfact>
</mgrwt>
</event>
<event>
 5    1  0.1590180E+000  0.6662814E+02  0.7546771E-02  0.1371950E+00
         21   -1    0    0  503  502  0.00000000000E+00  0.00000000000E+00  0.17336738713E+03  0.17336738713E+03  0.00000000000E+00 0.  1.
         21   -1    0    0  501  503 -0.00000000000E+00 -0.00000000000E+00 -0.29712165779E+02  0.29712165779E+02  0.00000000000E+00 0.  1.
         24    1    1    2    0    0 -0.14953122823E+02 -0.31557065938E+02  0.11921703530E+03  0.14798432942E+03  0.80419002446E+02 0.  1.
          1    1    1    2  501    0 -0.60138652910E+01  0.21506038600E+02  0.14185129814E+01  0.22376068714E+02  0.00000000000E+00 0. -1.
         -2    1    1    2    0  502  0.20966988114E+02  0.10051027338E+02  0.23019673067E+02  0.32719154775E+02  0.00000000000E+00 0.  1.
<mgrwt>
<rscale>  2 0.66628140E+02</rscale>
<asrwt>0</asrwt>
<pdfrwt beam="1">  1       21 0.26671905E-01 0.66628140E+02</pdfrwt>
<pdfrwt beam="2">  1       21 0.45711025E-02 0.66628140E+02</pdfrwt>
<totfact> 0.39846371E+06</totfact>
</mgrwt>
</event>
<event>
 5    1  0.1590180E+000  0.1284521E+03  0.7546771E-02  0.1229771E+00
         21   -1    0    0  501  502  0.00000000000E+00  0.00000000000E+00  0.88279356547E+02  0.88279356547E+02  0.00000000000E+00 0. -1.
         21   -1    0    0  502  503 -0.00000000000E+00 -0.00000000000E+00 -0.25397389507E+03  0.25397389507E+03  0.00000000000E+00 0. -1.
         24    1    1    2    0    0  0.74362941706E+02 -0.82035036441E+02 -0.13416713323E+03  0.19164454048E+03  0.80419002446E+02 0. -1.
          1    1    1    2  501    0 -0.45829843399E+02  0.16723146916E+02  0.29300259926E+02  0.56908201698E+02  0.00000000000E+00 0. -1.
         -2    1    1    2    0  503 -0.28533098307E+02  0.65311889525E+02 -0.60827665214E+02  0.93700509431E+02  0.00000000000E+00 0.  1.
<mgrwt>
<rscale>  2 0.12845208E+03</rscale>
<asrwt>0</asrwt>
<pdfrwt beam="1">  1       21 0.13581440E-01 0.12845208E+03</pdfrwt>
<pdfrwt beam="2">  1       21 0.39072906E-01 0.12845208E+03</pdfrwt>
<totfact> 0.30067962E+05</totfact>
</mgrwt>
</event>
<event>
 5    1  0.1590180E+000  0.7401024E+02  0.7546771E-02  0.1346964E+00
         21   -1    0    0  501  502  0.00000000000E+00  0.00000000000E+00  0.88180992024E+02  0.88180992024E+02  0.00000000000E+00 0.  1.
         21   -1    0    0  502  503 -0.00000000000E+00 -0.00000000000E+00 -0.10331269428E+03  0.10331269428E+03  0.00000000000E+00 0. -1.
         24    1    1    2    0    0 -0.18365864668E+02 -0.10719059425E+02 -0.12355741675E+02  0.84095680785E+02  0.80419002446E+02 0.  0.
          1    1    1    2  501    0 -0.21174554814E+02  0.13642842900E+02  0.41135753292E+02  0.48235247826E+02  0.00000000000E+00 0. -1.
         -2    1    1    2    0  503  0.39540419483E+02 -0.29237834745E+01 -0.43911713873E+02  0.59162757694E+02  0.00000000000E+00 0.  1.
<mgrwt>
<rscale>  2 0.74010240E+02</rscale>
<asrwt>0</asrwt>
<pdfrwt beam="1">  1       21 0.13566306E-01 0.74010240E+02</pdfrwt>
<pdfrwt beam="2">  1       21 0.15894261E-01 0.74010240E+02</pdfrwt>
<totfact> 0.16261056E+06</totfact>
</mgrwt>
</event>
<event>
 5    1  0.1590180E+000  0.6235458E+02  0.7546771E-02  0.1388208E+00
         21   -1    0    0  503  502  0.00000000000E+00  0.00000000000E+00  0.43502720706E+02  0.43502720706E+02  0.00000000000E+00 0. -1.
         21   -1    0    0  501  503 -0.00000000000E+00 -0.00000000000E+00 -0.97275450221E+02  0.97275450221E+02  0.00000000000E+00 0.  1.
         24    1    1    2    0    0  0.91390195154E+01  0.12152909188E+01 -0.37459179179E+02  0.89193075229E+02  0.80419002446E+02 0.  0.
          1    1    1    2  501    0 -0.62642837601E+00  0.20463560522E+02 -0.19260635652E+02  0.28109105419E+02  0.00000000000E+00 0. -1.
         -2    1    1    2    0  502 -0.85125911394E+01 -0.21678851441E+02  0.29470853147E+01  0.23475990278E+02  0.00000000000E+00 0.  1.
<mgrwt>
<rscale>  2 0.62354585E+02</rscale>
<asrwt>0</asrwt>
<pdfrwt beam="1">  1       21 0.66927263E-02 0.62354585E+02</pdfrwt>
<pdfrwt beam="2">  1       21 0.14965454E-01 0.62354585E+02</pdfrwt>
<totfact> 0.60086349E+06</totfact>
</mgrwt>
</event>
<event>
 5    1  0.1590180E+000  0.9399890E+02  0.7546771E-02  0.1293447E+00
         21   -1    0    0  503  502  0.00000000000E+00  0.00000000000E+00  0.37928960830E+03  0.37928960830E+03  0.00000000000E+00 0.  1.
         21   -1    0    0  501  503 -0.00000000000E+00 -0.00000000000E+00 -0.38900725567E+02  0.38900725567E+02  0.00000000000E+00 0. -1.
         24    1    1    2    0    0  0.38436357895E+02  0.76746488709E+01  0.11467803133E+03  0.14544593727E+03  0.80419002446E+02 0. -1.
          1    1    1    2  501    0 -0.11509397534E+02 -0.48379946448E+02  0.89150754118E+01  0.50522905890E+02  0.00000000000E+00 0. -1.
         -2    1    1    2    0  502 -0.26926960362E+02  0.40705297577E+02  0.21679577599E+03  0.22222149071E+03  0.00000000000E+00 0.  1.
<mgrwt>
<rscale>  2 0.93998899E+02</rscale>
<asrwt>0</asrwt>
<pdfrwt beam="1">  1       21 0.58352245E-01 0.93998899E+02</pdfrwt>
<pdfrwt beam="2">  1       21 0.59847273E-02 0.93998899E+02</pdfrwt>
<totfact> 0.55031849E+05</totfact>
</mgrwt>
</event>
<event>
 5    1  0.1590180E+000  0.7646489E+02  0.7546771E-02  0.1339394E+00
         21   -1    0    0  501  502  0.00000000000E+00  0.00000000000E+00  0.33654424148E+03  0.33654424148E+03  0.00000000000E+00 0. -1.
         21   -1    0    0  502  503 -0.00000000000E+00 -0.00000000000E+00 -0.31136705534E+02  0.31136705534E+02  0.00000000000E+00 0.  1.
         24    1    1    2    0    0 -0.18130695255E+02 -0.22073786687E+02  0.26232719867E+03  0.27586001756E+03  0.80419002446E+02 0. -1.
          1    1    1    2  501    0 -0.21828246598E+02  0.16237399058E+02  0.43650081504E+02  0.51433987722E+02  0.00000000000E+00 0. -1.
         -2    1    1    2    0  503  0.39958941853E+02  0.58363876292E+01 -0.56974422481E+00  0.40386941739E+02  0.00000000000E+00 0.  1.
<mgrwt>
<rscale>  2 0.76464889E+02</rscale>
<asrwt>0</asrwt>
<pdfrwt beam="1">  1       21 0.51776035E-01 0.76464889E+02</pdfrwt>
<pdfrwt beam="2">  1       21 0.47902626E-02 0.76464889E+02</pdfrwt>
<totfact> 0.10192996E+06</totfact>
</mgrwt>
</event>
<event>
 5    1  0.1590180E+000  0.8630964E+02  0.7546771E-02  0.1312043E+00
         21   -1    0    0  503  502  0.00000000000E+00  0.00000000000E+00  0.82226694214E+03  0.82226694214E+03  0.00000000000E+00 0. -1.
         21   -1    0    0  501  503 -0.00000000000E+00 -0.00000000000E+00 -0.10064801375E+02  0.10064801375E+02  0.00000000000E+00 0. -1.
         24    1    1    2    0    0 -0.25807410724E+02  0.30969864074E+02  0.51574659469E+03  0.52353311340E+03  0.80419002446E+02 0. -1.
          1    1    1    2  501    0  0.54339396497E+00 -0.50640161899E+02  0.13472190310E+03  0.14392606591E+03  0.00000000000E+00 0. -1.
         -2    1    1    2    0  502  0.25264016759E+02  0.19670297824E+02  0.16173364297E+03  0.16487256420E+03  0.00000000000E+00 0.  1.
<mgrwt>
<rscale>  2 0.86309645E+02</rscale>
<asrwt>0</asrwt>
<pdfrwt beam="1">  1       21 0.12650255E+00 0.86309645E+02</pdfrwt>
<pdfrwt beam="2">  1       21 0.15484316E-02 0.86309645E+02</pdfrwt>
<totfact> 0.87341332E+05</totfact>
</mgrwt>
</event>
<event>
 5    1  0.1590180E+000  0.1233550E+03  0.7546771E-02  0.1237663E+00
         21   -1    0    0  501  502  0.00000000000E+00  0.00000000000E+00  0.17417474550E+02  0.17417474550E+02  0.00000000000E+00 0. -1.
         21   -1    0    0  502  503 -0.00000000000E+00 -0.00000000000E+00 -0.11184227694E+04  0.11184227694E+04  0.00000000000E+00 0. -1.
         24    1    1    2    0    0 -0.54216133731E+02  0.91625650006E+02 -0.63382720767E+03  0.64771814398E+03  0.80419002446E+02 0. -1.
          1    1    1    2  501    0 -0.38347460748E+01 -0.23372915205E+02 -0.17103322134E+02  0.29215100045E+02  0.00000000000E+00 0. -1.
         -2    1    1    2    0  503  0.58050879806E+02 -0.68252734800E+02 -0.45007476504E+03  0.45890699993E+03  0.00000000000E+00 0.  1.
<mgrwt>
<rscale>  2 0.12335502E+03</rscale>
<asrwt>0</asrwt>
<pdfrwt beam="1">  1       21 0.26796105E-02 0.12335502E+03</pdfrwt>
<pdfrwt beam="2">  1       21 0.17206510E+00 0.12335502E+03</pdfrwt>
<totfact> 0.16271940E+05</totfact>
</mgrwt>
</event>
<event>
 5    1  0.1590180E+000  0.7628271E+02  0.7546771E-02  0.1339944E+00
         21   -1    0    0  501  502  0.00000000000E+00  0.00000000000E+00  0.10081571121E+03  0.10081571121E+03  0.00000000000E+00 0.  1.
         21   -1    0    0  502  503 -0.00000000000E+00 -0.00000000000E+00 -0.58208960707E+02  0.58208960707E+02  0.00000000000E+00 0. -1.
         24    1    1    2    0    0 -0.11592728692E+02 -0.98517777632E+01  0.16536944876E+02  0.83499313673E+02  0.80419002446E+02 0. -1.
          1    1    1    2  501    0 -0.27419044828E+02  0.15188761819E+02  0.14106779498E+02  0.34373008781E+02  0.00000000000E+00 0. -1.
         -2    1    1    2    0  503  0.39011773520E+02 -0.53369840559E+01  0.11963026128E+02  0.41152349461E+02  0.00000000000E+00 0.  1.
<mgrwt>
<rscale>  2 0.76282705E+02</rscale>
<asrwt>0</asrwt>
<pdfrwt beam="1">  1       21 0.15510109E-01 0.76282705E+02</pdfrwt>
<pdfrwt beam="2">  1       21 0.89552247E-02 0.76282705E+02</pdfrwt>
<totfact> 0.34982597E+06</totfact>
</mgrwt>
</event>
<event>
 5    1  0.1590180E+000  0.1150630E+03  0.7546771E-02  0.1251471E+00
         21   -1    0    0  503  502  0.00000000000E+00  0.00000000000E+00  0.10011352497E+03  0.10011352497E+03  0.00000000000E+00 0.  1.
         21   -1    0    0  501  503 -0.00000000000E+00 -0.00000000000E+00 -0.37844959754E+03  0.37844959754E+03  0.00000000000E+00 0. -1.
         24    1    1    2    0    0 -0.64657641794E+02  0.52531247181E+02 -0.86673172153E+02  0.14463608574E+03  0.80419002446E+02 0. -1.
          1    1    1    2  501    0  0.48502972968E+02 -0.73379801878E+02 -0.25262689962E+03  0.26750230676E+03  0.00000000000E+00 0. -1.
         -2    1    1    2    0  502  0.16154668826E+02  0.20848554697E+02  0.60963999209E+02  0.66424730014E+02  0.00000000000E+00 0.  1.
<mgrwt>
<rscale>  2 0.11506302E+03</rscale>
<asrwt>0</asrwt>
<pdfrwt beam="1">  1       21 0.15402081E-01 0.11506302E+03</pdfrwt>
<pdfrwt beam="2">  1       21 0.58223015E-01 0.11506302E+03</pdfrwt>
<totfact> 0.10648054E+05</totfact>
</mgrwt>
</event>
<event>
 5    1  0.1590180E+000  0.9199038E+02  0.7546771E-02  0.1298102E+00
         21   -1    0    0  503  502  0.00000000000E+00  0.00000000000E+00  0.90187632436E+02  0.90187632436E+02  0.00000000000E+00 0.  1.
         21   -1    0    0  501  503 -0.00000000000E+00 -0.00000000000E+00 -0.16637344098E+03  0.16637344098E+03  0.00000000000E+00 0. -1.
         24    1    1    2    0    0 -0.28936834058E+02  0.31434915312E+02 -0.24331618374E+02  0.94258887502E+02  0.80419002446E+02 0. -1.
          1    1    1    2  501    0  0.45691244514E+02 -0.50119087759E+02 -0.92399836589E+02  0.11461824717E+03  0.00000000000E+00 0. -1.
         -2    1    1    2    0  502 -0.16754410456E+02  0.18684172447E+02  0.40545646423E+02  0.47683938739E+02  0.00000000000E+00 0.  1.
<mgrwt>
<rscale>  2 0.91990376E+02</rscale>
<asrwt>0</asrwt>
<pdfrwt beam="1">  1       21 0.13875021E-01 0.91990376E+02</pdfrwt>
<pdfrwt beam="2">  1       21 0.25595914E-01 0.91990376E+02</pdfrwt>
<totfact> 0.65740016E+05</totfact>
</mgrwt>
</event>
<event>
 5    1  0.1590180E+000  0.7320938E+02  0.7546771E-02  0.1349507E+00
         21   -1    0    0  503  502  0.00000000000E+00  0.00000000000E+00  0.12884039843E+03  0.12884039843E+03  0.00000000000E+00 0.  1.
         21   -1    0    0  501  503 -0.00000000000E+00 -0.00000000000E+00 -0.63498316549E+02  0.63498316549E+02  0.00000000000E+00 0. -1.
         24    1    1    2    0    0  0.39084009903E+02  0.43751031586E+01 -0.15459293989E+02  0.90845512177E+02  0.80419002446E+02 0. -1.
          1    1    1    2  501    0 -0.14022004965E+02  0.18331701594E+02  0.15046055868E+02  0.27550892976E+02  0.00000000000E+00 0. -1.
         -2    1    1    2    0  502 -0.25062004938E+02 -0.22706804753E+02  0.65755319998E+02  0.73942309821E+02  0.00000000000E+00 0.  1.
<mgrwt>
<rscale>  2 0.73209382E+02</rscale>
<asrwt>0</asrwt>
<pdfrwt beam="1">  1       21 0.19821600E-01 0.73209382E+02</pdfrwt>
<pdfrwt beam="2">  1       21 0.97689718E-02 0.73209382E+02</pdfrwt>
<totfact> 0.19337599E+06</totfact>
</mgrwt>
</event>
<event>
 5    1  0.1590180E+000  0.1113477E+03  0.7546771E-02  0.1258094E+00
         21   -1    0    0  501  502  0.00000000000E+00  0.00000000000E+00  0.34784027319E+03  0.34784027319E+03  0.00000000000E+00 0.  1.
         21   -1    0    0  502  503 -0.00000000000E+00 -0.00000000000E+00 -0.64896643284E+02  0.64896643284E+02  0.00000000000E+00 0. -1.
         24    1    1    2    0    0  0.47238901481E+02  0.19099243945E+02  0.21125303135E+03  0.23171394896E+03  0.80419002446E+02 0.  1.
          1    1    1    2  501    0 -0.53004878024E+02 -0.63502441076E+02  0.98663760880E+02  0.12875020322E+03  0.00000000000E+00 0. -1.
         -2    1    1    2    0  503  0.57659765427E+01  0.44403197131E+02 -0.26973162331E+02  0.52272764295E+02  0.00000000000E+00 0.  1.
<mgrwt>
<rscale>  2 0.11134766E+03</rscale>
<asrwt>0</asrwt>
<pdfrwt beam="1">  1       21 0.53513887E-01 0.11134766E+03</pdfrwt>
<pdfrwt beam="2">  1       21 0.99840992E-02 0.11134766E+03</pdfrwt>
<totfact> 0.27399109E+05</totfact>
</mgrwt>
</event>
<event>
 5    1  0.1590180E+000  0.9359894E+02  0.7546771E-02  0.1294363E+00
         21   -1    0    0  501  502  0.00000000000E+00  0.00000000000E+00  0.58531243730E+02  0.58531243730E+02  0.00000000000E+00 0. -1.
         21   -1    0    0  502  503 -0.00000000000E+00 -0.00000000000E+00 -0.63954942739E+03  0.63954942739E+03  0.00000000000E+00 0.  1.
         24    1    1    2    0    0 -0.71094502613E+00  0.58808450843E+02 -0.82294908964E+02  0.12922309132E+03  0.80419002446E+02 0. -1.
          1    1    1    2  501    0 -0.24125312621E+02 -0.57888493629E+02  0.64754297093E+01  0.63047915061E+02  0.00000000000E+00 0. -1.
         -2    1    1    2    0  503  0.24836257647E+02 -0.91995721417E+00 -0.50519870441E+03  0.50580966475E+03  0.00000000000E+00 0.  1.
<mgrwt>
<rscale>  2 0.93598941E+02</rscale>
<asrwt>0</asrwt>
<pdfrwt beam="1">  1       21 0.90048067E-02 0.93598941E+02</pdfrwt>
<pdfrwt beam="2">  1       21 0.98392220E-01 0.93598941E+02</pdfrwt>
<totfact> 0.87316393E+04</totfact>
</mgrwt>
</event>
<event>
 5    1  0.1590180E+000  0.7065318E+02  0.7546771E-02  0.1357886E+00
         21   -1    0    0  503  502  0.00000000000E+00  0.00000000000E+00  0.57924929748E+02  0.57924929748E+02  0.00000000000E+00 0.  1.
         21   -1    0    0  501  503 -0.00000000000E+00 -0.00000000000E+00 -0.46487093590E+03  0.46487093590E+03  0.00000000000E+00 0.  1.
         24    1    1    2    0    0  0.73546720377E+01 -0.37704101935E+02 -0.20920219489E+03  0.22739495334E+03  0.80419002446E+02 0.  1.
          1    1    1    2  501    0  0.12871627691E+02  0.25489251845E+02 -0.24282744957E+03  0.24450061559E+03  0.00000000000E+00 0. -1.
         -2    1    1    2    0  502 -0.20226299728E+02  0.12214850090E+02  0.45083638305E+02  0.50900296721E+02  0.00000000000E+00 0.  1.
<mgrwt>
<rscale>  2 0.70653176E+02</rscale>
<asrwt>0</asrwt>
<pdfrwt beam="1">  1       21 0.89115273E-02 0.70653176E+02</pdfrwt>
<pdfrwt beam="2">  1       21 0.71518608E-01 0.70653176E+02</pdfrwt>
<totfact> 0.18280089E+05</totfact>
</mgrwt>
</event>
<event>
 5    1  0.1590180E+000  0.1168084E+03  0.7546771E-02  0.1248457E+00
         21   -1    0    0  501  502  0.00000000000E+00  0.00000000000E+00  0.29437412018E+03  0.29437412018E+03  0.00000000000E+00 0.  1.
         21   -1    0    0  502  503 -0.00000000000E+00 -0.00000000000E+00 -0.54272132019E+02  0.54272132019E+02  0.00000000000E+00 0.  1.
         24    1    1    2    0    0 -0.93524490334E+02 -0.28659914939E+02  0.80637937472E+02  0.15012632657E+03  0.80419002446E+02 0.  1.
          1    1    1    2  501    0  0.19869922742E+02 -0.11638524535E+02  0.78783020904E+02  0.82079433879E+02  0.00000000000E+00 0. -1.
         -2    1    1    2    0  503  0.73654567592E+02  0.40298439475E+02  0.80681029789E+02  0.11644049175E+03  0.00000000000E+00 0.  1.
<mgrwt>
<rscale>  2 0.11680838E+03</rscale>
<asrwt>0</asrwt>
<pdfrwt beam="1">  1       21 0.45288325E-01 0.11680838E+03</pdfrwt>
<pdfrwt beam="2">  1       21 0.83495590E-02 0.11680838E+03</pdfrwt>
<totfact> 0.52559945E+05</totfact>
</mgrwt>
</event>
<event>
 5    1  0.1590180E+000  0.8003002E+02  0.7546771E-02  0.1328966E+00
         21   -1    0    0  503  502  0.00000000000E+00  0.00000000000E+00  0.98769971017E+02  0.98769971017E+02  0.00000000000E+00 0.  1.
         21   -1    0    0  501  503 -0.00000000000E+00 -0.00000000000E+00 -0.38080539509E+03  0.38080539509E+03  0.00000000000E+00 0. -1.
         24    1    1    2    0    0 -0.11199740624E+02 -0.42945306396E+02 -0.12309701052E+03  0.15358978965E+03  0.80419002446E+02 0. -1.
          1    1    1    2  501    0  0.27991795250E+02  0.74902199408E+01 -0.23692350164E+03  0.23868889716E+03  0.00000000000E+00 0. -1.
         -2    1    1    2    0  502 -0.16792054626E+02  0.35455086455E+02  0.77985088084E+02  0.87296679304E+02  0.00000000000E+00 0.  1.
<mgrwt>
<rscale>  2 0.80030016E+02</rscale>
<asrwt>0</asrwt>
<pdfrwt beam="1">  1       21 0.15195380E-01 0.80030016E+02</pdfrwt>
<pdfrwt beam="2">  1       21 0.58585445E-01 0.80030016E+02</pdfrwt>
<totfact> 0.10953291E+05</totfact>
</mgrwt>
</event>
<event>
 5    1  0.1590180E+000  0.9020548E+02  0.7546771E-02  0.1302355E+00
         21   -1    0    0  501  502  0.00000000000E+00  0.00000000000E+00  0.37968567542E+03  0.37968567542E+03  0.00000000000E+00 0.  1.
         21   -1    0    0  502  503 -0.00000000000E+00 -0.00000000000E+00 -0.41434543119E+02  0.41434543119E+02  0.00000000000E+00 0.  1.
         24    1    1    2    0    0 -0.30532490707E+02  0.49504261196E+01  0.25983219298E+03  0.27374572904E+03  0.80419002446E+02 0.  1.
          1    1    1    2  501    0  0.98897362986E+01 -0.46667324023E+02  0.87773308402E+02  0.99898947359E+02  0.00000000000E+00 0. -1.
         -2    1    1    2    0  503  0.20642754408E+02  0.41716897903E+02 -0.93543690797E+01  0.47475542136E+02  0.00000000000E+00 0.  1.
<mgrwt>
<rscale>  2 0.90205480E+02</rscale>
<asrwt>0</asrwt>
<pdfrwt beam="1">  1       21 0.58413178E-01 0.90205480E+02</pdfrwt>
<pdfrwt beam="2">  1       21 0.63745454E-02 0.90205480E+02</pdfrwt>
<totfact> 0.49384271E+05</totfact>
</mgrwt>
</event>
<event>
 5    1  0.1590180E+000  0.9736464E+02  0.7546771E-02  0.1285937E+00
         21   -1    0    0  503  502  0.00000000000E+00  0.00000000000E+00  0.55072011676E+03  0.55072011676E+03  0.00000000000E+00 0.  1.
         21   -1    0    0  501  503 -0.00000000000E+00 -0.00000000000E+00 -0.26294459590E+02  0.26294459590E+02  0.00000000000E+00 0.  1.
         24    1    1    2    0    0 -0.30453032248E+02  0.59397952727E+02  0.37784939389E+03  0.39203684059E+03  0.80419002446E+02 0.  1.
          1    1    1    2  501    0 -0.18386657308E+02 -0.22198510051E+02  0.31891407375E+01  0.29000235069E+02  0.00000000000E+00 0. -1.
         -2    1    1    2    0  502  0.48839689556E+02 -0.37199442676E+02  0.14338712254E+03  0.15597750069E+03  0.00000000000E+00 0.  1.
<mgrwt>
<rscale>  2 0.97364637E+02</rscale>
<asrwt>0</asrwt>
<pdfrwt beam="1">  1       21 0.84726163E-01 0.97364637E+02</pdfrwt>
<pdfrwt beam="2">  1       21 0.40453019E-02 0.97364637E+02</pdfrwt>
<totfact> 0.47135090E+05</totfact>
</mgrwt>
</event>
<event>
 5    1  0.1590180E+000  0.1096178E+03  0.7546771E-02  0.1261279E+00
         21   -1    0    0  501  502  0.00000000000E+00  0.00000000000E+00  0.20984329439E+04  0.20984329439E+04  0.00000000000E+00 0.  1.
         21   -1    0    0  502  503 -0.00000000000E+00 -0.00000000000E+00 -0.57935063263E+01  0.57935063263E+01  0.00000000000E+00 0.  1.
         24    1    1    2    0    0 -0.90644353325E+02 -0.10888639969E+02  0.10814131158E+04  0.10882355004E+04  0.80419002446E+02 0.  1.
          1    1    1    2  501    0  0.14472585954E+02  0.15567917736E+02  0.17395754304E+03  0.17525136972E+03  0.00000000000E+00 0. -1.
         -2    1    1    2    0  503  0.76171767371E+02 -0.46792777677E+01  0.83726877872E+03  0.84073958013E+03  0.00000000000E+00 0.  1.
<mgrwt>
<rscale>  2 0.10961776E+03</rscale>
<asrwt>0</asrwt>
<pdfrwt beam="1">  1       21 0.32283523E+00 0.10961776E+03</pdfrwt>
<pdfrwt beam="2">  1       21 0.89131034E-03 0.10961776E+03</pdfrwt>
<totfact> 0.12379022E+05</totfact>
</mgrwt>
</event>
<event>
 5    1  0.1590180E+000  0.6847247E+02  0.7546771E-02  0.1365366E+00
         21   -1    0    0  503  502  0.00000000000E+00  0.00000000000E+00  0.62257779418E+01  0.62257779418E+01  0.00000000000E+00 0.  1.
         21   -1    0    0  501  503 -0.00000000000E+00 -0.00000000000E+00 -0.96682636132E+03  0.96682636132E+03  0.00000000000E+00 0. -1.
         24    1    1    2    0    0  0.31852094919E+01  0.39955887798E+02 -0.38774315990E+03  0.39801833191E+03  0.80419002446E+02 0.  0.
          1    1    1    2  501    0 -0.13950512689E+02 -0.19523214724E+02 -0.38765598464E+03  0.38839790826E+03  0.00000000000E+00 0. -1.
         -2    1    1    2    0  502  0.10765303197E+02 -0.20432673074E+02 -0.18520143884E+03  0.18663589909E+03  0.00000000000E+00 0.  1.
<mgrwt>
<rscale>  2 0.68472466E+02</rscale>
<asrwt>0</asrwt>
<pdfrwt beam="1">  1       21 0.95781174E-03 0.68472466E+02</pdfrwt>
<pdfrwt beam="2">  1       21 0.14874256E+00 0.68472466E+02</pdfrwt>
<totfact> 0.12411456E+06</totfact>
</mgrwt>
</event>
<event>
 5    1  0.1590180E+000  0.7347984E+02  0.7546771E-02  0.1348644E+00
         21   -1    0    0  503  502  0.00000000000E+00  0.00000000000E+00  0.10388192292E+02  0.10388192292E+02  0.00000000000E+00 0. -1.
         21   -1    0    0  501  503 -0.00000000000E+00 -0.00000000000E+00 -0.93797468194E+03  0.93797468194E+03  0.00000000000E+00 0.  1.
         24    1    1    2    0    0  0.15954888933E+02 -0.40481513043E+02 -0.30897737351E+03  0.32222281836E+03  0.80419002446E+02 0. -1.
          1    1    1    2  501    0  0.91083553602E+01  0.23623152520E+02 -0.55649862692E+03  0.55707426545E+03  0.00000000000E+00 0. -1.
         -2    1    1    2    0  502 -0.25063244293E+02  0.16858360523E+02 -0.62110489226E+02  0.69065790417E+02  0.00000000000E+00 0.  1.
<mgrwt>
<rscale>  2 0.73479837E+02</rscale>
<asrwt>0</asrwt>
<pdfrwt beam="1">  1       21 0.15981832E-02 0.73479837E+02</pdfrwt>
<pdfrwt beam="2">  1       21 0.14430382E+00 0.73479837E+02</pdfrwt>
<totfact> 0.60115372E+05</totfact>
</mgrwt>
</event>
<event>
 5    1  0.1590180E+000  0.7854107E+02  0.7546771E-02  0.1333243E+00
         21   -1    0    0  501  502  0.00000000000E+00  0.00000000000E+00  0.21105580912E+02  0.21105580912E+02  0.00000000000E+00 0.  1.
         21   -1    0    0  502  503 -0.00000000000E+00 -0.00000000000E+00 -0.32168695667E+03  0.32168695667E+03  0.00000000000E+00 0. -1.
         24    1    1    2    0    0  0.69867504723E+01 -0.79607949212E+01 -0.17826146839E+03  0.19584829844E+03  0.80419002446E+02 0. -1.
          1    1    1    2  501    0 -0.37333646952E+02  0.21117650508E+02 -0.41782799081E+02  0.59879534540E+02  0.00000000000E+00 0. -1.
         -2    1    1    2    0  503  0.30346896479E+02 -0.13156855587E+02 -0.80537108289E+02  0.87064704597E+02  0.00000000000E+00 0.  1.
<mgrwt>
<rscale>  2 0.78541071E+02</rscale>
<asrwt>0</asrwt>
<pdfrwt beam="1">  1       21 0.32470126E-02 0.78541071E+02</pdfrwt>
<pdfrwt beam="2">  1       21 0.49490298E-01 0.78541071E+02</pdfrwt>
<totfact> 0.21150626E+06</totfact>
</mgrwt>
</event>
<event>
 5    1  0.1590180E+000  0.7561846E+02  0.7546771E-02  0.1341967E+00
         21   -1    0    0  503  502  0.00000000000E+00  0.00000000000E+00  0.17730216798E+03  0.17730216798E+03  0.00000000000E+00 0. -1.
         21   -1    0    0  501  503 -0.00000000000E+00 -0.00000000000E+00 -0.79627393172E+02  0.79627393172E+02  0.00000000000E+00 0. -1.
         24    1    1    2    0    0  0.12880177942E+02 -0.34663598612E+02 -0.29715393062E+01  0.88563593269E+02  0.80419002446E+02 0. -1.
          1    1    1    2  501    0 -0.20704341970E+02 -0.58069373390E+01 -0.26834211071E+02  0.34386991457E+02  0.00000000000E+00 0. -1.
         -2    1    1    2    0  502  0.78241640276E+01  0.40470535951E+02  0.12748052518E+03  0.13397897642E+03  0.00000000000E+00 0.  1.
<mgrwt>
<rscale>  2 0.75618455E+02</rscale>
<asrwt>0</asrwt>
<pdfrwt beam="1">  1       21 0.27277257E-01 0.75618455E+02</pdfrwt>
<pdfrwt beam="2">  1       21 0.12250368E-01 0.75618455E+02</pdfrwt>
<totfact> 0.72493109E+05</totfact>
</mgrwt>
</event>
<event>
 5    1  0.1590180E+000  0.9195436E+02  0.7546771E-02  0.1298187E+00
         21   -1    0    0  501  502  0.00000000000E+00  0.00000000000E+00  0.97405822234E+01  0.97405822234E+01  0.00000000000E+00 0. -1.
         21   -1    0    0  502  503 -0.00000000000E+00 -0.00000000000E+00 -0.13590753876E+04  0.13590753876E+04  0.00000000000E+00 0. -1.
         24    1    1    2    0    0 -0.48839630703E+02 -0.55345423870E+02 -0.97036155328E+03  0.97648204566E+03  0.80419002446E+02 0. -1.
          1    1    1    2  501    0  0.17349310936E+02  0.11682468245E+02 -0.18686757978E+02  0.28047701831E+02  0.00000000000E+00 0. -1.
         -2    1    1    2    0  503  0.31490319767E+02  0.43662955625E+02 -0.36028649415E+03  0.36428622236E+03  0.00000000000E+00 0.  1.
<mgrwt>
<rscale>  2 0.91954364E+02</rscale>
<asrwt>0</asrwt>
<pdfrwt beam="1">  1       21 0.14985507E-02 0.91954364E+02</pdfrwt>
<pdfrwt beam="2">  1       21 0.20908858E+00 0.91954364E+02</pdfrwt>
<totfact> 0.24456089E+05</totfact>
</mgrwt>
</event>
<event>
 5    1  0.1590180E+000  0.7361951E+02  0.7546771E-02  0.1348200E+00
         21   -1    0    0  503  502  0.00000000000E+00  0.00000000000E+00  0.19257550648E+04  0.19257550648E+04  0.00000000000E+00 0.  1.
         21   -1    0    0  501  503 -0.00000000000E+00 -0.00000000000E+00 -0.93128930090E+01  0.93128930090E+01  0.00000000000E+00 0. -1.
         24    1    1    2    0    0  0.19657059830E+02 -0.89640114616E+01  0.53913239276E+03  0.54552516567E+03  0.80419002446E+02 0.  1.
          1    1    1    2  501    0 -0.29563797059E+01 -0.25500257938E+02  0.22336115435E+02  0.34028008884E+02  0.00000000000E+00 0. -1.
         -2    1    1    2    0  502 -0.16700680124E+02  0.34464269400E+02  0.13549736635E+04  0.13555147832E+04  0.00000000000E+00 0.  1.
<mgrwt>
<rscale>  2 0.73619510E+02</rscale>
<asrwt>0</asrwt>
<pdfrwt beam="1">  1       21 0.29626969E+00 0.73619510E+02</pdfrwt>
<pdfrwt beam="2">  1       21 0.14327543E-02 0.73619510E+02</pdfrwt>
<totfact> 0.87249616E+04</totfact>
</mgrwt>
</event>
<event>
 5    1  0.1590180E+000  0.7122872E+02  0.7546771E-02  0.1355964E+00
         21   -1    0    0  503  502  0.00000000000E+00  0.00000000000E+00  0.61189056236E+03  0.61189056236E+03  0.00000000000E+00 0.  1.
         21   -1    0    0  501  503 -0.00000000000E+00 -0.00000000000E+00 -0.17745377829E+02  0.17745377829E+02  0.00000000000E+00 0. -1.
         24    1    1    2    0    0  0.98147189725E+01  0.15897342216E+02  0.10689822450E+03  0.13506850319E+03  0.80419002446E+02 0.  0.
          1    1    1    2  501    0  0.14532985496E+02  0.14782287897E+02  0.35376350373E+02  0.41002559294E+02  0.00000000000E+00 0. -1.
         -2    1    1    2    0  502 -0.24347704469E+02 -0.30679630113E+02  0.45187060966E+03  0.45356487771E+03  0.00000000000E+00 0.  1.
<mgrwt>
<rscale>  2 0.71228720E+02</rscale>
<asrwt>0</asrwt>
<pdfrwt beam="1">  1       21 0.94136993E-01 0.71228720E+02</pdfrwt>
<pdfrwt beam="2">  1       21 0.27300586E-02 0.71228720E+02</pdfrwt>
<totfact> 0.70617107E+05</totfact>
</mgrwt>
</event>
<event>
 5    1  0.1590180E+000  0.6800559E+02  0.7546771E-02  0.1367010E+00
         21   -1    0    0  501  502  0.00000000000E+00  0.00000000000E+00  0.12570691213E+03  0.12570691213E+03  0.00000000000E+00 0.  1.
         21   -1    0    0  502  503 -0.00000000000E+00 -0.00000000000E+00 -0.41442248079E+02  0.41442248079E+02  0.00000000000E+00 0.  1.
         24    1    1    2    0    0  0.32680770284E+02  0.17492841051E+02  0.28268144519E+02  0.92953408670E+02  0.80419002446E+02 0.  1.
          1    1    1    2  501    0 -0.10301364214E+02 -0.22305463530E+02  0.37175270589E+02  0.44560661477E+02  0.00000000000E+00 0. -1.
         -2    1    1    2    0  503 -0.22379406070E+02  0.48126224790E+01  0.18821248943E+02  0.29635090061E+02  0.00000000000E+00 0.  1.
<mgrwt>
<rscale>  2 0.68005588E+02</rscale>
<asrwt>0</asrwt>
<pdfrwt beam="1">  1       21 0.19339525E-01 0.68005588E+02</pdfrwt>
<pdfrwt beam="2">  1       21 0.63757305E-02 0.68005588E+02</pdfrwt>
<totfact> 0.41497081E+06</totfact>
</mgrwt>
</event>
<event>
 5    1  0.1590180E+000  0.1389562E+03  0.7546771E-02  0.1214740E+00
         21   -1    0    0  501  502  0.00000000000E+00  0.00000000000E+00  0.28304912058E+03  0.28304912058E+03  0.00000000000E+00 0. -1.
         21   -1    0    0  502  503 -0.00000000000E+00 -0.00000000000E+00 -0.13236721048E+03  0.13236721048E+03  0.00000000000E+00 0.  1.
         24    1    1    2    0    0 -0.78835785556E+02  0.48707376811E+02  0.84178266235E+02  0.14879746671E+03  0.80419002446E+02 0.  0.
          1    1    1    2  501    0  0.91545253595E+02  0.12775239849E+02  0.14137383421E+03  0.16890915075E+03  0.00000000000E+00 0. -1.
         -2    1    1    2    0  503 -0.12709468038E+02 -0.61482616660E+02 -0.74870190345E+02  0.97709713598E+02  0.00000000000E+00 0.  1.
<mgrwt>
<rscale>  2 0.13895624E+03</rscale>
<asrwt>0</asrwt>
<pdfrwt beam="1">  1       21 0.43546019E-01 0.13895624E+03</pdfrwt>
<pdfrwt beam="2">  1       21 0.20364186E-01 0.13895624E+03</pdfrwt>
<totfact> 0.11533822E+05</totfact>
</mgrwt>
</event>
<event>
 5    1  0.1590180E+000  0.9859355E+02  0.7546771E-02  0.1283282E+00
         21   -1    0    0  501  502  0.00000000000E+00  0.00000000000E+00  0.22435158295E+03  0.22435158295E+03  0.00000000000E+00 0.  1.
         21   -1    0    0  502  503 -0.00000000000E+00 -0.00000000000E+00 -0.51008678711E+02  0.51008678711E+02  0.00000000000E+00 0. -1.
         24    1    1    2    0    0 -0.19633546618E+02  0.54618657709E+02  0.10460082655E+03  0.14414306363E+03  0.80419002446E+02 0.  1.
          1    1    1    2  501    0  0.19616512150E+00 -0.71961259994E+02  0.75504405769E+02  0.10430425069E+03  0.00000000000E+00 0. -1.
         -2    1    1    2    0  503  0.19437381496E+02  0.17342602286E+02 -0.67623280849E+01  0.26912947341E+02  0.00000000000E+00 0.  1.
<mgrwt>
<rscale>  2 0.98593553E+02</rscale>
<asrwt>0</asrwt>
<pdfrwt beam="1">  1       21 0.34515628E-01 0.98593553E+02</pdfrwt>
<pdfrwt beam="2">  1       21 0.78474892E-02 0.98593553E+02</pdfrwt>
<totfact> 0.10021055E+06</totfact>
</mgrwt>
</event>
<event>
 5    1  0.1590180E+000  0.7038464E+02  0.7546771E-02  0.1358790E+00
         21   -1    0    0  503  502  0.00000000000E+00  0.00000000000E+00  0.45310651924E+03  0.45310651924E+03  0.00000000000E+00 0.  1.
         21   -1    0    0  501  503 -0.00000000000E+00 -0.00000000000E+00 -0.33819882685E+02  0.33819882685E+02  0.00000000000E+00 0. -1.
         24    1    1    2    0    0 -0.47506770823E+01  0.29487086842E+02  0.32709011525E+03  0.33815265292E+03  0.80419002446E+02 0.  0.
          1    1    1    2  501    0  0.24470725686E+02 -0.24531619998E+02 -0.16368107260E+02  0.38321426521E+02  0.00000000000E+00 0. -1.
         -2    1    1    2    0  502 -0.19720048604E+02 -0.49554668436E+01  0.10856462856E+03  0.11045232249E+03  0.00000000000E+00 0.  1.
<mgrwt>
<rscale>  2 0.70384637E+02</rscale>
<asrwt>0</asrwt>
<pdfrwt beam="1">  1       21 0.69708691E-01 0.70384637E+02</pdfrwt>
<pdfrwt beam="2">  1       21 0.52030592E-02 0.70384637E+02</pdfrwt>
<totfact> 0.47713739E+05</totfact>
</mgrwt>
</event>
<event>
 5    1  0.1590180E+000  0.9473752E+02  0.7546771E-02  0.1291768E+00
         21   -1    0    0  503  502  0.00000000000E+00  0.00000000000E+00  0.77477019255E+02  0.77477019255E+02  0.00000000000E+00 0.  1.
         21   -1    0    0  501  503 -0.00000000000E+00 -0.00000000000E+00 -0.18097935913E+03  0.18097935913E+03  0.00000000000E+00 0. -1.
         24    1    1    2    0    0 -0.12602268466E+02  0.29708532652E+02 -0.38660700712E+02  0.94885614382E+02  0.80419002446E+02 0.  1.
          1    1    1    2  501    0  0.31218793947E+02  0.28154164598E+02 -0.88790160617E+02  0.98239313425E+02  0.00000000000E+00 0. -1.
         -2    1    1    2    0  502 -0.18616525481E+02 -0.57862697250E+02  0.23948521458E+02  0.65331450573E+02  0.00000000000E+00 0.  1.
<mgrwt>
<rscale>  2 0.94737517E+02</rscale>
<asrwt>0</asrwt>
<pdfrwt beam="1">  1       21 0.11919541E-01 0.94737517E+02</pdfrwt>
<pdfrwt beam="2">  1       21 0.27842978E-01 0.94737517E+02</pdfrwt>
<totfact> 0.73359105E+05</totfact>
</mgrwt>
</event>
<event>
 5    1  0.1590180E+000  0.6902691E+02  0.7546771E-02  0.1363434E+00
         21   -1    0    0  501  502  0.00000000000E+00  0.00000000000E+00  0.92686923475E+02  0.92686923475E+02  0.00000000000E+00 0. -1.
         21   -1    0    0  502  503 -0.00000000000E+00 -0.00000000000E+00 -0.14452995382E+03  0.14452995382E+03  0.00000000000E+00 0.  1.
         24    1    1    2    0    0  0.94420589413E+01 -0.10297209546E+02  0.66935122755E+02  0.10555904326E+03  0.80419002446E+02 0. -1.
          1    1    1    2  501    0 -0.12753395916E+02  0.32014889801E+02 -0.65115238225E+02  0.73672223568E+02  0.00000000000E+00 0. -1.
         -2    1    1    2    0  503  0.33113369751E+01 -0.21717680255E+02 -0.53662914875E+02  0.57985610466E+02  0.00000000000E+00 0.  1.
<mgrwt>
<rscale>  2 0.69026905E+02</rscale>
<asrwt>0</asrwt>
<pdfrwt beam="1">  1       21 0.14259527E-01 0.69026905E+02</pdfrwt>
<pdfrwt beam="2">  1       21 0.22235377E-01 0.69026905E+02</pdfrwt>
<totfact> 0.80977974E+05</totfact>
</mgrwt>
</event>
<event>
 5    1  0.1590180E+000  0.7163297E+02  0.7546771E-02  0.1354626E+00
         21   -1    0    0  501  502  0.00000000000E+00  0.00000000000E+00  0.14847274116E+03  0.14847274116E+03  0.00000000000E+00 0. -1.
         21   -1    0    0  502  503 -0.00000000000E+00 -0.00000000000E+00 -0.41106324870E+02  0.41106324870E+02  0.00000000000E+00 0.  1.
         24    1    1    2    0    0 -0.86461462191E+00  0.42754256586E+02  0.51270970849E+02  0.10452082291E+03  0.80419002446E+02 0.  1.
          1    1    1    2  501    0  0.14877416707E+02 -0.15187113615E+02  0.48880196898E+02  0.53303467022E+02  0.00000000000E+00 0. -1.
         -2    1    1    2    0  503 -0.14012802085E+02 -0.27567142971E+02  0.72152485459E+01  0.31754776105E+02  0.00000000000E+00 0.  1.
<mgrwt>
<rscale>  2 0.71632967E+02</rscale>
<asrwt>0</asrwt>
<pdfrwt beam="1">  1       21 0.22841960E-01 0.71632967E+02</pdfrwt>
<pdfrwt beam="2">  1       21 0.63240501E-02 0.71632967E+02</pdfrwt>
<totfact> 0.31153213E+06</totfact>
</mgrwt>
</event>
<event>
 5    1  0.2185777E+000  0.8859654E+02  0.7546771E-02  0.1306286E+00
         21   -1    0    0  503  502  0.00000000000E+00  0.00000000000E+00  0.31799661661E+03  0.31799661661E+03  0.00000000000E+00 0. -1.
         21   -1    0    0  501  503 -0.00000000000E+00 -0.00000000000E+00 -0.11205638060E+03  0.11205638060E+03  0.00000000000E+00 0. -1.
         24    1    1    2    0    0  0.44699376347E+02  0.40041715001E+02  0.22845103865E+03  0.24951646479E+03  0.80419002446E+02 0. -1.
          1    1    1    2  501    0 -0.49757796092E+02 -0.15976763552E+02 -0.92561225087E+02  0.10629522866E+03  0.00000000000E+00 0. -1.
         -2    1    1    2    0  502  0.50584197452E+01 -0.24064951449E+02  0.70050422450E+02  0.74241303760E+02  0.00000000000E+00 0.  1.
<mgrwt>
<rscale>  2 0.88596542E+02</rscale>
<asrwt>0</asrwt>
<pdfrwt beam="1">  1       21 0.48922556E-01 0.88596542E+02</pdfrwt>
<pdfrwt beam="2">  1       21 0.17239443E-01 0.88596542E+02</pdfrwt>
<totfact> 0.12606984E+05</totfact>
</mgrwt>
</event>
<event>
 5    1  0.1590180E+000  0.1091930E+03  0.7546771E-02  0.1262072E+00
         21   -1    0    0  503  502  0.00000000000E+00  0.00000000000E+00  0.46358200740E+02  0.46358200740E+02  0.00000000000E+00 0.  1.
         21   -1    0    0  501  503 -0.00000000000E+00 -0.00000000000E+00 -0.39966445343E+03  0.39966445343E+03  0.00000000000E+00 0.  1.
         24    1    1    2    0    0  0.34874624450E+02  0.54433587785E+02 -0.14701597958E+03  0.17961116089E+03  0.80419002446E+02 0.  0.
          1    1    1    2  501    0 -0.11422485988E+02  0.27607350950E+02 -0.17179790962E+03  0.17437649143E+03  0.00000000000E+00 0. -1.
         -2    1    1    2    0  502 -0.23452138462E+02 -0.82040938735E+02 -0.34492363486E+02  0.92035001851E+02  0.00000000000E+00 0.  1.
<mgrwt>
<rscale>  2 0.10919296E+03</rscale>
<asrwt>0</asrwt>
<pdfrwt beam="1">  1       21 0.71320307E-02 0.10919296E+03</pdfrwt>
<pdfrwt beam="2">  1       21 0.61486840E-01 0.10919296E+03</pdfrwt>
<totfact> 0.36567691E+05</totfact>
</mgrwt>
</event>
<event>
 5    1  0.1590180E+000  0.9401213E+02  0.7546771E-02  0.1293417E+00
         21   -1    0    0  501  502  0.00000000000E+00  0.00000000000E+00  0.21446689927E+02  0.21446689927E+02  0.00000000000E+00 0. -1.
         21   -1    0    0  502  503 -0.00000000000E+00 -0.00000000000E+00 -0.61025542588E+03  0.61025542588E+03  0.00000000000E+00 0.  1.
         24    1    1    2    0    0 -0.35184516497E+02 -0.59075387324E+02 -0.21478154126E+03  0.23942885793E+03  0.80419002446E+02 0.  1.
          1    1    1    2  501    0 -0.99750960412E+01  0.20608015247E+02 -0.12846141529E+02  0.26252927182E+02  0.00000000000E+00 0. -1.
         -2    1    1    2    0  503  0.45159612538E+02  0.38467372078E+02 -0.36118105316E+03  0.36602033070E+03  0.00000000000E+00 0.  1.
<mgrwt>
<rscale>  2 0.94012127E+02</rscale>
<asrwt>0</asrwt>
<pdfrwt beam="1">  1       21 0.32994913E-02 0.94012127E+02</pdfrwt>
<pdfrwt beam="2">  1       21 0.93885433E-01 0.94012127E+02</pdfrwt>
<totfact> 0.52245762E+05</totfact>
</mgrwt>
</event>
<event>
 5    1  0.1590180E+000  0.7983776E+02  0.7546771E-02  0.1329512E+00
         21   -1    0    0  503  502  0.00000000000E+00  0.00000000000E+00  0.34128603950E+03  0.34128603950E+03  0.00000000000E+00 0. -1.
         21   -1    0    0  501  503 -0.00000000000E+00 -0.00000000000E+00 -0.46238207978E+02  0.46238207978E+02  0.00000000000E+00 0.  1.
         24    1    1    2    0    0 -0.74904029542E+01 -0.48273819757E+02  0.14598636016E+02  0.95219766531E+02  0.80419002446E+02 0.  1.
          1    1    1    2  501    0  0.25878526583E+02  0.30617043245E+02  0.72900789546E+02  0.83196313570E+02  0.00000000000E+00 0. -1.
         -2    1    1    2    0  502 -0.18388123629E+02  0.17656776512E+02  0.20754840596E+03  0.20910816738E+03  0.00000000000E+00 0.  1.
<mgrwt>
<rscale>  2 0.79837762E+02</rscale>
<asrwt>0</asrwt>
<pdfrwt beam="1">  1       21 0.52505543E-01 0.79837762E+02</pdfrwt>
<pdfrwt beam="2">  1       21 0.71135706E-02 0.79837762E+02</pdfrwt>
<totfact> 0.51174453E+05</totfact>
</mgrwt>
</event>
<event>
 5    1  0.1590180E+000  0.1311845E+03  0.7546771E-02  0.1225709E+00
         21   -1    0    0  503  502  0.00000000000E+00  0.00000000000E+00  0.28205277450E+03  0.28205277450E+03  0.00000000000E+00 0.  1.
         21   -1    0    0  501  503 -0.00000000000E+00 -0.00000000000E+00 -0.76752076420E+02  0.76752076420E+02  0.00000000000E+00 0.  1.
         24    1    1    2    0    0 -0.92205494523E+02 -0.62727882917E+02  0.92600248106E+02  0.16576689181E+03  0.80419002446E+02 0.  1.
          1    1    1    2  501    0  0.21394542689E+01  0.28417214858E+02 -0.15663600329E+02  0.32518667564E+02  0.00000000000E+00 0. -1.
         -2    1    1    2    0  502  0.90066040254E+02  0.34310668059E+02  0.12836405031E+03  0.16051929155E+03  0.00000000000E+00 0.  1.
<mgrwt>
<rscale>  2 0.13118449E+03</rscale>
<asrwt>0</asrwt>
<pdfrwt beam="1">  1       21 0.43392734E-01 0.13118449E+03</pdfrwt>
<pdfrwt beam="2">  1       21 0.11808012E-01 0.13118449E+03</pdfrwt>
<totfact> 0.31231277E+05</totfact>
</mgrwt>
</event>
<event>
 5    1  0.1590180E+000  0.9443501E+02  0.7546771E-02  0.1292454E+00
         21   -1    0    0  503  502  0.00000000000E+00  0.00000000000E+00  0.27741869718E+03  0.27741869718E+03  0.00000000000E+00 0.  1.
         21   -1    0    0  501  503 -0.00000000000E+00 -0.00000000000E+00 -0.34062103121E+02  0.34062103121E+02  0.00000000000E+00 0.  1.
         24    1    1    2    0    0 -0.62843118321E+02 -0.27869413438E+02  0.15691861872E+03  0.18925282186E+03  0.80419002446E+02 0.  1.
          1    1    1    2  501    0  0.15837114731E+02 -0.13227205076E+02  0.83818164368E+01  0.22271686149E+02  0.00000000000E+00 0. -1.
         -2    1    1    2    0  502  0.47006003590E+02  0.41096618514E+02  0.78056158903E+02  0.99956292296E+02  0.00000000000E+00 0.  1.
<mgrwt>
<rscale>  2 0.94435014E+02</rscale>
<asrwt>0</asrwt>
<pdfrwt beam="1">  1       21 0.42679798E-01 0.94435014E+02</pdfrwt>
<pdfrwt beam="2">  1       21 0.52403237E-02 0.94435014E+02</pdfrwt>
<totfact> 0.13033402E+06</totfact>
</mgrwt>
</event>
<event>
 5    1  0.1590180E+000  0.8587741E+02  0.7546771E-02  0.1313154E+00
         21   -1    0    0  501  502  0.00000000000E+00  0.00000000000E+00  0.58646311613E+01  0.58646311613E+01  0.00000000000E+00 0.  1.
         21   -1    0    0  502  503 -0.00000000000E+00 -0.00000000000E+00 -0.13354808428E+04  0.13354808428E+04  0.00000000000E+00 0.  1.
         24    1    1    2    0    0 -0.36690259106E+02  0.30939330062E+02 -0.57158370410E+03  0.57920511393E+03  0.80419002446E+02 0.  1.
          1    1    1    2  501    0 -0.14884908045E+02 -0.20740978326E+02 -0.30528868393E+03  0.30635425443E+03  0.00000000000E+00 0. -1.
         -2    1    1    2    0  503  0.51575167150E+02 -0.10198351737E+02 -0.45274382358E+03  0.45578610557E+03  0.00000000000E+00 0.  1.
<mgrwt>
<rscale>  2 0.85877413E+02</rscale>
<asrwt>0</asrwt>
<pdfrwt beam="1">  1       21 0.90225163E-03 0.85877413E+02</pdfrwt>
<pdfrwt beam="2">  1       21 0.20545844E+00 0.85877413E+02</pdfrwt>
<totfact> 0.57263895E+05</totfact>
</mgrwt>
</event>
<event>
 5    1  0.1590180E+000  0.6508919E+02  0.7546771E-02  0.1377636E+00
         21   -1    0    0  501  502  0.00000000000E+00  0.00000000000E+00  0.28486282080E+03  0.28486282080E+03  0.00000000000E+00 0.  1.
         21   -1    0    0  502  503 -0.00000000000E+00 -0.00000000000E+00 -0.22756211653E+02  0.22756211653E+02  0.00000000000E+00 0.  1.
         24    1    1    2    0    0  0.70309068679E+01  0.23064010042E+02  0.18644705819E+03  0.20447763612E+03  0.80419002446E+02 0.  1.
          1    1    1    2  501    0  0.15704611863E+02 -0.15988675655E+02  0.76094722836E+02  0.79326410649E+02  0.00000000000E+00 0. -1.
         -2    1    1    2    0  503 -0.22735518731E+02 -0.70753343868E+01 -0.43517187770E+00  0.23814985686E+02  0.00000000000E+00 0.  1.
<mgrwt>
<rscale>  2 0.65089189E+02</rscale>
<asrwt>0</asrwt>
<pdfrwt beam="1">  1       21 0.43825047E-01 0.65089189E+02</pdfrwt>
<pdfrwt beam="2">  1       21 0.35009559E-02 0.65089189E+02</pdfrwt>
<totfact> 0.23674256E+06</totfact>
</mgrwt>
</event>
<event>
 5    1  0.1590180E+000  0.7028809E+02  0.7546771E-02  0.1359116E+00
         21   -1    0    0  503  502  0.00000000000E+00  0.00000000000E+00  0.18495141110E+03  0.18495141110E+03  0.00000000000E+00 0.  1.
         21   -1    0    0  501  503 -0.00000000000E+00 -0.00000000000E+00 -0.62127235959E+02  0.62127235959E+02  0.00000000000E+00 0.  1.
         24    1    1    2    0    0  0.11240197696E+02  0.16446777412E+02 -0.57304782140E+01  0.83047533777E+02  0.80419002446E+02 0.  1.
          1    1    1    2  501    0  0.19216619328E+02 -0.19176044950E+02 -0.44909202628E+01  0.27516677181E+02  0.00000000000E+00 0. -1.
         -2    1    1    2    0  502 -0.30456817024E+02  0.27292675379E+01  0.13304557361E+03  0.13651443610E+03  0.00000000000E+00 0.  1.
<mgrwt>
<rscale>  2 0.70288088E+02</rscale>
<asrwt>0</asrwt>
<pdfrwt beam="1">  1       21 0.28454063E-01 0.70288088E+02</pdfrwt>
<pdfrwt beam="2">  1       21 0.95580364E-02 0.70288088E+02</pdfrwt>
<totfact> 0.10271393E+06</totfact>
</mgrwt>
</event>
<event>
 5    1  0.1590180E+000  0.9113211E+02  0.7546771E-02  0.1300133E+00
         21   -1    0    0  503  502  0.00000000000E+00  0.00000000000E+00  0.23770059302E+03  0.23770059302E+03  0.00000000000E+00 0. -1.
         21   -1    0    0  501  503 -0.00000000000E+00 -0.00000000000E+00 -0.44959615054E+02  0.44959615054E+02  0.00000000000E+00 0.  1.
         24    1    1    2    0    0 -0.90304506206E+01 -0.47820131589E+02  0.14927621984E+03  0.17640555487E+03  0.80419002446E+02 0. -1.
          1    1    1    2  501    0  0.24687378657E+02 -0.11269515356E+02 -0.57932064950E+01  0.27749412297E+02  0.00000000000E+00 0. -1.
         -2    1    1    2    0  502 -0.15656928037E+02  0.59089646944E+02  0.49257964615E+02  0.78505240905E+02  0.00000000000E+00 0.  1.
<mgrwt>
<rscale>  2 0.91132110E+02</rscale>
<asrwt>0</asrwt>
<pdfrwt beam="1">  1       21 0.36569321E-01 0.91132110E+02</pdfrwt>
<pdfrwt beam="2">  1       21 0.69168640E-02 0.91132110E+02</pdfrwt>
<totfact> 0.11083818E+06</totfact>
</mgrwt>
</event>
<event>
 5    1  0.1590180E+000  0.8910808E+02  0.7546771E-02  0.1305026E+00
         21   -1    0    0  503  502  0.00000000000E+00  0.00000000000E+00  0.94094696039E+01  0.94094696039E+01  0.00000000000E+00 0.  1.
         21   -1    0    0  501  503 -0.00000000000E+00 -0.00000000000E+00 -0.17554739579E+04  0.17554739579E+04  0.00000000000E+00 0. -1.
         24    1    1    2    0    0  0.11776466782E+02  0.28695720594E+02 -0.59075923192E+03  0.59701408326E+03  0.80419002446E+02 0. -1.
          1    1    1    2  501    0  0.33385476188E+02  0.74147002986E+01 -0.10218930777E+04  0.10224651730E+04  0.00000000000E+00 0. -1.
         -2    1    1    2    0  502 -0.45161942970E+02 -0.36110420893E+02 -0.13341217867E+03  0.14540417121E+03  0.00000000000E+00 0.  1.
<mgrwt>
<rscale>  2 0.89108076E+02</rscale>
<asrwt>0</asrwt>
<pdfrwt beam="1">  1       21 0.14476113E-02 0.89108076E+02</pdfrwt>
<pdfrwt beam="2">  1       21 0.27007281E+00 0.89108076E+02</pdfrwt>
<totfact> 0.11625299E+05</totfact>
</mgrwt>
</event>
<event>
 5    1  0.1590180E+000  0.7527160E+02  0.7546771E-02  0.1343032E+00
         21   -1    0    0  503  502  0.00000000000E+00  0.00000000000E+00  0.10623617555E+04  0.10623617555E+04  0.00000000000E+00 0. -1.
         21   -1    0    0  501  503 -0.00000000000E+00 -0.00000000000E+00 -0.15546272573E+02  0.15546272573E+02  0.00000000000E+00 0. -1.
         24    1    1    2    0    0 -0.22595950293E+02 -0.19523472658E+02  0.50610624151E+03  0.51332493277E+03  0.80419002446E+02 0. -1.
          1    1    1    2  501    0  0.27649493029E+02 -0.13906022970E+02  0.96076533045E+01  0.32406464504E+02  0.00000000000E+00 0. -1.
         -2    1    1    2    0  502 -0.50535427366E+01  0.33429495628E+02  0.53110158813E+03  0.53217663081E+03  0.00000000000E+00 0.  1.
<mgrwt>
<rscale>  2 0.75271596E+02</rscale>
<asrwt>0</asrwt>
<pdfrwt beam="1">  1       21 0.16344021E+00 0.75271596E+02</pdfrwt>
<pdfrwt beam="2">  1       21 0.23917351E-02 0.75271596E+02</pdfrwt>
<totfact> 0.23038746E+05</totfact>
</mgrwt>
</event>
<event>
 5    1  0.1590180E+000  0.8584654E+02  0.7546771E-02  0.1313233E+00
         21   -1    0    0  503  502  0.00000000000E+00  0.00000000000E+00  0.10308602508E+04  0.10308602508E+04  0.00000000000E+00 0. -1.
         21   -1    0    0  501  503 -0.00000000000E+00 -0.00000000000E+00 -0.14956674841E+02  0.14956674841E+02  0.00000000000E+00 0. -1.
         24    1    1    2    0    0 -0.62606647071E+02 -0.10110043501E+01  0.33645924233E+03  0.35155746627E+03  0.80419002446E+02 0.  0.
          1    1    1    2  501    0  0.45677918981E+02 -0.13332760266E+02  0.71357051948E+02  0.85767497582E+02  0.00000000000E+00 0. -1.
         -2    1    1    2    0  502  0.16928728090E+02  0.14343764616E+02  0.60808728169E+03  0.60849196179E+03  0.00000000000E+00 0.  1.
<mgrwt>
<rscale>  2 0.85846545E+02</rscale>
<asrwt>0</asrwt>
<pdfrwt beam="1">  1       21 0.15859383E+00 0.85846545E+02</pdfrwt>
<pdfrwt beam="2">  1       21 0.23010277E-02 0.85846545E+02</pdfrwt>
<totfact> 0.26356177E+05</totfact>
</mgrwt>
</event>
<event>
 5    1  0.1590180E+000  0.1085170E+03  0.7546771E-02  0.1263341E+00
         21   -1    0    0  503  502  0.00000000000E+00  0.00000000000E+00  0.13291533963E+04  0.13291533963E+04  0.00000000000E+00 0.  1.
         21   -1    0    0  501  503 -0.00000000000E+00 -0.00000000000E+00 -0.14888549324E+02  0.14888549324E+02  0.00000000000E+00 0. -1.
         24    1    1    2    0    0 -0.70379733542E+02 -0.41452016602E+02  0.30973918778E+03  0.33026831058E+03  0.80419002446E+02 0. -1.
          1    1    1    2  501    0  0.34244806784E+02  0.54182821357E+02  0.24384140505E+03  0.25212519854E+03  0.00000000000E+00 0. -1.
         -2    1    1    2    0  502  0.36134926758E+02 -0.12730804755E+02  0.76068425416E+03  0.76164843651E+03  0.00000000000E+00 0.  1.
<mgrwt>
<rscale>  2 0.10851700E+03</rscale>
<asrwt>0</asrwt>
<pdfrwt beam="1">  1       21 0.20448504E+00 0.10851700E+03</pdfrwt>
<pdfrwt beam="2">  1       21 0.22905471E-02 0.10851700E+03</pdfrwt>
<totfact> 0.13068231E+05</totfact>
</mgrwt>
</event>
<event>
 5    1  0.1590180E+000  0.1491048E+03  0.7546771E-02  0.1201577E+00
         21   -1    0    0  503  502  0.00000000000E+00  0.00000000000E+00  0.59717660228E+03  0.59717660228E+03  0.00000000000E+00 0.  1.
         21   -1    0    0  501  503 -0.00000000000E+00 -0.00000000000E+00 -0.52295537053E+02  0.52295537053E+02  0.00000000000E+00 0. -1.
         24    1    1    2    0    0 -0.45608773344E+00 -0.12816081194E+03  0.15812443365E+03  0.21885144323E+03  0.80419002446E+02 0.  0.
          1    1    1    2  501    0  0.33517515789E+02  0.91973168677E+02  0.10086249015E+03  0.14055507654E+03  0.00000000000E+00 0. -1.
         -2    1    1    2    0  502 -0.33061428056E+02  0.36187643261E+02  0.28589414143E+03  0.29006561957E+03  0.00000000000E+00 0.  1.
<mgrwt>
<rscale>  2 0.14910480E+03</rscale>
<asrwt>0</asrwt>
<pdfrwt beam="1">  1       21 0.91873318E-01 0.14910480E+03</pdfrwt>
<pdfrwt beam="2">  1       21 0.80454677E-02 0.14910480E+03</pdfrwt>
<totfact> 0.12103121E+05</totfact>
</mgrwt>
</event>
<event>
 5    1  0.1590180E+000  0.7861017E+02  0.7546771E-02  0.1333042E+00
         21   -1    0    0  501  502  0.00000000000E+00  0.00000000000E+00  0.23153209557E+02  0.23153209557E+02  0.00000000000E+00 0. -1.
         21   -1    0    0  502  503 -0.00000000000E+00 -0.00000000000E+00 -0.33897283524E+03  0.33897283524E+03  0.00000000000E+00 0.  1.
         24    1    1    2    0    0  0.10504418133E+02  0.28245166631E+02 -0.13944007437E+03  0.16376471699E+03  0.80419002446E+02 0.  1.
          1    1    1    2  501    0 -0.10698958157E+02  0.20219376635E+02 -0.98205307427E+01  0.24894451615E+02  0.00000000000E+00 0. -1.
         -2    1    1    2    0  503  0.19454002380E+00 -0.48464543266E+02 -0.16655902057E+03  0.17346687619E+03  0.00000000000E+00 0.  1.
<mgrwt>
<rscale>  2 0.78610167E+02</rscale>
<asrwt>0</asrwt>
<pdfrwt beam="1">  1       21 0.35620323E-02 0.78610167E+02</pdfrwt>
<pdfrwt beam="2">  1       21 0.52149665E-01 0.78610167E+02</pdfrwt>
<totfact> 0.16350295E+06</totfact>
</mgrwt>
</event>
<event>
 5    1  0.1590180E+000  0.1075684E+03  0.7546771E-02  0.1265140E+00
         21   -1    0    0  501  502  0.00000000000E+00  0.00000000000E+00  0.16804629856E+03  0.16804629856E+03  0.00000000000E+00 0. -1.
         21   -1    0    0  502  503 -0.00000000000E+00 -0.00000000000E+00 -0.13897212913E+03  0.13897212913E+03  0.00000000000E+00 0.  1.
         24    1    1    2    0    0 -0.35298194058E+02  0.27831411248E+02 -0.30557079129E+02  0.97064416730E+02  0.80419002446E+02 0.  0.
          1    1    1    2  501    0  0.65835170478E+02 -0.52136380792E+02  0.11488509128E+03  0.14230620532E+03  0.00000000000E+00 0. -1.
         -2    1    1    2    0  503 -0.30536976420E+02  0.24304969544E+02 -0.55253842721E+02  0.67647805647E+02  0.00000000000E+00 0.  1.
<mgrwt>
<rscale>  2 0.10756838E+03</rscale>
<asrwt>0</asrwt>
<pdfrwt beam="1">  1       21 0.25853277E-01 0.10756838E+03</pdfrwt>
<pdfrwt beam="2">  1       21 0.21380328E-01 0.10756838E+03</pdfrwt>
<totfact> 0.29442786E+05</totfact>
</mgrwt>
</event>
<event>
 5    1  0.1590180E+000  0.7496232E+02  0.7546771E-02  0.1343988E+00
         21   -1    0    0  501  502  0.00000000000E+00  0.00000000000E+00  0.18034573992E+03  0.18034573992E+03  0.00000000000E+00 0. -1.
         21   -1    0    0  502  503 -0.00000000000E+00 -0.00000000000E+00 -0.54016621383E+02  0.54016621383E+02  0.00000000000E+00 0. -1.
         24    1    1    2    0    0 -0.42338794430E+02  0.19428712985E+02  0.14151734209E+02  0.94008169526E+02  0.80419002446E+02 0. -1.
          1    1    1    2  501    0  0.32268877613E+02  0.29941795439E+01  0.11112206982E+03  0.11575128498E+03  0.00000000000E+00 0. -1.
         -2    1    1    2    0  503  0.10069916817E+02 -0.22422892529E+02  0.10553145065E+01  0.24602906796E+02  0.00000000000E+00 0.  1.
<mgrwt>
<rscale>  2 0.74962320E+02</rscale>
<asrwt>0</asrwt>
<pdfrwt beam="1">  1       21 0.27745498E-01 0.74962320E+02</pdfrwt>
<pdfrwt beam="2">  1       21 0.83102495E-02 0.74962320E+02</pdfrwt>
<totfact> 0.13709855E+06</totfact>
</mgrwt>
</event>
<event>
 5    1  0.1590180E+000  0.1152553E+03  0.7546771E-02  0.1251136E+00
         21   -1    0    0  501  502  0.00000000000E+00  0.00000000000E+00  0.19125873003E+02  0.19125873003E+02  0.00000000000E+00 0.  1.
         21   -1    0    0  502  503 -0.00000000000E+00 -0.00000000000E+00 -0.71242144938E+03  0.71242144938E+03  0.00000000000E+00 0. -1.
         24    1    1    2    0    0  0.49284796726E+02  0.78058940143E+02 -0.42474826114E+03  0.44204127705E+03  0.80419002446E+02 0. -1.
          1    1    1    2  501    0  0.12622936760E+02 -0.16502353885E+02 -0.55807812780E+02  0.59549795831E+02  0.00000000000E+00 0. -1.
         -2    1    1    2    0  503 -0.61907733486E+02 -0.61556586258E+02 -0.21273950246E+03  0.22995624950E+03  0.00000000000E+00 0.  1.
<mgrwt>
<rscale>  2 0.11525531E+03</rscale>
<asrwt>0</asrwt>
<pdfrwt beam="1">  1       21 0.29424413E-02 0.11525531E+03</pdfrwt>
<pdfrwt beam="2">  1       21 0.10960333E+00 0.11525531E+03</pdfrwt>
<totfact> 0.43766123E+05</totfact>
</mgrwt>
</event>
<event>
 5    1  0.1590180E+000  0.6545003E+02  0.7546771E-02  0.1376287E+00
         21   -1    0    0  503  502  0.00000000000E+00  0.00000000000E+00  0.32032570040E+02  0.32032570040E+02  0.00000000000E+00 0.  1.
         21   -1    0    0  501  503 -0.00000000000E+00 -0.00000000000E+00 -0.16466729356E+03  0.16466729356E+03  0.00000000000E+00 0. -1.
         24    1    1    2    0    0 -0.59151184725E+01 -0.17788739472E+02 -0.39654678121E+02  0.91603151309E+02  0.80419002446E+02 0.  1.
          1    1    1    2  501    0  0.23230832864E+02 -0.36985012277E+00 -0.53374748215E+02  0.58212302237E+02  0.00000000000E+00 0. -1.
         -2    1    1    2    0  502 -0.17315714391E+02  0.18158589595E+02 -0.39605297182E+02  0.46884410051E+02  0.00000000000E+00 0.  1.
<mgrwt>
<rscale>  2 0.65450029E+02</rscale>
<asrwt>0</asrwt>
<pdfrwt beam="1">  1       21 0.49280879E-02 0.65450029E+02</pdfrwt>
<pdfrwt beam="2">  1       21 0.25333429E-01 0.65450029E+02</pdfrwt>
<totfact> 0.38700498E+06</totfact>
</mgrwt>
</event>
<event>
 5    1  0.1590180E+000  0.9281301E+02  0.7546771E-02  0.1296179E+00
         21   -1    0    0  501  502  0.00000000000E+00  0.00000000000E+00  0.61036642816E+02  0.61036642816E+02  0.00000000000E+00 0. -1.
         21   -1    0    0  502  503 -0.00000000000E+00 -0.00000000000E+00 -0.47971520369E+03  0.47971520369E+03  0.00000000000E+00 0.  1.
         24    1    1    2    0    0 -0.17150796237E+02  0.38381188433E+02 -0.60531523813E+02  0.10908046006E+03  0.80419002446E+02 0. -1.
          1    1    1    2  501    0 -0.58093408715E+01 -0.61807637874E+02  0.92915733044E+01  0.62771537143E+02  0.00000000000E+00 0. -1.
         -2    1    1    2    0  503  0.22960137109E+02  0.23426449441E+02 -0.36743861037E+03  0.36889984931E+03  0.00000000000E+00 0.  1.
<mgrwt>
<rscale>  2 0.92813010E+02</rscale>
<asrwt>0</asrwt>
<pdfrwt beam="1">  1       21 0.93902530E-02 0.92813010E+02</pdfrwt>
<pdfrwt beam="2">  1       21 0.73802337E-01 0.92813010E+02</pdfrwt>
<totfact> 0.15473231E+05</totfact>
</mgrwt>
</event>
<event>
 5    1  0.1590180E+000  0.8839053E+02  0.7546771E-02  0.1306797E+00
         21   -1    0    0  501  502  0.00000000000E+00  0.00000000000E+00  0.51572722612E+02  0.51572722612E+02  0.00000000000E+00 0. -1.
         21   -1    0    0  502  503 -0.00000000000E+00 -0.00000000000E+00 -0.35848596118E+03  0.35848596118E+03  0.00000000000E+00 0.  1.
         24    1    1    2    0    0 -0.21635412927E+02  0.33173925667E+02 -0.12315213668E+03  0.15232289769E+03  0.80419002446E+02 0.  1.
          1    1    1    2  501    0 -0.12119221086E+02  0.20452186833E+02  0.27980549002E+02  0.36716189732E+02  0.00000000000E+00 0. -1.
         -2    1    1    2    0  503  0.33754634013E+02 -0.53626112500E+02 -0.21174165088E+03  0.22101959637E+03  0.00000000000E+00 0.  1.
<mgrwt>
<rscale>  2 0.88390531E+02</rscale>
<asrwt>0</asrwt>
<pdfrwt beam="1">  1       21 0.79342651E-02 0.88390531E+02</pdfrwt>
<pdfrwt beam="2">  1       21 0.55151686E-01 0.88390531E+02</pdfrwt>
<totfact> 0.38402820E+05</totfact>
</mgrwt>
</event>
<event>
 5    1  0.1590180E+000  0.1091731E+03  0.7546771E-02  0.1262109E+00
         21   -1    0    0  501  502  0.00000000000E+00  0.00000000000E+00  0.16609966449E+03  0.16609966449E+03  0.00000000000E+00 0. -1.
         21   -1    0    0  502  503 -0.00000000000E+00 -0.00000000000E+00 -0.10122376433E+03  0.10122376433E+03  0.00000000000E+00 0.  1.
         24    1    1    2    0    0 -0.20430212189E+02  0.53073267777E+02  0.49977321607E+02  0.11044959915E+03  0.80419002446E+02 0. -1.
          1    1    1    2  501    0  0.86857987332E+01 -0.85201508413E+02  0.56811870370E+02  0.10277319082E+03  0.00000000000E+00 0. -1.
         -2    1    1    2    0  503  0.11744413455E+02  0.32128240635E+02 -0.41913291818E+02  0.54100638857E+02  0.00000000000E+00 0.  1.
<mgrwt>
<rscale>  2 0.10917311E+03</rscale>
<asrwt>0</asrwt>
<pdfrwt beam="1">  1       21 0.25553795E-01 0.10917311E+03</pdfrwt>
<pdfrwt beam="2">  1       21 0.15572887E-01 0.10917311E+03</pdfrwt>
<totfact> 0.53660375E+05</totfact>
</mgrwt>
</event>
<event>
 5    1  0.1590180E+000  0.1027350E+03  0.7546771E-02  0.1274647E+00
         21   -1    0    0  503  502  0.00000000000E+00  0.00000000000E+00  0.16462701112E+03  0.16462701112E+03  0.00000000000E+00 0.  1.
         21   -1    0    0  501  503 -0.00000000000E+00 -0.00000000000E+00 -0.66861340262E+02  0.66861340262E+02  0.00000000000E+00 0.  1.
         24    1    1    2    0    0 -0.64157104307E+02 -0.16264729026E+02  0.70717389032E+02  0.12589217811E+03  0.80419002446E+02 0.  1.
          1    1    1    2  501    0 -0.41881229877E+01  0.31099446298E+02  0.25132060977E+01  0.31480662939E+02  0.00000000000E+00 0. -1.
         -2    1    1    2    0  502  0.68345227295E+02 -0.14834717272E+02  0.24535075723E+02  0.74115510328E+02  0.00000000000E+00 0.  1.
<mgrwt>
<rscale>  2 0.10273504E+03</rscale>
<asrwt>0</asrwt>
<pdfrwt beam="1">  1       21 0.25327232E-01 0.10273504E+03</pdfrwt>
<pdfrwt beam="2">  1       21 0.10286360E-01 0.10273504E+03</pdfrwt>
<totfact> 0.11363328E+06</totfact>
</mgrwt>
</event>
<event>
 5    1  0.1590180E+000  0.9718348E+02  0.7546771E-02  0.1286333E+00
         21   -1    0    0  501  502  0.00000000000E+00  0.00000000000E+00  0.18578007760E+02  0.18578007760E+02  0.00000000000E+00 0.  1.
         21   -1    0    0  502  503 -0.00000000000E+00 -0.00000000000E+00 -0.11488162041E+04  0.11488162041E+04  0.00000000000E+00 0. -1.
         24    1    1    2    0    0 -0.64783000859E+02  0.11272673806E+02 -0.27877154979E+03  0.29749740050E+03  0.80419002446E+02 0.  0.
          1    1    1    2  501    0  0.63463059977E+02  0.14156821504E+02 -0.10848634067E+03  0.12648028181E+03  0.00000000000E+00 0. -1.
         -2    1    1    2    0  503  0.13199408827E+01 -0.25429495310E+02 -0.74298030593E+03  0.74341652960E+03  0.00000000000E+00 0.  1.
<mgrwt>
<rscale>  2 0.97183480E+02</rscale>
<asrwt>0</asrwt>
<pdfrwt beam="1">  1       21 0.28581548E-02 0.97183480E+02</pdfrwt>
<pdfrwt beam="2">  1       21 0.17674097E+00 0.97183480E+02</pdfrwt>
<totfact> 0.13843799E+05</totfact>
</mgrwt>
</event>
<event>
 5    1  0.1590180E+000  0.9462467E+02  0.7546771E-02  0.1292024E+00
         21   -1    0    0  501  502  0.00000000000E+00  0.00000000000E+00  0.36195324914E+02  0.36195324914E+02  0.00000000000E+00 0. -1.
         21   -1    0    0  502  503 -0.00000000000E+00 -0.00000000000E+00 -0.47712353942E+03  0.47712353942E+03  0.00000000000E+00 0. -1.
         24    1    1    2    0    0  0.39214920947E+02  0.65508946673E+02 -0.19015164148E+03  0.22012290846E+03  0.80419002446E+02 0. -1.
          1    1    1    2  501    0 -0.14952917881E+02 -0.41976591222E+02 -0.46983681666E+01  0.44807350147E+02  0.00000000000E+00 0. -1.
         -2    1    1    2    0  503 -0.24262003066E+02 -0.23532355451E+02 -0.24607820487E+03  0.24838860573E+03  0.00000000000E+00 0.  1.
<mgrwt>
<rscale>  2 0.94624672E+02</rscale>
<asrwt>0</asrwt>
<pdfrwt beam="1">  1       21 0.55685115E-02 0.94624672E+02</pdfrwt>
<pdfrwt beam="2">  1       21 0.73403622E-01 0.94624672E+02</pdfrwt>
<totfact> 0.38045303E+05</totfact>
</mgrwt>
</event>
<event>
 5    1  0.1590180E+000  0.1042058E+03  0.7546771E-02  0.1271692E+00
         21   -1    0    0  501  502  0.00000000000E+00  0.00000000000E+00  0.69473780505E+02  0.69473780505E+02  0.00000000000E+00 0. -1.
         21   -1    0    0  502  503 -0.00000000000E+00 -0.00000000000E+00 -0.29406940669E+03  0.29406940669E+03  0.00000000000E+00 0.  1.
         24    1    1    2    0    0  0.69330235729E+02 -0.30873963274E+02 -0.12276405168E+03  0.16522140156E+03  0.80419002446E+02 0.  1.
          1    1    1    2  501    0 -0.41635087287E+02 -0.14995614897E+02  0.31703455439E+02  0.54437652836E+02  0.00000000000E+00 0. -1.
         -2    1    1    2    0  503 -0.27695148441E+02  0.45869578171E+02 -0.13353502995E+03  0.14388413280E+03  0.00000000000E+00 0.  1.
<mgrwt>
<rscale>  2 0.10420577E+03</rscale>
<asrwt>0</asrwt>
<pdfrwt beam="1">  1       21 0.10688274E-01 0.10420577E+03</pdfrwt>
<pdfrwt beam="2">  1       21 0.45241448E-01 0.10420577E+03</pdfrwt>
<totfact> 0.34355987E+05</totfact>
</mgrwt>
</event>
<event>
 5    1  0.1590180E+000  0.7394436E+02  0.7546771E-02  0.1347172E+00
         21   -1    0    0  501  502  0.00000000000E+00  0.00000000000E+00  0.56629462102E+02  0.56629462102E+02  0.00000000000E+00 0. -1.
         21   -1    0    0  502  503 -0.00000000000E+00 -0.00000000000E+00 -0.14077600981E+03  0.14077600981E+03  0.00000000000E+00 0.  1.
         24    1    1    2    0    0  0.51596340329E+01  0.18950239907E+02 -0.78178258252E+02  0.11386302927E+03  0.80419002446E+02 0.  1.
          1    1    1    2  501    0 -0.32364586556E+02 -0.19703935049E+02  0.22573291883E+02  0.44105158721E+02  0.00000000000E+00 0. -1.
         -2    1    1    2    0  503  0.27204952523E+02  0.75369514200E+00 -0.28541581344E+02  0.39437283930E+02  0.00000000000E+00 0.  1.
<mgrwt>
<rscale>  2 0.73944359E+02</rscale>
<asrwt>0</asrwt>
<pdfrwt beam="1">  1       21 0.87122250E-02 0.73944359E+02</pdfrwt>
<pdfrwt beam="2">  1       21 0.21657848E-01 0.73944359E+02</pdfrwt>
<totfact> 0.20024817E+06</totfact>
</mgrwt>
</event>
<event>
 5    1  0.1590180E+000  0.7985041E+02  0.7546771E-02  0.1329476E+00
         21   -1    0    0  503  502  0.00000000000E+00  0.00000000000E+00  0.20518522351E+03  0.20518522351E+03  0.00000000000E+00 0.  1.
         21   -1    0    0  501  503 -0.00000000000E+00 -0.00000000000E+00 -0.65262815512E+02  0.65262815512E+02  0.00000000000E+00 0. -1.
         24    1    1    2    0    0  0.43742730719E+02 -0.58541517393E+01  0.41805238784E+02  0.10080967973E+03  0.80419002446E+02 0.  1.
          1    1    1    2  501    0 -0.31013923698E+02  0.28415825210E+02 -0.21506148818E+02  0.47242322366E+02  0.00000000000E+00 0. -1.
         -2    1    1    2    0  502 -0.12728807021E+02 -0.22561673471E+02  0.11962331804E+03  0.12239603693E+03  0.00000000000E+00 0.  1.
<mgrwt>
<rscale>  2 0.79850409E+02</rscale>
<asrwt>0</asrwt>
<pdfrwt beam="1">  1       21 0.31566957E-01 0.79850409E+02</pdfrwt>
<pdfrwt beam="2">  1       21 0.10040433E-01 0.79850409E+02</pdfrwt>
<totfact> 0.77703453E+05</totfact>
</mgrwt>
</event>
<event>
 5    1  0.1590180E+000  0.6649231E+02  0.7546771E-02  0.1372444E+00
         21   -1    0    0  501  502  0.00000000000E+00  0.00000000000E+00  0.31782874332E+02  0.31782874332E+02  0.00000000000E+00 0.  1.
         21   -1    0    0  502  503 -0.00000000000E+00 -0.00000000000E+00 -0.29117502613E+03  0.29117502613E+03  0.00000000000E+00 0. -1.
         24    1    1    2    0    0  0.28143759543E+02  0.77489835216E+01 -0.33611787792E+02  0.91918910893E+02  0.80419002446E+02 0.  1.
          1    1    1    2  501    0 -0.22220571959E+02  0.13074703587E+02 -0.93098922265E+02  0.96602852023E+02  0.00000000000E+00 0. -1.
         -2    1    1    2    0  503 -0.59231875832E+01 -0.20823687108E+02 -0.13268144174E+03  0.13443613755E+03  0.00000000000E+00 0.  1.
<mgrwt>
<rscale>  2 0.66492314E+02</rscale>
<asrwt>0</asrwt>
<pdfrwt beam="1">  1       21 0.48896732E-02 0.66492314E+02</pdfrwt>
<pdfrwt beam="2">  1       21 0.44796155E-01 0.66492314E+02</pdfrwt>
<totfact> 0.13138985E+06</totfact>
</mgrwt>
</event>
<event>
 5    1  0.1590180E+000  0.6469441E+02  0.7546771E-02  0.1379125E+00
         21   -1    0    0  503  502  0.00000000000E+00  0.00000000000E+00  0.10204854415E+03  0.10204854415E+03  0.00000000000E+00 0. -1.
         21   -1    0    0  501  503 -0.00000000000E+00 -0.00000000000E+00 -0.72478629131E+02  0.72478629131E+02  0.00000000000E+00 0.  1.
         24    1    1    2    0    0  0.49729733442E+01  0.12224605944E+02 -0.39356269244E+02  0.90500294682E+02  0.80419002446E+02 0.  1.
          1    1    1    2  501    0 -0.25505511038E+02 -0.93306161917E+01  0.35604039435E+02  0.44779896337E+02  0.00000000000E+00 0. -1.
         -2    1    1    2    0  502  0.20532537694E+02 -0.28939897526E+01  0.33322144829E+02  0.39246982265E+02  0.00000000000E+00 0.  1.
<mgrwt>
<rscale>  2 0.64694414E+02</rscale>
<asrwt>0</asrwt>
<pdfrwt beam="1">  1       21 0.15699776E-01 0.64694414E+02</pdfrwt>
<pdfrwt beam="2">  1       21 0.11150558E-01 0.64694414E+02</pdfrwt>
<totfact> 0.23244083E+06</totfact>
</mgrwt>
</event>
<event>
 5    1  0.1590180E+000  0.1078518E+03  0.7546771E-02  0.1264601E+00
         21   -1    0    0  503  502  0.00000000000E+00  0.00000000000E+00  0.36389300610E+02  0.36389300610E+02  0.00000000000E+00 0.  1.
         21   -1    0    0  501  503 -0.00000000000E+00 -0.00000000000E+00 -0.11562666272E+04  0.11562666272E+04  0.00000000000E+00 0. -1.
         24    1    1    2    0    0  0.67577258444E+02 -0.15087978485E+02 -0.80904429935E+03  0.81597440353E+03  0.80419002446E+02 0. -1.
          1    1    1    2  501    0 -0.87981297218E+02  0.14518603390E+02 -0.33406201164E+03  0.34575847947E+03  0.00000000000E+00 0. -1.
         -2    1    1    2    0  502  0.20404038775E+02  0.56937509553E+00  0.23228984378E+02  0.30923044830E+02  0.00000000000E+00 0.  1.
<mgrwt>
<rscale>  2 0.10785180E+03</rscale>
<asrwt>0</asrwt>
<pdfrwt beam="1">  1       21 0.55983541E-02 0.10785180E+03</pdfrwt>
<pdfrwt beam="2">  1       21 0.17788717E+00 0.10785180E+03</pdfrwt>
<totfact> 0.44398151E+04</totfact>
</mgrwt>
</event>
<event>
 5    1  0.1590180E+000  0.9907455E+02  0.7546771E-02  0.1282254E+00
         21   -1    0    0  503  502  0.00000000000E+00  0.00000000000E+00  0.63864600363E+03  0.63864600363E+03  0.00000000000E+00 0.  1.
         21   -1    0    0  501  503 -0.00000000000E+00 -0.00000000000E+00 -0.33822648911E+02  0.33822648911E+02  0.00000000000E+00 0. -1.
         24    1    1    2    0    0  0.54191582755E+02 -0.22721164133E+02  0.17231374618E+03  0.19902819402E+03  0.80419002446E+02 0. -1.
          1    1    1    2  501    0 -0.24768591235E+02  0.51652913331E+02  0.22795160966E+02  0.61653271859E+02  0.00000000000E+00 0. -1.
         -2    1    1    2    0  502 -0.29422991519E+02 -0.28931749199E+02  0.40971444758E+03  0.41178718666E+03  0.00000000000E+00 0.  1.
<mgrwt>
<rscale>  2 0.99074553E+02</rscale>
<asrwt>0</asrwt>
<pdfrwt beam="1">  1       21 0.98253222E-01 0.99074553E+02</pdfrwt>
<pdfrwt beam="2">  1       21 0.52034849E-02 0.99074553E+02</pdfrwt>
<totfact> 0.22147818E+05</totfact>
</mgrwt>
</event>
<event>
 5    1  0.1590180E+000  0.1122622E+03  0.7546771E-02  0.1256437E+00
         21   -1    0    0  501  502  0.00000000000E+00  0.00000000000E+00  0.22824464584E+03  0.22824464584E+03  0.00000000000E+00 0. -1.
         21   -1    0    0  502  503 -0.00000000000E+00 -0.00000000000E+00 -0.11599091237E+03  0.11599091237E+03  0.00000000000E+00 0.  1.
         24    1    1    2    0    0 -0.23691117944E+02 -0.24356685263E+02 -0.56571219730E+02  0.10402901539E+03  0.80419002446E+02 0.  0.
          1    1    1    2  501    0 -0.52663257350E+02  0.30088734906E+02  0.14935496854E+03  0.16120067392E+03  0.00000000000E+00 0. -1.
         -2    1    1    2    0  503  0.76354375294E+02 -0.57320496431E+01  0.19469984654E+02  0.79005868909E+02  0.00000000000E+00 0.  1.
<mgrwt>
<rscale>  2 0.11226224E+03</rscale>
<asrwt>0</asrwt>
<pdfrwt beam="1">  1       21 0.35114561E-01 0.11226224E+03</pdfrwt>
<pdfrwt beam="2">  1       21 0.17844756E-01 0.11226224E+03</pdfrwt>
<totfact> 0.22761742E+05</totfact>
</mgrwt>
</event>
<event>
 5    1  0.1590180E+000  0.8884646E+02  0.7546771E-02  0.1305669E+00
         21   -1    0    0  501  502  0.00000000000E+00  0.00000000000E+00  0.50354730690E+03  0.50354730690E+03  0.00000000000E+00 0. -1.
         21   -1    0    0  502  503 -0.00000000000E+00 -0.00000000000E+00 -0.91766071751E+02  0.91766071751E+02  0.00000000000E+00 0. -1.
         24    1    1    2    0    0  0.33282277293E+02 -0.53121610544E+02 -0.58239386032E+02  0.11742511456E+03  0.80419002446E+02 0. -1.
          1    1    1    2  501    0 -0.92952940563E+00  0.41258418786E+02  0.36575582252E+03  0.36807668067E+03  0.00000000000E+00 0. -1.
         -2    1    1    2    0  503 -0.32352747888E+02  0.11863191758E+02  0.10426479867E+03  0.10981158343E+03  0.00000000000E+00 0.  1.
<mgrwt>
<rscale>  2 0.88846465E+02</rscale>
<asrwt>0</asrwt>
<pdfrwt beam="1">  1       21 0.77468815E-01 0.88846465E+02</pdfrwt>
<pdfrwt beam="2">  1       21 0.14117857E-01 0.88846465E+02</pdfrwt>
<totfact> 0.68308707E+04</totfact>
</mgrwt>
</event>
<event>
 5    1  0.1590180E+000  0.9281726E+02  0.7546771E-02  0.1296169E+00
         21   -1    0    0  501  502  0.00000000000E+00  0.00000000000E+00  0.12110699097E+04  0.12110699097E+04  0.00000000000E+00 0. -1.
         21   -1    0    0  502  503 -0.00000000000E+00 -0.00000000000E+00 -0.62499494039E+02  0.62499494039E+02  0.00000000000E+00 0.  1.
         24    1    1    2    0    0  0.46908994177E+02 -0.58985724153E+02  0.50892934445E+03  0.52072647617E+03  0.80419002446E+02 0.  0.
          1    1    1    2  501    0 -0.29722327358E+02  0.39608918514E+02  0.69234756732E+03  0.69411629944E+03  0.00000000000E+00 0. -1.
         -2    1    1    2    0  503 -0.17186666819E+02  0.19376805639E+02 -0.52706496138E+02  0.58726628102E+02  0.00000000000E+00 0.  1.
<mgrwt>
<rscale>  2 0.92817258E+02</rscale>
<asrwt>0</asrwt>
<pdfrwt beam="1">  1       21 0.18631843E+00 0.92817258E+02</pdfrwt>
<pdfrwt beam="2">  1       21 0.96153077E-02 0.92817258E+02</pdfrwt>
<totfact> 0.15820443E+04</totfact>
</mgrwt>
</event>
<event>
 5    1  0.1590180E+000  0.8180360E+02  0.7546771E-02  0.1324010E+00
         21   -1    0    0  501  502  0.00000000000E+00  0.00000000000E+00  0.45564112910E+02  0.45564112910E+02  0.00000000000E+00 0. -1.
         21   -1    0    0  502  503 -0.00000000000E+00 -0.00000000000E+00 -0.87535248699E+03  0.87535248699E+03  0.00000000000E+00 0.  1.
         24    1    1    2    0    0  0.15354082174E+02  0.36570462050E+02 -0.14315874187E+03  0.16892243150E+03  0.80419002446E+02 0.  1.
          1    1    1    2  501    0  0.21648497852E+02  0.37253845788E+00  0.28033191212E+02  0.35421124399E+02  0.00000000000E+00 0. -1.
         -2    1    1    2    0  503 -0.37002580026E+02 -0.36943000508E+02 -0.71466282342E+03  0.71657304401E+03  0.00000000000E+00 0.  1.
<mgrwt>
<rscale>  2 0.81803605E+02</rscale>
<asrwt>0</asrwt>
<pdfrwt beam="1">  1       21 0.70098641E-02 0.81803605E+02</pdfrwt>
<pdfrwt beam="2">  1       21 0.13466960E+00 0.81803605E+02</pdfrwt>
<totfact> 0.63907247E+04</totfact>
</mgrwt>
</event>
<event>
 5    1  0.1590180E+000  0.7757496E+02  0.7546771E-02  0.1336078E+00
         21   -1    0    0  503  502  0.00000000000E+00  0.00000000000E+00  0.22919464776E+04  0.22919464776E+04  0.00000000000E+00 0. -1.
         21   -1    0    0  501  503 -0.00000000000E+00 -0.00000000000E+00 -0.93104296910E+01  0.93104296910E+01  0.00000000000E+00 0.  1.
         24    1    1    2    0    0  0.12859660535E+02 -0.25440044901E+02  0.20676716018E+04  0.20694312348E+04  0.80419002446E+02 0. -1.
          1    1    1    2  501    0  0.17627654042E+02  0.33882437368E+02  0.45369430233E+02  0.59305471491E+02  0.00000000000E+00 0. -1.
         -2    1    1    2    0  502 -0.30487314576E+02 -0.84423924673E+01  0.16959501589E+03  0.17252020101E+03  0.00000000000E+00 0.  1.
<mgrwt>
<rscale>  2 0.77574958E+02</rscale>
<asrwt>0</asrwt>
<pdfrwt beam="1">  1       21 0.35260670E+00 0.77574958E+02</pdfrwt>
<pdfrwt beam="2">  1       21 0.14323756E-02 0.77574958E+02</pdfrwt>
<totfact> 0.42549571E+04</totfact>
</mgrwt>
</event>
<event>
 5    1  0.1590180E+000  0.1077555E+03  0.7546771E-02  0.1264784E+00
         21   -1    0    0  501  502  0.00000000000E+00  0.00000000000E+00  0.64813214782E+02  0.64813214782E+02  0.00000000000E+00 0.  1.
         21   -1    0    0  502  503 -0.00000000000E+00 -0.00000000000E+00 -0.31235694476E+03  0.31235694476E+03  0.00000000000E+00 0.  1.
         24    1    1    2    0    0  0.48034127437E+02  0.48576975926E+02 -0.21852117439E+03  0.24266379953E+03  0.80419002446E+02 0.  1.
          1    1    1    2  501    0  0.18900682381E+02 -0.37709221822E+02  0.23906012996E+02  0.48484210443E+02  0.00000000000E+00 0. -1.
         -2    1    1    2    0  503 -0.66934809819E+02 -0.10867754104E+02 -0.52928568579E+02  0.86022149570E+02  0.00000000000E+00 0.  1.
<mgrwt>
<rscale>  2 0.10775547E+03</rscale>
<asrwt>0</asrwt>
<pdfrwt beam="1">  1       21 0.99712638E-02 0.10775547E+03</pdfrwt>
<pdfrwt beam="2">  1       21 0.48054915E-01 0.10775547E+03</pdfrwt>
<totfact> 0.34289697E+05</totfact>
</mgrwt>
</event>
<event>
 5    1  0.1590180E+000  0.6762730E+02  0.7546771E-02  0.1368353E+00
         21   -1    0    0  501  502  0.00000000000E+00  0.00000000000E+00  0.33546855788E+03  0.33546855788E+03  0.00000000000E+00 0. -1.
         21   -1    0    0  502  503 -0.00000000000E+00 -0.00000000000E+00 -0.47582871487E+02  0.47582871487E+02  0.00000000000E+00 0.  1.
         24    1    1    2    0    0  0.80520039527E+01  0.15940802551E+02  0.11880461394E+03  0.14457073079E+03  0.80419002446E+02 0. -1.
          1    1    1    2  501    0 -0.29062339967E+02 -0.61924838373E+01  0.19868386174E+03  0.20089361208E+03  0.00000000000E+00 0. -1.
         -2    1    1    2    0  503  0.21010336014E+02 -0.97483187137E+01 -0.29602789289E+02  0.37587086491E+02  0.00000000000E+00 0.  1.
<mgrwt>
<rscale>  2 0.67627297E+02</rscale>
<asrwt>0</asrwt>
<pdfrwt beam="1">  1       21 0.51610546E-01 0.67627297E+02</pdfrwt>
<pdfrwt beam="2">  1       21 0.73204420E-02 0.67627297E+02</pdfrwt>
<totfact> 0.50463335E+05</totfact>
</mgrwt>
</event>
<event>
 5    1  0.1590180E+000  0.1011722E+03  0.7546771E-02  0.1277850E+00
         21   -1    0    0  503  502  0.00000000000E+00  0.00000000000E+00  0.31566233331E+03  0.31566233331E+03  0.00000000000E+00 0.  1.
         21   -1    0    0  501  503 -0.00000000000E+00 -0.00000000000E+00 -0.60188533237E+02  0.60188533237E+02  0.00000000000E+00 0.  1.
         24    1    1    2    0    0 -0.59873713847E+02 -0.54435601816E+02  0.25851053083E+02  0.11697687487E+03  0.80419002446E+02 0.  1.
          1    1    1    2  501    0  0.35908105284E+01  0.24014581880E+02  0.43191191741E+01  0.24662701668E+02  0.00000000000E+00 0. -1.
         -2    1    1    2    0  502  0.56282903318E+02  0.30421019935E+02  0.22530362782E+03  0.23421129001E+03  0.00000000000E+00 0.  1.
<mgrwt>
<rscale>  2 0.10117219E+03</rscale>
<asrwt>0</asrwt>
<pdfrwt beam="1">  1       21 0.48563435E-01 0.10117219E+03</pdfrwt>
<pdfrwt beam="2">  1       21 0.92597745E-02 0.10117219E+03</pdfrwt>
<totfact> 0.38194893E+05</totfact>
</mgrwt>
</event>
<event>
 5    1  0.1590180E+000  0.7654111E+02  0.7546771E-02  0.1339164E+00
         21   -1    0    0  501  502  0.00000000000E+00  0.00000000000E+00  0.40350229831E+02  0.40350229831E+02  0.00000000000E+00 0.  1.
         21   -1    0    0  502  503 -0.00000000000E+00 -0.00000000000E+00 -0.19755354180E+03  0.19755354180E+03  0.00000000000E+00 0.  1.
         24    1    1    2    0    0 -0.11773054967E+02 -0.43630830230E+01 -0.11542666562E+03  0.14123799916E+03  0.80419002446E+02 0. -1.
          1    1    1    2  501    0  0.38290937668E+02  0.17494239815E+02  0.38606722005E+01  0.42274686564E+02  0.00000000000E+00 0. -1.
         -2    1    1    2    0  503 -0.26517882701E+02 -0.13131156792E+02 -0.45637318547E+02  0.54391085904E+02  0.00000000000E+00 0.  1.
<mgrwt>
<rscale>  2 0.76541113E+02</rscale>
<asrwt>0</asrwt>
<pdfrwt beam="1">  1       21 0.62077277E-02 0.76541113E+02</pdfrwt>
<pdfrwt beam="2">  1       21 0.30392852E-01 0.76541113E+02</pdfrwt>
<totfact> 0.18899113E+06</totfact>
</mgrwt>
</event>
<event>
 5    1  0.1590180E+000  0.8669286E+02  0.7546771E-02  0.1311064E+00
         21   -1    0    0  501  502  0.00000000000E+00  0.00000000000E+00  0.38622570495E+03  0.38622570495E+03  0.00000000000E+00 0. -1.
         21   -1    0    0  502  503 -0.00000000000E+00 -0.00000000000E+00 -0.33894465092E+02  0.33894465092E+02  0.00000000000E+00 0. -1.
         24    1    1    2    0    0  0.63508232699E+02 -0.24110778187E+02  0.15505933794E+03  0.18741728704E+03  0.80419002446E+02 0. -1.
          1    1    1    2  501    0 -0.41503298008E+02  0.13184843994E+02  0.20288151697E+03  0.20750246694E+03  0.00000000000E+00 0. -1.
         -2    1    1    2    0  503 -0.22004934691E+02  0.10925934193E+02 -0.56096150518E+01  0.25200416063E+02  0.00000000000E+00 0.  1.
<mgrwt>
<rscale>  2 0.86692859E+02</rscale>
<asrwt>0</asrwt>
<pdfrwt beam="1">  1       21 0.59419336E-01 0.86692859E+02</pdfrwt>
<pdfrwt beam="2">  1       21 0.52145334E-02 0.86692859E+02</pdfrwt>
<totfact> 0.66709501E+05</totfact>
</mgrwt>
</event>
<event>
 5    1  0.1590180E+000  0.8903392E+02  0.7546771E-02  0.1305208E+00
         21   -1    0    0  501  502  0.00000000000E+00  0.00000000000E+00  0.12847749449E+03  0.12847749449E+03  0.00000000000E+00 0. -1.
         21   -1    0    0  502  503 -0.00000000000E+00 -0.00000000000E+00 -0.20377246138E+03  0.20377246138E+03  0.00000000000E+00 0. -1.
         24    1    1    2    0    0 -0.37499165616E+02  0.64927258367E+01 -0.17202579558E+03  0.19367094054E+03  0.80419002446E+02 0. -1.
          1    1    1    2  501    0  0.15182300904E+02  0.37121465244E+02  0.74860194542E+02  0.84926757677E+02  0.00000000000E+00 0. -1.
         -2    1    1    2    0  503  0.22316864712E+02 -0.43614191081E+02  0.21870634144E+02  0.53652257661E+02  0.00000000000E+00 0.  1.
<mgrwt>
<rscale>  2 0.89033925E+02</rscale>
<asrwt>0</asrwt>
<pdfrwt beam="1">  1       21 0.19765768E-01 0.89033925E+02</pdfrwt>
<pdfrwt beam="2">  1       21 0.31349609E-01 0.89033925E+02</pdfrwt>
<totfact> 0.23666530E+05</totfact>
</mgrwt>
</event>
<event>
 5    1  0.1590180E+000  0.8128086E+02  0.7546771E-02  0.1325455E+00
         21   -1    0    0  503  502  0.00000000000E+00  0.00000000000E+00  0.51100977178E+01  0.51100977178E+01  0.00000000000E+00 0.  1.
         21   -1    0    0  501  503 -0.00000000000E+00 -0.00000000000E+00 -0.16062048678E+04  0.16062048678E+04  0.00000000000E+00 0. -1.
         24    1    1    2    0    0 -0.26064486846E+02  0.15728729667E+02 -0.76264999572E+03  0.76748223584E+03  0.80419002446E+02 0. -1.
          1    1    1    2  501    0  0.50465719579E+02 -0.12189406845E+02 -0.75598368258E+03  0.75776427655E+03  0.00000000000E+00 0. -1.
         -2    1    1    2    0  502 -0.24401232733E+02 -0.35393228215E+01 -0.82461091824E+02  0.86068453163E+02  0.00000000000E+00 0.  1.
<mgrwt>
<rscale>  2 0.81280857E+02</rscale>
<asrwt>0</asrwt>
<pdfrwt beam="1">  1       21 0.78616731E-03 0.81280857E+02</pdfrwt>
<pdfrwt beam="2">  1       21 0.24710893E+00 0.81280857E+02</pdfrwt>
<totfact> 0.40851423E+05</totfact>
</mgrwt>
</event>
<event>
 5    1  0.1590180E+000  0.8532011E+02  0.7546771E-02  0.1314598E+00
         21   -1    0    0  503  502  0.00000000000E+00  0.00000000000E+00  0.27686446691E+02  0.27686446691E+02  0.00000000000E+00 0.  1.
         21   -1    0    0  501  503 -0.00000000000E+00 -0.00000000000E+00 -0.28096556489E+03  0.28096556489E+03  0.00000000000E+00 0.  1.
         24    1    1    2    0    0 -0.66462862820E+01 -0.50066940662E+02 -0.10839851893E+03  0.14411220118E+03  0.80419002446E+02 0.  1.
          1    1    1    2  501    0  0.20545266223E+02 -0.30507964392E+01 -0.59572358180E+02  0.63089469661E+02  0.00000000000E+00 0. -1.
         -2    1    1    2    0  502 -0.13898979941E+02  0.53117737101E+02 -0.85308241084E+02  0.10145034073E+03  0.00000000000E+00 0.  1.
<mgrwt>
<rscale>  2 0.85320107E+02</rscale>
<asrwt>0</asrwt>
<pdfrwt beam="1">  1       21 0.42594532E-02 0.85320107E+02</pdfrwt>
<pdfrwt beam="2">  1       21 0.43225472E-01 0.85320107E+02</pdfrwt>
<totfact> 0.17869402E+06</totfact>
</mgrwt>
</event>
<event>
 5    1  0.1590180E+000  0.1268236E+03  0.7546771E-02  0.1232246E+00
         21   -1    0    0  503  502  0.00000000000E+00  0.00000000000E+00  0.26188847675E+02  0.26188847675E+02  0.00000000000E+00 0.  1.
         21   -1    0    0  501  503 -0.00000000000E+00 -0.00000000000E+00 -0.65994968391E+03  0.65994968391E+03  0.00000000000E+00 0. -1.
         24    1    1    2    0    0  0.12119962194E+02  0.49778264284E+02 -0.25401531857E+03  0.27132225692E+03  0.80419002446E+02 0.  1.
          1    1    1    2  501    0 -0.80230564948E+02 -0.39454001845E+02 -0.27734929526E+03  0.29140383216E+03  0.00000000000E+00 0. -1.
         -2    1    1    2    0  502  0.68110602754E+02 -0.10324262438E+02 -0.10239622240E+03  0.12341244250E+03  0.00000000000E+00 0.  1.
<mgrwt>
<rscale>  2 0.12682363E+03</rscale>
<asrwt>0</asrwt>
<pdfrwt beam="1">  1       21 0.40290536E-02 0.12682363E+03</pdfrwt>
<pdfrwt beam="2">  1       21 0.10153072E+00 0.12682363E+03</pdfrwt>
<totfact> 0.31174920E+05</totfact>
</mgrwt>
</event>
<event>
 5    1  0.1590180E+000  0.1644600E+03  0.7546771E-02  0.1183751E+00
         21   -1    0    0  503  502  0.00000000000E+00  0.00000000000E+00  0.19599446331E+04  0.19599446331E+04  0.00000000000E+00 0.  1.
         21   -1    0    0  501  503 -0.00000000000E+00 -0.00000000000E+00 -0.14411592090E+02  0.14411592090E+02  0.00000000000E+00 0.  1.
         24    1    1    2    0    0  0.11494336227E+03 -0.89774399724E+02  0.99079331875E+03  0.10046940011E+04  0.80419002446E+02 0.  1.
          1    1    1    2  501    0 -0.14726521190E+01  0.37343346393E+02  0.12207686861E+03  0.12766932315E+03  0.00000000000E+00 0. -1.
         -2    1    1    2    0  502 -0.11347071015E+03  0.52431053331E+02  0.83266285369E+03  0.84199290100E+03  0.00000000000E+00 0.  1.
<mgrwt>
<rscale>  2 0.16446002E+03</rscale>
<asrwt>0</asrwt>
<pdfrwt beam="1">  1       21 0.30152973E+00 0.16446002E+03</pdfrwt>
<pdfrwt beam="2">  1       21 0.22171696E-02 0.16446002E+03</pdfrwt>
<totfact> 0.35791319E+04</totfact>
</mgrwt>
</event>
<event>
 5    1  0.1590180E+000  0.1013443E+03  0.7546771E-02  0.1277494E+00
         21   -1    0    0  501  502  0.00000000000E+00  0.00000000000E+00  0.30877573995E+02  0.30877573995E+02  0.00000000000E+00 0. -1.
         21   -1    0    0  502  503 -0.00000000000E+00 -0.00000000000E+00 -0.51176061711E+03  0.51176061711E+03  0.00000000000E+00 0.  1.
         24    1    1    2    0    0  0.61767162312E+02  0.68945152962E+01 -0.15803128220E+03  0.18789310469E+03  0.80419002446E+02 0.  1.
          1    1    1    2  501    0 -0.26450227075E+02 -0.43039719537E+02 -0.32591400300E+02  0.60118477556E+02  0.00000000000E+00 0. -1.
         -2    1    1    2    0  503 -0.35316935237E+02  0.36145204241E+02 -0.29026036061E+03  0.29462660886E+03  0.00000000000E+00 0.  1.
<mgrwt>
<rscale>  2 0.10134434E+03</rscale>
<asrwt>0</asrwt>
<pdfrwt beam="1">  1       21 0.47503967E-02 0.10134434E+03</pdfrwt>
<pdfrwt beam="2">  1       21 0.78732391E-01 0.10134434E+03</pdfrwt>
<totfact> 0.42495959E+05</totfact>
</mgrwt>
</event>
<event>
 5    1  0.1590180E+000  0.7915923E+02  0.7546771E-02  0.1331454E+00
         21   -1    0    0  501  502  0.00000000000E+00  0.00000000000E+00  0.12017374844E+03  0.12017374844E+03  0.00000000000E+00 0. -1.
         21   -1    0    0  502  503 -0.00000000000E+00 -0.00000000000E+00 -0.19038078962E+03  0.19038078962E+03  0.00000000000E+00 0. -1.
         24    1    1    2    0    0  0.14089095187E+02  0.11564952166E-01 -0.12671552120E+03  0.15073998144E+03  0.80419002446E+02 0. -1.
          1    1    1    2  501    0  0.19914915790E+02  0.26787715745E+02  0.95737941325E+02  0.10139003400E+03  0.00000000000E+00 0. -1.
         -2    1    1    2    0  503 -0.34004010977E+02 -0.26799280698E+02 -0.39229461303E+02  0.58424522613E+02  0.00000000000E+00 0.  1.
<mgrwt>
<rscale>  2 0.79159235E+02</rscale>
<asrwt>0</asrwt>
<pdfrwt beam="1">  1       21 0.18488269E-01 0.79159235E+02</pdfrwt>
<pdfrwt beam="2">  1       21 0.29289352E-01 0.79159235E+02</pdfrwt>
<totfact> 0.30484584E+05</totfact>
</mgrwt>
</event>
<event>
 5    1  0.1590180E+000  0.1097314E+03  0.7546771E-02  0.1261068E+00
         21   -1    0    0  501  502  0.00000000000E+00  0.00000000000E+00  0.15543734761E+03  0.15543734761E+03  0.00000000000E+00 0. -1.
         21   -1    0    0  502  503 -0.00000000000E+00 -0.00000000000E+00 -0.25706958667E+03  0.25706958667E+03  0.00000000000E+00 0.  1.
         24    1    1    2    0    0  0.24430146989E+02 -0.76172387696E+02 -0.14126775837E+03  0.18117080404E+03  0.80419002446E+02 0.  1.
          1    1    1    2  501    0 -0.21979372944E+02 -0.68133482664E+01  0.11616540429E+03  0.11842261483E+03  0.00000000000E+00 0. -1.
         -2    1    1    2    0  503 -0.24507740454E+01  0.82985735963E+02 -0.76529884977E+02  0.11291351541E+03  0.00000000000E+00 0.  1.
<mgrwt>
<rscale>  2 0.10973136E+03</rscale>
<asrwt>0</asrwt>
<pdfrwt beam="1">  1       21 0.23913438E-01 0.10973136E+03</pdfrwt>
<pdfrwt beam="2">  1       21 0.39549167E-01 0.10973136E+03</pdfrwt>
<totfact> 0.10493317E+05</totfact>
</mgrwt>
</event>
<event>
 5    1  0.1590180E+000  0.6753148E+02  0.7546771E-02  0.1368694E+00
         21   -1    0    0  503  502  0.00000000000E+00  0.00000000000E+00  0.27320461750E+03  0.27320461750E+03  0.00000000000E+00 0. -1.
         21   -1    0    0  501  503 -0.00000000000E+00 -0.00000000000E+00 -0.19673098785E+02  0.19673098785E+02  0.00000000000E+00 0.  1.
         24    1    1    2    0    0 -0.25206003350E+02  0.16563220805E+02  0.13927653675E+03  0.16363023111E+03  0.80419002446E+02 0.  0.
          1    1    1    2  501    0  0.24825182124E+02  0.68538474256E+01  0.21400632928E+02  0.33485100892E+02  0.00000000000E+00 0. -1.
         -2    1    1    2    0  502  0.38082122676E+00 -0.23417068231E+02  0.92854349034E+02  0.95762384285E+02  0.00000000000E+00 0.  1.
<mgrwt>
<rscale>  2 0.67531485E+02</rscale>
<asrwt>0</asrwt>
<pdfrwt beam="1">  1       21 0.42031477E-01 0.67531485E+02</pdfrwt>
<pdfrwt beam="2">  1       21 0.30266308E-02 0.67531485E+02</pdfrwt>
<totfact> 0.32612758E+06</totfact>
</mgrwt>
</event>
<event>
 5    1  0.1590180E+000  0.1431564E+03  0.7546771E-02  0.1209144E+00
         21   -1    0    0  501  502  0.00000000000E+00  0.00000000000E+00  0.67773146648E+02  0.67773146648E+02  0.00000000000E+00 0. -1.
         21   -1    0    0  502  503 -0.00000000000E+00 -0.00000000000E+00 -0.50482474383E+03  0.50482474383E+03  0.00000000000E+00 0. -1.
         24    1    1    2    0    0  0.33845335143E+02  0.85699070038E+02 -0.18154104602E+03  0.21889313525E+03  0.80419002446E+02 0. -1.
          1    1    1    2  501    0 -0.40203765203E+02 -0.12133131572E+03 -0.38206295805E+02  0.13340671628E+03  0.00000000000E+00 0. -1.
         -2    1    1    2    0  503  0.63584300594E+01  0.35632245681E+02 -0.21730425535E+03  0.22029803893E+03  0.00000000000E+00 0.  1.
<mgrwt>
<rscale>  2 0.14315645E+03</rscale>
<asrwt>0</asrwt>
<pdfrwt beam="1">  1       21 0.10426638E-01 0.14315645E+03</pdfrwt>
<pdfrwt beam="2">  1       21 0.77665348E-01 0.14315645E+03</pdfrwt>
<totfact> 0.11292766E+05</totfact>
</mgrwt>
</event>
<event>
 5    1  0.1590180E+000  0.7235712E+02  0.7546771E-02  0.1352256E+00
         21   -1    0    0  501  502  0.00000000000E+00  0.00000000000E+00  0.22983799241E+03  0.22983799241E+03  0.00000000000E+00 0. -1.
         21   -1    0    0  502  503 -0.00000000000E+00 -0.00000000000E+00 -0.85621739895E+02  0.85621739895E+02  0.00000000000E+00 0.  1.
         24    1    1    2    0    0 -0.12839128845E+02  0.96823617022E+01  0.71933169263E+02  0.10908798354E+03  0.80419002446E+02 0.  1.
          1    1    1    2  501    0  0.85719458882E+01  0.25685897985E+02  0.13313387559E+03  0.13585975284E+03  0.00000000000E+00 0. -1.
         -2    1    1    2    0  503  0.42671829569E+01 -0.35368259687E+02 -0.60850792330E+02  0.70511995936E+02  0.00000000000E+00 0.  1.
<mgrwt>
<rscale>  2 0.72357119E+02</rscale>
<asrwt>0</asrwt>
<pdfrwt beam="1">  1       21 0.35359691E-01 0.72357119E+02</pdfrwt>
<pdfrwt beam="2">  1       21 0.13172575E-01 0.72357119E+02</pdfrwt>
<totfact> 0.38909559E+05</totfact>
</mgrwt>
</event>
<event>
 5    1  0.1590180E+000  0.1011787E+03  0.7546771E-02  0.1277837E+00
         21   -1    0    0  501  502  0.00000000000E+00  0.00000000000E+00  0.78061002651E+03  0.78061002651E+03  0.00000000000E+00 0. -1.
         21   -1    0    0  502  503 -0.00000000000E+00 -0.00000000000E+00 -0.18239336857E+03  0.18239336857E+03  0.00000000000E+00 0.  1.
         24    1    1    2    0    0 -0.13876197523E+02 -0.49562388778E+02  0.10592896222E+03  0.14260834559E+03  0.80419002446E+02 0.  1.
          1    1    1    2  501    0 -0.34780104097E+01 -0.27584982529E+02  0.64649647589E+03  0.64709405897E+03  0.00000000000E+00 0. -1.
         -2    1    1    2    0  503  0.17354207933E+02  0.77147371307E+02 -0.15420878018E+03  0.17330099052E+03  0.00000000000E+00 0.  1.
<mgrwt>
<rscale>  2 0.10117867E+03</rscale>
<asrwt>0</asrwt>
<pdfrwt beam="1">  1       21 0.12009385E+00 0.10117867E+03</pdfrwt>
<pdfrwt beam="2">  1       21 0.28060519E-01 0.10117867E+03</pdfrwt>
<totfact> 0.69813843E+03</totfact>
</mgrwt>
</event>
<event>
 5    1  0.2758241E+000  0.7974645E+02  0.7546771E-02  0.1329773E+00
         21   -1    0    0  503  502  0.00000000000E+00  0.00000000000E+00  0.55726968126E+02  0.55726968126E+02  0.00000000000E+00 0. -1.
         21   -1    0    0  501  503 -0.00000000000E+00 -0.00000000000E+00 -0.61857733687E+03  0.61857733687E+03  0.00000000000E+00 0. -1.
         24    1    1    2    0    0  0.50259455092E+02 -0.29307688225E+02  0.49215139986E+01  0.99380031544E+02  0.80419002446E+02 0. -1.
          1    1    1    2  501    0 -0.28972378398E+02  0.25528627153E+02 -0.52998265156E+03  0.53138754264E+03  0.00000000000E+00 0. -1.
         -2    1    1    2    0  502 -0.21287076694E+02  0.37790610725E+01 -0.37789231179E+02  0.43536730813E+02  0.00000000000E+00 0.  1.
<mgrwt>
<rscale>  2 0.79746451E+02</rscale>
<asrwt>0</asrwt>
<pdfrwt beam="1">  1       21 0.85733800E-02 0.79746451E+02</pdfrwt>
<pdfrwt beam="2">  1       21 0.95165740E-01 0.79746451E+02</pdfrwt>
<totfact> 0.10340693E+05</totfact>
</mgrwt>
</event>
<event>
 5    1  0.1590180E+000  0.8923650E+02  0.7546771E-02  0.1304711E+00
         21   -1    0    0  501  502  0.00000000000E+00  0.00000000000E+00  0.51515226032E+02  0.51515226032E+02  0.00000000000E+00 0. -1.
         21   -1    0    0  502  503 -0.00000000000E+00 -0.00000000000E+00 -0.28119141816E+03  0.28119141816E+03  0.00000000000E+00 0. -1.
         24    1    1    2    0    0  0.32761216190E+02 -0.58755763735E+02 -0.18590374393E+03  0.21343138246E+03  0.80419002446E+02 0. -1.
          1    1    1    2  501    0 -0.32787151792E+02  0.28708887505E+02  0.20624253853E+02  0.48213663949E+02  0.00000000000E+00 0. -1.
         -2    1    1    2    0  503  0.25935602014E-01  0.30046876230E+02 -0.64396702052E+02  0.71061597779E+02  0.00000000000E+00 0.  1.
<mgrwt>
<rscale>  2 0.89236501E+02</rscale>
<asrwt>0</asrwt>
<pdfrwt beam="1">  1       21 0.79254193E-02 0.89236501E+02</pdfrwt>
<pdfrwt beam="2">  1       21 0.43260219E-01 0.89236501E+02</pdfrwt>
<totfact> 0.63060098E+05</totfact>
</mgrwt>
</event>
<event>
 5    1  0.1590180E+000  0.1181074E+03  0.7546771E-02  0.1246252E+00
         21   -1    0    0  503  502  0.00000000000E+00  0.00000000000E+00  0.17783977633E+03  0.17783977633E+03  0.00000000000E+00 0.  1.
         21   -1    0    0  501  503 -0.00000000000E+00 -0.00000000000E+00 -0.25064759104E+03  0.25064759104E+03  0.00000000000E+00 0.  1.
         24    1    1    2    0    0 -0.22908001593E+02  0.26427737022E+02 -0.95751790448E+02  0.12984153091E+03  0.80419002446E+02 0.  1.
          1    1    1    2  501    0 -0.11646721234E+02 -0.82139948613E+02 -0.11739436466E+03  0.14374997087E+03  0.00000000000E+00 0. -1.
         -2    1    1    2    0  502  0.34554722827E+02  0.55712211591E+02  0.14033834040E+03  0.15489586559E+03  0.00000000000E+00 0.  1.
<mgrwt>
<rscale>  2 0.11810739E+03</rscale>
<asrwt>0</asrwt>
<pdfrwt beam="1">  1       21 0.27359966E-01 0.11810739E+03</pdfrwt>
<pdfrwt beam="2">  1       21 0.38561168E-01 0.11810739E+03</pdfrwt>
<totfact> 0.85236909E+04</totfact>
</mgrwt>
</event>
<event>
 5    1  0.1590180E+000  0.1163572E+03  0.7546771E-02  0.1249230E+00
         21   -1    0    0  501  502  0.00000000000E+00  0.00000000000E+00  0.32321387231E+02  0.32321387231E+02  0.00000000000E+00 0.  1.
         21   -1    0    0  502  503 -0.00000000000E+00 -0.00000000000E+00 -0.42871732480E+03  0.42871732480E+03  0.00000000000E+00 0. -1.
         24    1    1    2    0    0 -0.16091772466E+02 -0.46260156493E+01 -0.14890305453E+03  0.17005787475E+03  0.80419002446E+02 0.  1.
          1    1    1    2  501    0  0.49361089752E+02  0.65011400178E+02 -0.10796843129E+03  0.13535206496E+03  0.00000000000E+00 0. -1.
         -2    1    1    2    0  503 -0.33269317285E+02 -0.60385384529E+02 -0.13952445175E+03  0.15562877232E+03  0.00000000000E+00 0.  1.
<mgrwt>
<rscale>  2 0.11635725E+03</rscale>
<asrwt>0</asrwt>
<pdfrwt beam="1">  1       21 0.49725210E-02 0.11635725E+03</pdfrwt>
<pdfrwt beam="2">  1       21 0.65956513E-01 0.11635725E+03</pdfrwt>
<totfact> 0.57844366E+05</totfact>
</mgrwt>
</event>
<event>
 5    1  0.1590180E+000  0.9219137E+02  0.7546771E-02  0.1297630E+00
         21   -1    0    0  503  502  0.00000000000E+00  0.00000000000E+00  0.43832798595E+03  0.43832798595E+03  0.00000000000E+00 0. -1.
         21   -1    0    0  501  503 -0.00000000000E+00 -0.00000000000E+00 -0.19659560238E+02  0.19659560238E+02  0.00000000000E+00 0.  1.
         24    1    1    2    0    0  0.57296262341E+02  0.31564910000E+02  0.26096904952E+03  0.28080467586E+03  0.80419002446E+02 0.  0.
          1    1    1    2  501    0 -0.50657315357E+02 -0.23002273969E+01  0.10227821088E+03  0.11415904285E+03  0.00000000000E+00 0. -1.
         -2    1    1    2    0  502 -0.66389469835E+01 -0.29264682604E+02  0.55421165317E+02  0.63023827478E+02  0.00000000000E+00 0.  1.
<mgrwt>
<rscale>  2 0.92191373E+02</rscale>
<asrwt>0</asrwt>
<pdfrwt beam="1">  1       21 0.67435067E-01 0.92191373E+02</pdfrwt>
<pdfrwt beam="2">  1       21 0.30245481E-02 0.92191373E+02</pdfrwt>
<totfact> 0.12512833E+06</totfact>
</mgrwt>
</event>
<event>
 5    1  0.1590180E+000  0.6794845E+02  0.7546771E-02  0.1367212E+00
         21   -1    0    0  501  502  0.00000000000E+00  0.00000000000E+00  0.31974492269E+03  0.31974492269E+03  0.00000000000E+00 0.  1.
         21   -1    0    0  502  503 -0.00000000000E+00 -0.00000000000E+00 -0.52352310827E+02  0.52352310827E+02  0.00000000000E+00 0.  1.
         24    1    1    2    0    0 -0.22681272990E+02  0.25150074386E+02  0.15470355159E+03  0.17761579664E+03  0.80419002446E+02 0.  1.
          1    1    1    2  501    0  0.21807967468E+02  0.16062518330E+01  0.14831499340E+03  0.14991832695E+03  0.00000000000E+00 0. -1.
         -2    1    1    2    0  503  0.87330552262E+00 -0.26756326219E+02 -0.35625933124E+02  0.44563109925E+02  0.00000000000E+00 0.  1.
<mgrwt>
<rscale>  2 0.67948449E+02</rscale>
<asrwt>0</asrwt>
<pdfrwt beam="1">  1       21 0.49191526E-01 0.67948449E+02</pdfrwt>
<pdfrwt beam="2">  1       21 0.80542018E-02 0.67948449E+02</pdfrwt>
<totfact> 0.47327714E+05</totfact>
</mgrwt>
</event>
<event>
 5    1  0.1590180E+000  0.6515562E+02  0.7546771E-02  0.1377387E+00
         21   -1    0    0  501  502  0.00000000000E+00  0.00000000000E+00  0.57705591821E+03  0.57705591821E+03  0.00000000000E+00 0.  1.
         21   -1    0    0  502  503 -0.00000000000E+00 -0.00000000000E+00 -0.24336890354E+02  0.24336890354E+02  0.00000000000E+00 0.  1.
         24    1    1    2    0    0 -0.11841592989E+02 -0.13690134260E+01  0.15773457345E+03  0.17745283638E+03  0.80419002446E+02 0. -1.
          1    1    1    2  501    0  0.59194206518E+01 -0.23095728941E+02  0.39788803321E+03  0.39860173006E+03  0.00000000000E+00 0. -1.
         -2    1    1    2    0  503  0.59221723371E+01  0.24464742367E+02 -0.29035788017E+01  0.25338242128E+02  0.00000000000E+00 0.  1.
<mgrwt>
<rscale>  2 0.65155624E+02</rscale>
<asrwt>0</asrwt>
<pdfrwt beam="1">  1       21 0.88777823E-01 0.65155624E+02</pdfrwt>
<pdfrwt beam="2">  1       21 0.37441374E-02 0.65155624E+02</pdfrwt>
<totfact> 0.48301715E+05</totfact>
</mgrwt>
</event>
<event>
 5    1  0.1590180E+000  0.6994777E+02  0.7546771E-02  0.1360271E+00
         21   -1    0    0  501  502  0.00000000000E+00  0.00000000000E+00  0.33781027536E+03  0.33781027536E+03  0.00000000000E+00 0. -1.
         21   -1    0    0  502  503 -0.00000000000E+00 -0.00000000000E+00 -0.36542509588E+02  0.36542509588E+02  0.00000000000E+00 0.  1.
         24    1    1    2    0    0  0.16145131287E+02  0.45761805050E+01  0.25596188715E+03  0.26882207931E+03  0.80419002446E+02 0. -1.
          1    1    1    2  501    0 -0.32541904855E+02 -0.17424500924E+02  0.66345630766E+02  0.75923194913E+02  0.00000000000E+00 0. -1.
         -2    1    1    2    0  503  0.16396773567E+02  0.12848320420E+02 -0.21039752150E+02  0.29607510729E+02  0.00000000000E+00 0.  1.
<mgrwt>
<rscale>  2 0.69947775E+02</rscale>
<asrwt>0</asrwt>
<pdfrwt beam="1">  1       21 0.51970810E-01 0.69947775E+02</pdfrwt>
<pdfrwt beam="2">  1       21 0.56219248E-02 0.69947775E+02</pdfrwt>
<totfact> 0.77428028E+05</totfact>
</mgrwt>
</event>
<event>
 5    1  0.1590180E+000  0.6530183E+02  0.7546771E-02  0.1376840E+00
         21   -1    0    0  503  502  0.00000000000E+00  0.00000000000E+00  0.21224471314E+02  0.21224471314E+02  0.00000000000E+00 0.  1.
         21   -1    0    0  501  503 -0.00000000000E+00 -0.00000000000E+00 -0.30493616227E+03  0.30493616227E+03  0.00000000000E+00 0. -1.
         24    1    1    2    0    0  0.13299709821E+01  0.80028243633E+01 -0.76186699206E+02  0.11107404337E+03  0.80419002446E+02 0.  1.
          1    1    1    2  501    0 -0.24557745174E+02 -0.98850653522E+01 -0.15977715963E+03  0.16195535837E+03  0.00000000000E+00 0. -1.
         -2    1    1    2    0  502  0.23227774192E+02  0.18822409888E+01 -0.47747832115E+02  0.53131231839E+02  0.00000000000E+00 0.  1.
<mgrwt>
<rscale>  2 0.65301825E+02</rscale>
<asrwt>0</asrwt>
<pdfrwt beam="1">  1       21 0.32653033E-02 0.65301825E+02</pdfrwt>
<pdfrwt beam="2">  1       21 0.46913256E-01 0.65301825E+02</pdfrwt>
<totfact> 0.23142991E+06</totfact>
</mgrwt>
</event>
<event>
 5    1  0.1590180E+000  0.1982268E+03  0.7546771E-02  0.1151244E+00
         21   -1    0    0  503  502  0.00000000000E+00  0.00000000000E+00  0.31664480025E+03  0.31664480025E+03  0.00000000000E+00 0.  1.
         21   -1    0    0  501  503 -0.00000000000E+00 -0.00000000000E+00 -0.36766187126E+03  0.36766187126E+03  0.00000000000E+00 0. -1.
         24    1    1    2    0    0 -0.27328276802E+02  0.12086169427E+03 -0.11280120527E+03  0.18586476729E+03  0.80419002446E+02 0. -1.
          1    1    1    2  501    0  0.10448539220E+03  0.10093400424E+01 -0.18507274548E+03  0.21253267294E+03  0.00000000000E+00 0. -1.
         -2    1    1    2    0  502 -0.77157115394E+02 -0.12187103432E+03  0.24685687974E+03  0.28590923129E+03  0.00000000000E+00 0.  1.
<mgrwt>
<rscale>  2 0.19822684E+03</rscale>
<asrwt>0</asrwt>
<pdfrwt beam="1">  1       21 0.48714585E-01 0.19822684E+03</pdfrwt>
<pdfrwt beam="2">  1       21 0.56563365E-01 0.19822684E+03</pdfrwt>
<totfact> 0.11779463E+04</totfact>
</mgrwt>
</event>
<event>
 5    1  0.1590180E+000  0.6719999E+02  0.7546771E-02  0.1369882E+00
         21   -1    0    0  503  502  0.00000000000E+00  0.00000000000E+00  0.23303490189E+03  0.23303490189E+03  0.00000000000E+00 0. -1.
         21   -1    0    0  501  503 -0.00000000000E+00 -0.00000000000E+00 -0.20416331423E+02  0.20416331423E+02  0.00000000000E+00 0.  1.
         24    1    1    2    0    0 -0.57330046764E+00  0.24730325306E+01  0.12062467311E+03  0.14499645609E+03  0.80419002446E+02 0.  1.
          1    1    1    2  501    0 -0.26469736985E+02 -0.43845107862E+01  0.27144705765E+02  0.38166817551E+02  0.00000000000E+00 0. -1.
         -2    1    1    2    0  502  0.27043037453E+02  0.19114782556E+01  0.64849191598E+02  0.70287959671E+02  0.00000000000E+00 0.  1.
<mgrwt>
<rscale>  2 0.67199989E+02</rscale>
<asrwt>0</asrwt>
<pdfrwt beam="1">  1       21 0.35851521E-01 0.67199989E+02</pdfrwt>
<pdfrwt beam="2">  1       21 0.31409742E-02 0.67199989E+02</pdfrwt>
<totfact> 0.41893685E+06</totfact>
</mgrwt>
</event>
<event>
 5    1  0.1590180E+000  0.7868174E+02  0.7546771E-02  0.1332835E+00
         21   -1    0    0  503  502  0.00000000000E+00  0.00000000000E+00  0.21255723355E+03  0.21255723355E+03  0.00000000000E+00 0.  1.
         21   -1    0    0  501  503 -0.00000000000E+00 -0.00000000000E+00 -0.14125310123E+03  0.14125310123E+03  0.00000000000E+00 0. -1.
         24    1    1    2    0    0  0.22475354803E+01  0.56859812231E+02  0.13040544500E+03  0.16343465270E+03  0.80419002446E+02 0.  1.
          1    1    1    2  501    0 -0.86636912374E+01 -0.29498578559E+02 -0.11969583304E+03  0.12358122078E+03  0.00000000000E+00 0. -1.
         -2    1    1    2    0  502  0.64161557571E+01 -0.27361233672E+02  0.60594520361E+02  0.66794461302E+02  0.00000000000E+00 0.  1.
<mgrwt>
<rscale>  2 0.78681743E+02</rscale>
<asrwt>0</asrwt>
<pdfrwt beam="1">  1       21 0.32701113E-01 0.78681743E+02</pdfrwt>
<pdfrwt beam="2">  1       21 0.21731246E-01 0.78681743E+02</pdfrwt>
<totfact> 0.18397677E+05</totfact>
</mgrwt>
</event>
<event>
 5    1  0.1590180E+000  0.1339339E+03  0.7546771E-02  0.1221733E+00
         21   -1    0    0  503  502  0.00000000000E+00  0.00000000000E+00  0.65893843270E+02  0.65893843270E+02  0.00000000000E+00 0. -1.
         21   -1    0    0  501  503 -0.00000000000E+00 -0.00000000000E+00 -0.36238427078E+03  0.36238427078E+03  0.00000000000E+00 0. -1.
         24    1    1    2    0    0 -0.44664378538E+02  0.11117618392E+03 -0.26338939390E+03  0.30032688750E+03  0.80419002446E+02 0. -1.
          1    1    1    2  501    0  0.47669923141E+02 -0.86979512929E+02 -0.25503326091E+02  0.10241228873E+03  0.00000000000E+00 0. -1.
         -2    1    1    2    0  502 -0.30055446034E+01 -0.24196670988E+02 -0.75977075126E+01  0.25538937814E+02  0.00000000000E+00 0.  1.
<mgrwt>
<rscale>  2 0.13393391E+03</rscale>
<asrwt>0</asrwt>
<pdfrwt beam="1">  1       21 0.10137514E-01 0.13393391E+03</pdfrwt>
<pdfrwt beam="2">  1       21 0.55751426E-01 0.13393391E+03</pdfrwt>
<totfact> 0.24367062E+05</totfact>
</mgrwt>
</event>
<event>
 5    1  0.1590180E+000  0.7319591E+02  0.7546771E-02  0.1349551E+00
         21   -1    0    0  501  502  0.00000000000E+00  0.00000000000E+00  0.81629998597E+03  0.81629998597E+03  0.00000000000E+00 0.  1.
         21   -1    0    0  502  503 -0.00000000000E+00 -0.00000000000E+00 -0.11430172363E+02  0.11430172363E+02  0.00000000000E+00 0. -1.
         24    1    1    2    0    0 -0.35307359083E+02 -0.47852517188E+01  0.26367258629E+03  0.27795675375E+03  0.80419002446E+02 0.  0.
          1    1    1    2  501    0  0.33249928105E+02 -0.16451279194E+02  0.51336731074E+03  0.51470593356E+03  0.00000000000E+00 0. -1.
         -2    1    1    2    0  503  0.20574309779E+01  0.21236530913E+02  0.27829916583E+02  0.35067471030E+02  0.00000000000E+00 0.  1.
<mgrwt>
<rscale>  2 0.73195907E+02</rscale>
<asrwt>0</asrwt>
<pdfrwt beam="1">  1       21 0.12558457E+00 0.73195907E+02</pdfrwt>
<pdfrwt beam="2">  1       21 0.17584887E-02 0.73195907E+02</pdfrwt>
<totfact> 0.72686957E+05</totfact>
</mgrwt>
</event>
<event>
 5    1  0.1590180E+000  0.1069118E+03  0.7546771E-02  0.1266398E+00
         21   -1    0    0  501  502  0.00000000000E+00  0.00000000000E+00  0.72141286474E+03  0.72141286474E+03  0.00000000000E+00 0. -1.
         21   -1    0    0  502  503 -0.00000000000E+00 -0.00000000000E+00 -0.37311995123E+02  0.37311995123E+02  0.00000000000E+00 0.  1.
         24    1    1    2    0    0 -0.35540280398E+02  0.13168665689E+02  0.37526721663E+03  0.38565428187E+03  0.80419002446E+02 0. -1.
          1    1    1    2  501    0  0.56188076827E+02  0.39278173285E+02  0.30919552585E+03  0.31670451225E+03  0.00000000000E+00 0. -1.
         -2    1    1    2    0  503 -0.20647796428E+02 -0.52446838974E+02 -0.36187286680E+00  0.56366065746E+02  0.00000000000E+00 0.  1.
<mgrwt>
<rscale>  2 0.10691176E+03</rscale>
<asrwt>0</asrwt>
<pdfrwt beam="1">  1       21 0.11098658E+00 0.10691176E+03</pdfrwt>
<pdfrwt beam="2">  1       21 0.57403075E-02 0.10691176E+03</pdfrwt>
<totfact> 0.14067188E+05</totfact>
</mgrwt>
</event>
<event>
 5    1  0.1590180E+000  0.6776319E+02  0.7546771E-02  0.1367869E+00
         21   -1    0    0  501  502  0.00000000000E+00  0.00000000000E+00  0.66006273788E+03  0.66006273788E+03  0.00000000000E+00 0. -1.
         21   -1    0    0  502  503 -0.00000000000E+00 -0.00000000000E+00 -0.16250521545E+02  0.16250521545E+02  0.00000000000E+00 0.  1.
         24    1    1    2    0    0  0.26349786043E+02  0.17233523265E+02  0.38934741503E+03  0.39881064567E+03  0.80419002446E+02 0. -1.
          1    1    1    2  501    0 -0.23290791244E+02  0.73248834192E+01  0.25138001046E+03  0.25256291203E+03  0.00000000000E+00 0. -1.
         -2    1    1    2    0  503 -0.30589947986E+01 -0.24558406684E+02  0.30847908469E+01  0.24939701735E+02  0.00000000000E+00 0.  1.
<mgrwt>
<rscale>  2 0.67763192E+02</rscale>
<asrwt>0</asrwt>
<pdfrwt beam="1">  1       21 0.10154809E+00 0.67763192E+02</pdfrwt>
<pdfrwt beam="2">  1       21 0.25000807E-02 0.67763192E+02</pdfrwt>
<totfact> 0.68401675E+05</totfact>
</mgrwt>
</event>
<event>
 5    1  0.1590180E+000  0.8483681E+02  0.7546771E-02  0.1315860E+00
         21   -1    0    0  501  502  0.00000000000E+00  0.00000000000E+00  0.73973381294E+02  0.73973381294E+02  0.00000000000E+00 0. -1.
         21   -1    0    0  502  503 -0.00000000000E+00 -0.00000000000E+00 -0.14962140161E+03  0.14962140161E+03  0.00000000000E+00 0.  1.
         24    1    1    2    0    0  0.23258515605E+02  0.38225865420E+02  0.23617860619E+02  0.95011549981E+02  0.80419002446E+02 0. -1.
          1    1    1    2  501    0  0.16102426514E+02 -0.34542625808E+02 -0.28740906719E+02  0.47733854405E+02  0.00000000000E+00 0. -1.
         -2    1    1    2    0  503 -0.39360942119E+02 -0.36832396114E+01 -0.70524974219E+02  0.80849378521E+02  0.00000000000E+00 0.  1.
<mgrwt>
<rscale>  2 0.84836812E+02</rscale>
<asrwt>0</asrwt>
<pdfrwt beam="1">  1       21 0.11380520E-01 0.84836812E+02</pdfrwt>
<pdfrwt beam="2">  1       21 0.23018677E-01 0.84836812E+02</pdfrwt>
<totfact> 0.11340255E+06</totfact>
</mgrwt>
</event>
<event>
 5    1  0.1590180E+000  0.8199911E+02  0.7546771E-02  0.1323472E+00
         21   -1    0    0  503  502  0.00000000000E+00  0.00000000000E+00  0.26934453122E+03  0.26934453122E+03  0.00000000000E+00 0. -1.
         21   -1    0    0  501  503 -0.00000000000E+00 -0.00000000000E+00 -0.80727149301E+02  0.80727149301E+02  0.00000000000E+00 0. -1.
         24    1    1    2    0    0 -0.21953388498E+02 -0.43575318041E+01  0.16225369837E+03  0.18246758051E+03  0.80419002446E+02 0. -1.
          1    1    1    2  501    0  0.51176918248E+02  0.23725439141E+01 -0.58538603716E+02  0.77791220912E+02  0.00000000000E+00 0. -1.
         -2    1    1    2    0  502 -0.29223529750E+02  0.19849878901E+01  0.84902287265E+02  0.89812879092E+02  0.00000000000E+00 0.  1.
<mgrwt>
<rscale>  2 0.81999114E+02</rscale>
<asrwt>0</asrwt>
<pdfrwt beam="1">  1       21 0.41437620E-01 0.81999114E+02</pdfrwt>
<pdfrwt beam="2">  1       21 0.12419562E-01 0.81999114E+02</pdfrwt>
<totfact> 0.31598480E+05</totfact>
</mgrwt>
</event>
<event>
 5    1  0.1590180E+000  0.1282029E+03  0.7546771E-02  0.1230147E+00
         21   -1    0    0  503  502  0.00000000000E+00  0.00000000000E+00  0.39382578845E+03  0.39382578845E+03  0.00000000000E+00 0.  1.
         21   -1    0    0  501  503 -0.00000000000E+00 -0.00000000000E+00 -0.76719053533E+02  0.76719053533E+02  0.00000000000E+00 0.  1.
         24    1    1    2    0    0  0.38710281358E+02 -0.10735674294E+03  0.11883550962E+02  0.14011563394E+03  0.80419002446E+02 0.  1.
          1    1    1    2  501    0 -0.17940319057E+02  0.19419009520E+02  0.26528525477E+02  0.37452845587E+02  0.00000000000E+00 0. -1.
         -2    1    1    2    0  502 -0.20769962302E+02  0.87937733418E+02  0.27869465848E+03  0.29297636246E+03  0.00000000000E+00 0.  1.
<mgrwt>
<rscale>  2 0.12820289E+03</rscale>
<asrwt>0</asrwt>
<pdfrwt beam="1">  1       21 0.60588582E-01 0.12820289E+03</pdfrwt>
<pdfrwt beam="2">  1       21 0.11802931E-01 0.12820289E+03</pdfrwt>
<totfact> 0.15660444E+05</totfact>
</mgrwt>
</event>
<event>
 5    1  0.1590180E+000  0.6902914E+02  0.7546771E-02  0.1363426E+00
         21   -1    0    0  501  502  0.00000000000E+00  0.00000000000E+00  0.44127817627E+02  0.44127817627E+02  0.00000000000E+00 0. -1.
         21   -1    0    0  502  503 -0.00000000000E+00 -0.00000000000E+00 -0.17855280161E+03  0.17855280161E+03  0.00000000000E+00 0.  1.
         24    1    1    2    0    0  0.38069753958E+02 -0.14676402978E+02 -0.10287971888E+03  0.13680700085E+03  0.80419002446E+02 0. -1.
          1    1    1    2  501    0 -0.15418320475E+02  0.19361144522E+02  0.18394422481E+02  0.30837206454E+02  0.00000000000E+00 0. -1.
         -2    1    1    2    0  503 -0.22651433483E+02 -0.46847415438E+01 -0.49939687589E+02  0.55036411935E+02  0.00000000000E+00 0.  1.
<mgrwt>
<rscale>  2 0.69029142E+02</rscale>
<asrwt>0</asrwt>
<pdfrwt beam="1">  1       21 0.67888950E-02 0.69029142E+02</pdfrwt>
<pdfrwt beam="2">  1       21 0.27469662E-01 0.69029142E+02</pdfrwt>
<totfact> 0.19593712E+06</totfact>
</mgrwt>
</event>
<event>
 5    1  0.1590180E+000  0.7406599E+02  0.7546771E-02  0.1346788E+00
         21   -1    0    0  501  502  0.00000000000E+00  0.00000000000E+00  0.69463054570E+02  0.69463054570E+02  0.00000000000E+00 0. -1.
         21   -1    0    0  502  503 -0.00000000000E+00 -0.00000000000E+00 -0.18227090374E+03  0.18227090374E+03  0.00000000000E+00 0.  1.
         24    1    1    2    0    0 -0.37761305469E+02 -0.11522400551E+02  0.29443332091E+02  0.94301684312E+02  0.80419002446E+02 0. -1.
          1    1    1    2  501    0  0.18136462262E+02 -0.16375607397E+02 -0.23583790091E+02  0.33960078564E+02  0.00000000000E+00 0. -1.
         -2    1    1    2    0  503  0.19624843206E+02  0.27898007948E+02 -0.11866739117E+03  0.12347219544E+03  0.00000000000E+00 0.  1.
<mgrwt>
<rscale>  2 0.74065988E+02</rscale>
<asrwt>0</asrwt>
<pdfrwt beam="1">  1       21 0.10686624E-01 0.74065988E+02</pdfrwt>
<pdfrwt beam="2">  1       21 0.28041677E-01 0.74065988E+02</pdfrwt>
<totfact> 0.87232381E+05</totfact>
</mgrwt>
</event>
<event>
 5    1  0.1590180E+000  0.6288334E+02  0.7546771E-02  0.1386115E+00
         21   -1    0    0  501  502  0.00000000000E+00  0.00000000000E+00  0.63409698886E+01  0.63409698886E+01  0.00000000000E+00 0. -1.
         21   -1    0    0  502  503 -0.00000000000E+00 -0.00000000000E+00 -0.10683040252E+04  0.10683040252E+04  0.00000000000E+00 0. -1.
         24    1    1    2    0    0 -0.51125297240E+01 -0.16310214833E+02 -0.71422596202E+03  0.71894234946E+03  0.80419002446E+02 0. -1.
          1    1    1    2  501    0 -0.16577182531E+02  0.14075384355E+02 -0.29139229298E+02  0.36359511954E+02  0.00000000000E+00 0. -1.
         -2    1    1    2    0  503  0.21689712255E+02  0.22348304778E+01 -0.31859786402E+03  0.31934313370E+03  0.00000000000E+00 0.  1.
<mgrwt>
<rscale>  2 0.62883342E+02</rscale>
<asrwt>0</asrwt>
<pdfrwt beam="1">  1       21 0.97553393E-03 0.62883342E+02</pdfrwt>
<pdfrwt beam="2">  1       21 0.16435445E+00 0.62883342E+02</pdfrwt>
<totfact> 0.93553867E+05</totfact>
</mgrwt>
</event>
<event>
 5    1  0.1590180E+000  0.8067586E+02  0.7546771E-02  0.1327144E+00
         21   -1    0    0  501  502  0.00000000000E+00  0.00000000000E+00  0.34583267800E+02  0.34583267800E+02  0.00000000000E+00 0.  1.
         21   -1    0    0  502  503 -0.00000000000E+00 -0.00000000000E+00 -0.39045486208E+03  0.39045486208E+03  0.00000000000E+00 0.  1.
         24    1    1    2    0    0 -0.54680224100E+02  0.18896071609E+02 -0.34617392874E+03  0.36007026165E+03  0.80419002446E+02 0.  1.
          1    1    1    2  501    0  0.31324005409E+02 -0.22615041200E+02  0.17879969647E+01  0.38675965877E+02  0.00000000000E+00 0. -1.
         -2    1    1    2    0  503  0.23356218691E+02  0.37189695913E+01 -0.11485662506E+02  0.26291902357E+02  0.00000000000E+00 0.  1.
<mgrwt>
<rscale>  2 0.80675864E+02</rscale>
<asrwt>0</asrwt>
<pdfrwt beam="1">  1       21 0.53205028E-02 0.80675864E+02</pdfrwt>
<pdfrwt beam="2">  1       21 0.60069978E-01 0.80675864E+02</pdfrwt>
<totfact> 0.63029437E+05</totfact>
</mgrwt>
</event>
<event>
 5    1  0.1590180E+000  0.8639794E+02  0.7546771E-02  0.1311817E+00
         21   -1    0    0  501  502  0.00000000000E+00  0.00000000000E+00  0.28021550369E+03  0.28021550369E+03  0.00000000000E+00 0. -1.
         21   -1    0    0  502  503 -0.00000000000E+00 -0.00000000000E+00 -0.28299849766E+02  0.28299849766E+02  0.00000000000E+00 0. -1.
         24    1    1    2    0    0 -0.65857917776E+02  0.73027701048E+01  0.11798860819E+03  0.15741386026E+03  0.80419002446E+02 0. -1.
          1    1    1    2  501    0  0.45542771950E+02 -0.13243236691E+02  0.10540063477E+03  0.11558036687E+03  0.00000000000E+00 0. -1.
         -2    1    1    2    0  503  0.20315145826E+02  0.59404665866E+01  0.28526410968E+02  0.35521126332E+02  0.00000000000E+00 0.  1.
<mgrwt>
<rscale>  2 0.86397941E+02</rscale>
<asrwt>0</asrwt>
<pdfrwt beam="1">  1       21 0.43110076E-01 0.86397941E+02</pdfrwt>
<pdfrwt beam="2">  1       21 0.43538232E-02 0.86397941E+02</pdfrwt>
<totfact> 0.17334689E+06</totfact>
</mgrwt>
</event>
<event>
 5    1  0.1590180E+000  0.7129045E+02  0.7546771E-02  0.1355759E+00
         21   -1    0    0  501  502  0.00000000000E+00  0.00000000000E+00  0.16198419401E+02  0.16198419401E+02  0.00000000000E+00 0. -1.
         21   -1    0    0  502  503 -0.00000000000E+00 -0.00000000000E+00 -0.76928551412E+03  0.76928551412E+03  0.00000000000E+00 0. -1.
         24    1    1    2    0    0  0.22166354477E+02  0.39173594191E+02 -0.65318642190E+03  0.65965569463E+03  0.80419002446E+02 0. -1.
          1    1    1    2  501    0 -0.17953550443E+00 -0.23309432247E+02 -0.10575845095E+01  0.23334102719E+02  0.00000000000E+00 0. -1.
         -2    1    1    2    0  503 -0.21986818972E+02 -0.15864161944E+02 -0.98843088309E+02  0.10249413617E+03  0.00000000000E+00 0.  1.
<mgrwt>
<rscale>  2 0.71290450E+02</rscale>
<asrwt>0</asrwt>
<pdfrwt beam="1">  1       21 0.24920650E-02 0.71290450E+02</pdfrwt>
<pdfrwt beam="2">  1       21 0.11835160E+00 0.71290450E+02</pdfrwt>
<totfact> 0.48090828E+05</totfact>
</mgrwt>
</event>
<event>
 5    1  0.1590180E+000  0.9445018E+02  0.7546771E-02  0.1292419E+00
         21   -1    0    0  503  502  0.00000000000E+00  0.00000000000E+00  0.19839467407E+04  0.19839467407E+04  0.00000000000E+00 0. -1.
         21   -1    0    0  501  503 -0.00000000000E+00 -0.00000000000E+00 -0.18632921837E+02  0.18632921837E+02  0.00000000000E+00 0. -1.
         24    1    1    2    0    0 -0.60727800814E+02 -0.35422292324E+01  0.18703493164E+04  0.18730654539E+04  0.80419002446E+02 0. -1.
          1    1    1    2  501    0  0.55167776270E+02  0.28779418793E+02  0.66878457906E+02  0.91348052068E+02  0.00000000000E+00 0. -1.
         -2    1    1    2    0  502  0.55600245434E+01 -0.25237189560E+02  0.28086044520E+02  0.38166156561E+02  0.00000000000E+00 0.  1.
<mgrwt>
<rscale>  2 0.94450179E+02</rscale>
<asrwt>0</asrwt>
<pdfrwt beam="1">  1       21 0.30522241E+00 0.94450179E+02</pdfrwt>
<pdfrwt beam="2">  1       21 0.28666049E-02 0.94450179E+02</pdfrwt>
<totfact> 0.24730637E+04</totfact>
</mgrwt>
</event>
<event>
 5    1  0.1590180E+000  0.7620119E+02  0.7546771E-02  0.1340191E+00
         21   -1    0    0  503  502  0.00000000000E+00  0.00000000000E+00  0.27186197578E+03  0.27186197578E+03  0.00000000000E+00 0. -1.
         21   -1    0    0  501  503 -0.00000000000E+00 -0.00000000000E+00 -0.41063862888E+02  0.41063862888E+02  0.00000000000E+00 0.  1.
         24    1    1    2    0    0 -0.34433043614E+02 -0.93488543707E+01  0.14198843605E+03  0.16703582699E+03  0.80419002446E+02 0. -1.
          1    1    1    2  501    0  0.17131974915E+01  0.27130311192E+02 -0.18114303359E+02  0.32666754005E+02  0.00000000000E+00 0. -1.
         -2    1    1    2    0  502  0.32719846122E+02 -0.17781456821E+02  0.10692398020E+03  0.11322325768E+03  0.00000000000E+00 0.  1.
<mgrwt>
<rscale>  2 0.76201195E+02</rscale>
<asrwt>0</asrwt>
<pdfrwt beam="1">  1       21 0.41824918E-01 0.76201195E+02</pdfrwt>
<pdfrwt beam="2">  1       21 0.63175175E-02 0.76201195E+02</pdfrwt>
<totfact> 0.98758325E+05</totfact>
</mgrwt>
</event>
<event>
 5    1  0.1590180E+000  0.9473226E+02  0.7546771E-02  0.1291780E+00
         21   -1    0    0  503  502  0.00000000000E+00  0.00000000000E+00  0.18886723113E+03  0.18886723113E+03  0.00000000000E+00 0.  1.
         21   -1    0    0  501  503 -0.00000000000E+00 -0.00000000000E+00 -0.71538977866E+02  0.71538977866E+02  0.00000000000E+00 0.  1.
         24    1    1    2    0    0 -0.15820679711E+02  0.75033722530E+02  0.11382004663E+03  0.15906782324E+03  0.80419002446E+02 0.  1.
          1    1    1    2  501    0  0.50166271248E+01 -0.57714356165E+02 -0.27568468709E+02  0.64157103443E+02  0.00000000000E+00 0. -1.
         -2    1    1    2    0  502  0.10804052587E+02 -0.17319366366E+02  0.31076675352E+02  0.37181282314E+02  0.00000000000E+00 0.  1.
<mgrwt>
<rscale>  2 0.94732264E+02</rscale>
<asrwt>0</asrwt>
<pdfrwt beam="1">  1       21 0.29056497E-01 0.94732264E+02</pdfrwt>
<pdfrwt beam="2">  1       21 0.11005997E-01 0.94732264E+02</pdfrwt>
<totfact> 0.77781734E+05</totfact>
</mgrwt>
</event>
<event>
 5    1  0.1590180E+000  0.7948196E+02  0.7546771E-02  0.1330528E+00
         21   -1    0    0  503  502  0.00000000000E+00  0.00000000000E+00  0.34886449460E+01  0.34886449460E+01  0.00000000000E+00 0. -1.
         21   -1    0    0  501  503 -0.00000000000E+00 -0.00000000000E+00 -0.18584695968E+04  0.18584695968E+04  0.00000000000E+00 0.  1.
         24    1    1    2    0    0 -0.24674536488E+02 -0.12827903955E+02 -0.85226758199E+03  0.85650489499E+03  0.80419002446E+02 0. -1.
          1    1    1    2  501    0 -0.23940294094E+02  0.17036232688E+01 -0.36994002252E+03  0.37071776364E+03  0.00000000000E+00 0. -1.
         -2    1    1    2    0  502  0.48614830581E+02  0.11124280686E+02 -0.63277334734E+03  0.63473558312E+03  0.00000000000E+00 0.  1.
<mgrwt>
<rscale>  2 0.79481960E+02</rscale>
<asrwt>0</asrwt>
<pdfrwt beam="1">  1       21 0.53671506E-03 0.79481960E+02</pdfrwt>
<pdfrwt beam="2">  1       21 0.28591816E+00 0.79481960E+02</pdfrwt>
<totfact> 0.45101205E+05</totfact>
</mgrwt>
</event>
<event>
 5    1  0.1590180E+000  0.1240047E+03  0.7546771E-02  0.1236633E+00
         21   -1    0    0  503  502  0.00000000000E+00  0.00000000000E+00  0.42231302113E+02  0.42231302113E+02  0.00000000000E+00 0. -1.
         21   -1    0    0  501  503 -0.00000000000E+00 -0.00000000000E+00 -0.67145958175E+03  0.67145958175E+03  0.00000000000E+00 0. -1.
         24    1    1    2    0    0 -0.84574817953E+02 -0.49431191929E+02 -0.25653363598E+03  0.28613469714E+03  0.80419002446E+02 0. -1.
          1    1    1    2  501    0  0.82827299873E+02  0.11879321288E+02 -0.38013429436E+03  0.38923458432E+03  0.00000000000E+00 0. -1.
         -2    1    1    2    0  502  0.17475180795E+01  0.37551870641E+02  0.74396507025E+01  0.38321602402E+02  0.00000000000E+00 0.  1.
<mgrwt>
<rscale>  2 0.12400473E+03</rscale>
<asrwt>0</asrwt>
<pdfrwt beam="1">  1       21 0.64971240E-02 0.12400473E+03</pdfrwt>
<pdfrwt beam="2">  1       21 0.10330146E+00 0.12400473E+03</pdfrwt>
<totfact> 0.13419543E+05</totfact>
</mgrwt>
</event>
<event>
 5    1  0.1590180E+000  0.6487864E+02  0.7546771E-02  0.1378429E+00
         21   -1    0    0  501  502  0.00000000000E+00  0.00000000000E+00  0.53603780898E+03  0.53603780898E+03  0.00000000000E+00 0. -1.
         21   -1    0    0  502  503 -0.00000000000E+00 -0.00000000000E+00 -0.11079569221E+02  0.11079569221E+02  0.00000000000E+00 0.  1.
         24    1    1    2    0    0  0.22549903996E+00  0.13049303655E+02  0.28086572826E+03  0.29244334227E+03  0.80419002446E+02 0. -1.
          1    1    1    2  501    0  0.21163288153E+02 -0.16219354794E+02  0.22258537328E+03  0.22417671742E+03  0.00000000000E+00 0. -1.
         -2    1    1    2    0  503 -0.21388787193E+02  0.31700511390E+01  0.21507138230E+02  0.30497318516E+02  0.00000000000E+00 0.  1.
<mgrwt>
<rscale>  2 0.64878642E+02</rscale>
<asrwt>0</asrwt>
<pdfrwt beam="1">  1       21 0.82467335E-01 0.64878642E+02</pdfrwt>
<pdfrwt beam="2">  1       21 0.17045495E-02 0.64878642E+02</pdfrwt>
<totfact> 0.20035512E+06</totfact>
</mgrwt>
</event>
<event>
 5    1  0.1590180E+000  0.6656071E+02  0.7546771E-02  0.1372195E+00
         21   -1    0    0  503  502  0.00000000000E+00  0.00000000000E+00  0.79454147129E+02  0.79454147129E+02  0.00000000000E+00 0. -1.
         21   -1    0    0  501  503 -0.00000000000E+00 -0.00000000000E+00 -0.95535073672E+02  0.95535073672E+02  0.00000000000E+00 0. -1.
         24    1    1    2    0    0 -0.93585951375E+01  0.36567008158E+02  0.41120871247E+01  0.88931741260E+02  0.80419002446E+02 0. -1.
          1    1    1    2  501    0  0.15815666580E+02 -0.15095597891E+02 -0.46565111186E+02  0.51442414065E+02  0.00000000000E+00 0. -1.
         -2    1    1    2    0  502 -0.64570714429E+01 -0.21471410267E+02  0.26372097518E+02  0.34615065477E+02  0.00000000000E+00 0.  1.
<mgrwt>
<rscale>  2 0.66560714E+02</rscale>
<asrwt>0</asrwt>
<pdfrwt beam="1">  1       21 0.12223715E-01 0.66560714E+02</pdfrwt>
<pdfrwt beam="2">  1       21 0.14697704E-01 0.66560714E+02</pdfrwt>
<totfact> 0.22308064E+06</totfact>
</mgrwt>
</event>
<event>
 5    1  0.1590180E+000  0.9393007E+02  0.7546771E-02  0.1293604E+00
         21   -1    0    0  503  502  0.00000000000E+00  0.00000000000E+00  0.23556743114E+03  0.23556743114E+03  0.00000000000E+00 0.  1.
         21   -1    0    0  501  503 -0.00000000000E+00 -0.00000000000E+00 -0.46177891867E+02  0.46177891867E+02  0.00000000000E+00 0.  1.
         24    1    1    2    0    0  0.15894402197E+02 -0.48093603796E+02  0.80489458970E+02  0.12454475383E+03  0.80419002446E+02 0.  1.
          1    1    1    2  501    0 -0.21299133809E+02 -0.17153876598E+02 -0.30438294933E+01  0.27516785447E+02  0.00000000000E+00 0. -1.
         -2    1    1    2    0  502  0.54047316116E+01  0.65247480394E+02  0.11194390980E+03  0.12968378373E+03  0.00000000000E+00 0.  1.
<mgrwt>
<rscale>  2 0.93930066E+02</rscale>
<asrwt>0</asrwt>
<pdfrwt beam="1">  1       21 0.36241143E-01 0.93930066E+02</pdfrwt>
<pdfrwt beam="2">  1       21 0.71042912E-02 0.93930066E+02</pdfrwt>
<totfact> 0.10786464E+06</totfact>
</mgrwt>
</event>
<event>
 5    1  0.1590180E+000  0.7383326E+02  0.7546771E-02  0.1347523E+00
         21   -1    0    0  501  502  0.00000000000E+00  0.00000000000E+00  0.69467373983E+03  0.69467373983E+03  0.00000000000E+00 0.  1.
         21   -1    0    0  502  503 -0.00000000000E+00 -0.00000000000E+00 -0.15780713497E+02  0.15780713497E+02  0.00000000000E+00 0. -1.
         24    1    1    2    0    0 -0.18715199724E+02 -0.30532781307E+02  0.51694170585E+03  0.52438387908E+03  0.80419002446E+02 0.  0.
          1    1    1    2  501    0 -0.67084469433E+00  0.38622081152E+02  0.16042402873E+03  0.16500904272E+03  0.00000000000E+00 0. -1.
         -2    1    1    2    0  503  0.19386044418E+02 -0.80892998446E+01  0.15272917481E+01  0.21061531526E+02  0.00000000000E+00 0.  1.
<mgrwt>
<rscale>  2 0.73833257E+02</rscale>
<asrwt>0</asrwt>
<pdfrwt beam="1">  1       21 0.10687286E+00 0.73833257E+02</pdfrwt>
<pdfrwt beam="2">  1       21 0.24278026E-02 0.73833257E+02</pdfrwt>
<totfact> 0.63712179E+05</totfact>
</mgrwt>
</event>
<event>
 5    1  0.1590180E+000  0.7699542E+02  0.7546771E-02  0.1337801E+00
         21   -1    0    0  503  502  0.00000000000E+00  0.00000000000E+00  0.72897340805E+02  0.72897340805E+02  0.00000000000E+00 0.  1.
         21   -1    0    0  501  503 -0.00000000000E+00 -0.00000000000E+00 -0.14697571945E+03  0.14697571945E+03  0.00000000000E+00 0.  1.
         24    1    1    2    0    0  0.34903087473E+02  0.35046321422E+02 -0.22222860231E+02  0.96992482346E+02  0.80419002446E+02 0.  1.
          1    1    1    2  501    0 -0.30462974133E+02 -0.70970486615E+01 -0.78195662975E+02  0.84219490623E+02  0.00000000000E+00 0. -1.
         -2    1    1    2    0  502 -0.44401133409E+01 -0.27949272760E+02  0.26340144564E+02  0.38661087284E+02  0.00000000000E+00 0.  1.
<mgrwt>
<rscale>  2 0.76995421E+02</rscale>
<asrwt>0</asrwt>
<pdfrwt beam="1">  1       21 0.11214975E-01 0.76995421E+02</pdfrwt>
<pdfrwt beam="2">  1       21 0.22611649E-01 0.76995421E+02</pdfrwt>
<totfact> 0.11992229E+06</totfact>
</mgrwt>
</event>
<event>
 5    1  0.1590180E+000  0.8384512E+02  0.7546771E-02  0.1318481E+00
         21   -1    0    0  501  502  0.00000000000E+00  0.00000000000E+00  0.83062241703E+03  0.83062241703E+03  0.00000000000E+00 0. -1.
         21   -1    0    0  502  503 -0.00000000000E+00 -0.00000000000E+00 -0.28396671252E+02  0.28396671252E+02  0.00000000000E+00 0.  1.
         24    1    1    2    0    0  0.51943345154E+01  0.56500076610E+01  0.11472546683E+03  0.14031412042E+03  0.80419002446E+02 0.  1.
          1    1    1    2  501    0 -0.58983003789E+01  0.40411136978E+02  0.66705708513E+03  0.66830607117E+03  0.00000000000E+00 0. -1.
         -2    1    1    2    0  503  0.70396586353E+00 -0.46061144639E+02  0.20443193816E+02  0.50398896682E+02  0.00000000000E+00 0.  1.
<mgrwt>
<rscale>  2 0.83845122E+02</rscale>
<asrwt>0</asrwt>
<pdfrwt beam="1">  1       21 0.12778805E+00 0.83845122E+02</pdfrwt>
<pdfrwt beam="2">  1       21 0.43687193E-02 0.83845122E+02</pdfrwt>
<totfact> 0.15977366E+05</totfact>
</mgrwt>
</event>
<event>
 5    1  0.1590180E+000  0.1198848E+03  0.7546771E-02  0.1243287E+00
         21   -1    0    0  501  502  0.00000000000E+00  0.00000000000E+00  0.18696135273E+02  0.18696135273E+02  0.00000000000E+00 0. -1.
         21   -1    0    0  502  503 -0.00000000000E+00 -0.00000000000E+00 -0.78492788085E+03  0.78492788085E+03  0.00000000000E+00 0. -1.
         24    1    1    2    0    0  0.47392664644E+02  0.93381630550E+02 -0.47070603689E+03  0.48887379016E+03  0.80419002446E+02 0. -1.
          1    1    1    2  501    0 -0.28419686313E+02 -0.78910507359E+02 -0.21563115630E+03  0.23136841252E+03  0.00000000000E+00 0. -1.
         -2    1    1    2    0  503 -0.18972978331E+02 -0.14471123192E+02 -0.79894552387E+02  0.83381813450E+02  0.00000000000E+00 0.  1.
<mgrwt>
<rscale>  2 0.11988484E+03</rscale>
<asrwt>0</asrwt>
<pdfrwt beam="1">  1       21 0.28763292E-02 0.11988484E+03</pdfrwt>
<pdfrwt beam="2">  1       21 0.12075811E+00 0.11988484E+03</pdfrwt>
<totfact> 0.35947715E+05</totfact>
</mgrwt>
</event>
<event>
 5    1  0.1590180E+000  0.8805963E+02  0.7546771E-02  0.1307620E+00
         21   -1    0    0  501  502  0.00000000000E+00  0.00000000000E+00  0.17668417842E+02  0.17668417842E+02  0.00000000000E+00 0. -1.
         21   -1    0    0  502  503 -0.00000000000E+00 -0.00000000000E+00 -0.77390640145E+03  0.77390640145E+03  0.00000000000E+00 0.  1.
         24    1    1    2    0    0  0.30949792015E+01  0.49200930461E+02 -0.65133342357E+03  0.65812822084E+03  0.80419002446E+02 0.  1.
          1    1    1    2  501    0 -0.26199417425E+02 -0.52286269977E+02 -0.66855363511E+02  0.88825126691E+02  0.00000000000E+00 0. -1.
         -2    1    1    2    0  503  0.23104438223E+02  0.30853395158E+01 -0.38049196527E+02  0.44621471759E+02  0.00000000000E+00 0.  1.
<mgrwt>
<rscale>  2 0.88059627E+02</rscale>
<asrwt>0</asrwt>
<pdfrwt beam="1">  1       21 0.27182191E-02 0.88059627E+02</pdfrwt>
<pdfrwt beam="2">  1       21 0.11906248E+00 0.88059627E+02</pdfrwt>
<totfact> 0.41097841E+05</totfact>
</mgrwt>
</event>
<event>
 5    1  0.1590180E+000  0.1162876E+03  0.7546771E-02  0.1249350E+00
         21   -1    0    0  501  502  0.00000000000E+00  0.00000000000E+00  0.33197568912E+02  0.33197568912E+02  0.00000000000E+00 0. -1.
         21   -1    0    0  502  503 -0.00000000000E+00 -0.00000000000E+00 -0.42909444304E+03  0.42909444304E+03  0.00000000000E+00 0.  1.
         24    1    1    2    0    0  0.70053005616E+02  0.25986900356E+02 -0.18178632365E+03  0.21235872011E+03  0.80419002446E+02 0.  0.
          1    1    1    2  501    0  0.20498497724E+02  0.12937584560E+02 -0.17167891294E+02  0.29703636052E+02  0.00000000000E+00 0. -1.
         -2    1    1    2    0  503 -0.90551503341E+02 -0.38924484916E+02 -0.19694265918E+03  0.22022965579E+03  0.00000000000E+00 0.  1.
<mgrwt>
<rscale>  2 0.11628763E+03</rscale>
<asrwt>0</asrwt>
<pdfrwt beam="1">  1       21 0.51073187E-02 0.11628763E+03</pdfrwt>
<pdfrwt beam="2">  1       21 0.66014524E-01 0.11628763E+03</pdfrwt>
<totfact> 0.55204438E+05</totfact>
</mgrwt>
</event>
<event>
 5    1  0.1590180E+000  0.1209904E+03  0.7546771E-02  0.1241472E+00
         21   -1    0    0  501  502  0.00000000000E+00  0.00000000000E+00  0.54560099731E+02  0.54560099731E+02  0.00000000000E+00 0.  1.
         21   -1    0    0  502  503 -0.00000000000E+00 -0.00000000000E+00 -0.66570936223E+03  0.66570936223E+03  0.00000000000E+00 0.  1.
         24    1    1    2    0    0 -0.79275766735E+02  0.48132494212E+02 -0.47656066197E+02  0.13168029765E+03  0.80419002446E+02 0.  1.
          1    1    1    2  501    0  0.93107513063E+02 -0.33143057580E+02 -0.18670388400E+03  0.21124822261E+03  0.00000000000E+00 0. -1.
         -2    1    1    2    0  503 -0.13831746328E+02 -0.14989436632E+02 -0.37678931231E+03  0.37734094170E+03  0.00000000000E+00 0.  1.
<mgrwt>
<rscale>  2 0.12099042E+03</rscale>
<asrwt>0</asrwt>
<pdfrwt beam="1">  1       21 0.83938608E-02 0.12099042E+03</pdfrwt>
<pdfrwt beam="2">  1       21 0.10241683E+00 0.12099042E+03</pdfrwt>
<totfact> 0.88409542E+04</totfact>
</mgrwt>
</event>
<event>
 5    1  0.1590180E+000  0.9458670E+02  0.7546771E-02  0.1292110E+00
         21   -1    0    0  501  502  0.00000000000E+00  0.00000000000E+00  0.48771890682E+02  0.48771890682E+02  0.00000000000E+00 0. -1.
         21   -1    0    0  502  503 -0.00000000000E+00 -0.00000000000E+00 -0.25028745306E+03  0.25028745306E+03  0.00000000000E+00 0. -1.
         24    1    1    2    0    0  0.23457227734E+02 -0.21617135110E+02 -0.24132913379E+02  0.89817345351E+02  0.80419002446E+02 0.  0.
          1    1    1    2  501    0 -0.60635862145E+02  0.21079684064E+01 -0.63314225943E+02  0.87691747135E+02  0.00000000000E+00 0. -1.
         -2    1    1    2    0  503  0.37178634411E+02  0.19509166704E+02 -0.11406842306E+03  0.12155025126E+03  0.00000000000E+00 0.  1.
<mgrwt>
<rscale>  2 0.94586698E+02</rscale>
<asrwt>0</asrwt>
<pdfrwt beam="1">  1       21 0.75033676E-02 0.94586698E+02</pdfrwt>
<pdfrwt beam="2">  1       21 0.38505763E-01 0.94586698E+02</pdfrwt>
<totfact> 0.87272202E+05</totfact>
</mgrwt>
</event>
<event>
 5    1  0.1590180E+000  0.8306318E+02  0.7546771E-02  0.1320577E+00
         21   -1    0    0  503  502  0.00000000000E+00  0.00000000000E+00  0.27138080993E+02  0.27138080993E+02  0.00000000000E+00 0.  1.
         21   -1    0    0  501  503 -0.00000000000E+00 -0.00000000000E+00 -0.29569852093E+03  0.29569852093E+03  0.00000000000E+00 0.  1.
         24    1    1    2    0    0  0.39207801599E+02  0.16917140234E+02 -0.16549002052E+03  0.18888516137E+03  0.80419002446E+02 0.  1.
          1    1    1    2  501    0  0.13509174034E+02 -0.17803774774E+02 -0.65507055509E+02  0.69214496319E+02  0.00000000000E+00 0. -1.
         -2    1    1    2    0  502 -0.52716975633E+02  0.88663453992E+00 -0.37563363908E+02  0.64736944234E+02  0.00000000000E+00 0.  1.
<mgrwt>
<rscale>  2 0.83063176E+02</rscale>
<asrwt>0</asrwt>
<pdfrwt beam="1">  1       21 0.41750893E-02 0.83063176E+02</pdfrwt>
<pdfrwt beam="2">  1       21 0.45492081E-01 0.83063176E+02</pdfrwt>
<totfact> 0.16655627E+06</totfact>
</mgrwt>
</event>
<event>
 5    1  0.1590180E+000  0.8180616E+02  0.7546771E-02  0.1324003E+00
         21   -1    0    0  501  502  0.00000000000E+00  0.00000000000E+00  0.36010514057E+02  0.36010514057E+02  0.00000000000E+00 0. -1.
         21   -1    0    0  502  503 -0.00000000000E+00 -0.00000000000E+00 -0.45841127214E+03  0.45841127214E+03  0.00000000000E+00 0. -1.
         24    1    1    2    0    0 -0.16835323540E+02  0.80998362386E+01 -0.29464763964E+03  0.30599588718E+03  0.80419002446E+02 0. -1.
          1    1    1    2  501    0  0.21679642536E+02  0.33100104195E+02  0.13029924456E+02  0.41658165221E+02  0.00000000000E+00 0. -1.
         -2    1    1    2    0  503 -0.48443189959E+01 -0.41199940434E+02 -0.14078304290E+03  0.14676773380E+03  0.00000000000E+00 0.  1.
<mgrwt>
<rscale>  2 0.81806159E+02</rscale>
<asrwt>0</asrwt>
<pdfrwt beam="1">  1       21 0.55400796E-02 0.81806159E+02</pdfrwt>
<pdfrwt beam="2">  1       21 0.70524804E-01 0.81806159E+02</pdfrwt>
<totfact> 0.41908598E+05</totfact>
</mgrwt>
</event>
<event>
 5    1  0.1590180E+000  0.7001163E+02  0.7546771E-02  0.1360053E+00
         21   -1    0    0  503  502  0.00000000000E+00  0.00000000000E+00  0.10778634894E+03  0.10778634894E+03  0.00000000000E+00 0.  1.
         21   -1    0    0  501  503 -0.00000000000E+00 -0.00000000000E+00 -0.39424198863E+03  0.39424198863E+03  0.00000000000E+00 0. -1.
         24    1    1    2    0    0  0.38157487047E+02 -0.13188941146E+02 -0.13868635619E+03  0.16532109162E+03  0.80419002446E+02 0.  1.
          1    1    1    2  501    0 -0.28095730363E+02 -0.56715873248E+01 -0.24016582214E+03  0.24187012857E+03  0.00000000000E+00 0. -1.
         -2    1    1    2    0  502 -0.10061756684E+02  0.18860528471E+02  0.92396538639E+02  0.94837117387E+02  0.00000000000E+00 0.  1.
<mgrwt>
<rscale>  2 0.70011631E+02</rscale>
<asrwt>0</asrwt>
<pdfrwt beam="1">  1       21 0.16582515E-01 0.70011631E+02</pdfrwt>
<pdfrwt beam="2">  1       21 0.60652614E-01 0.70011631E+02</pdfrwt>
<totfact> 0.87715514E+04</totfact>
</mgrwt>
</event>
<event>
 5    1  0.1590180E+000  0.1128592E+03  0.7546771E-02  0.1255365E+00
         21   -1    0    0  501  502  0.00000000000E+00  0.00000000000E+00  0.50341695751E+02  0.50341695751E+02  0.00000000000E+00 0. -1.
         21   -1    0    0  502  503 -0.00000000000E+00 -0.00000000000E+00 -0.35359125462E+03  0.35359125462E+03  0.00000000000E+00 0. -1.
         24    1    1    2    0    0 -0.26693060331E+02  0.77580114335E+02 -0.19785772873E+03  0.22879267992E+03  0.80419002446E+02 0. -1.
          1    1    1    2  501    0 -0.59765125806E+01 -0.77933812908E+02 -0.15754711813E+02  0.79734615076E+02  0.00000000000E+00 0. -1.
         -2    1    1    2    0  503  0.32669572912E+02  0.35369857215E+00 -0.89637118327E+02  0.95405655382E+02  0.00000000000E+00 0.  1.
<mgrwt>
<rscale>  2 0.11285923E+03</rscale>
<asrwt>0</asrwt>
<pdfrwt beam="1">  1       21 0.77448762E-02 0.11285923E+03</pdfrwt>
<pdfrwt beam="2">  1       21 0.54398655E-01 0.11285923E+03</pdfrwt>
<totfact> 0.41062128E+05</totfact>
</mgrwt>
</event>
<event>
 5    1  0.1590180E+000  0.6334972E+02  0.7546771E-02  0.1384289E+00
         21   -1    0    0  501  502  0.00000000000E+00  0.00000000000E+00  0.13655982171E+03  0.13655982171E+03  0.00000000000E+00 0. -1.
         21   -1    0    0  502  503 -0.00000000000E+00 -0.00000000000E+00 -0.62824144737E+02  0.62824144737E+02  0.00000000000E+00 0. -1.
         24    1    1    2    0    0  0.51245857810E+01  0.17608427805E+02  0.60433218765E+02  0.10225315640E+03  0.80419002446E+02 0. -1.
          1    1    1    2  501    0  0.16781329225E+02 -0.14327608672E+02  0.49781976474E+02  0.54453085886E+02  0.00000000000E+00 0. -1.
         -2    1    1    2    0  503 -0.21905915006E+02 -0.32808191325E+01 -0.36479518267E+02  0.42677724160E+02  0.00000000000E+00 0.  1.
<mgrwt>
<rscale>  2 0.63349717E+02</rscale>
<asrwt>0</asrwt>
<pdfrwt beam="1">  1       21 0.21009203E-01 0.63349717E+02</pdfrwt>
<pdfrwt beam="2">  1       21 0.96652531E-02 0.63349717E+02</pdfrwt>
<totfact> 0.17594526E+06</totfact>
</mgrwt>
</event>
<event>
 5    1  0.1590180E+000  0.6429458E+02  0.7546771E-02  0.1380645E+00
         21   -1    0    0  501  502  0.00000000000E+00  0.00000000000E+00  0.16067150983E+03  0.16067150983E+03  0.00000000000E+00 0.  1.
         21   -1    0    0  502  503 -0.00000000000E+00 -0.00000000000E+00 -0.44615187083E+02  0.44615187083E+02  0.00000000000E+00 0. -1.
         24    1    1    2    0    0  0.12267304929E+02 -0.18167871593E+02  0.11615557976E+03  0.14296815377E+03  0.80419002446E+02 0.  1.
          1    1    1    2  501    0  0.11435913903E+02  0.18244691726E+02  0.21370566019E+02  0.30337270724E+02  0.00000000000E+00 0. -1.
         -2    1    1    2    0  503 -0.23703218833E+02 -0.76820133217E-01 -0.21469823034E+02  0.31981272418E+02  0.00000000000E+00 0.  1.
<mgrwt>
<rscale>  2 0.64294581E+02</rscale>
<asrwt>0</asrwt>
<pdfrwt beam="1">  1       21 0.24718694E-01 0.64294581E+02</pdfrwt>
<pdfrwt beam="2">  1       21 0.68638750E-02 0.64294581E+02</pdfrwt>
<totfact> 0.23326664E+06</totfact>
</mgrwt>
</event>
<event>
 5    1  0.1590180E+000  0.8786344E+02  0.7546771E-02  0.1308110E+00
         21   -1    0    0  501  502  0.00000000000E+00  0.00000000000E+00  0.13521318114E+04  0.13521318114E+04  0.00000000000E+00 0.  1.
         21   -1    0    0  502  503 -0.00000000000E+00 -0.00000000000E+00 -0.68364770791E+01  0.68364770791E+01  0.00000000000E+00 0. -1.
         24    1    1    2    0    0  0.16911625102E+02  0.45228159568E+02  0.48785157039E+03  0.49678764092E+03  0.80419002446E+02 0. -1.
          1    1    1    2  501    0  0.13462950138E+02 -0.49457653394E+02  0.69360562272E+03  0.69549699523E+03  0.00000000000E+00 0. -1.
         -2    1    1    2    0  503 -0.30374575241E+02  0.42294938256E+01  0.16383814118E+03  0.16668365231E+03  0.00000000000E+00 0.  1.
<mgrwt>
<rscale>  2 0.87863437E+02</rscale>
<asrwt>0</asrwt>
<pdfrwt beam="1">  1       21 0.20802007E+00 0.87863437E+02</pdfrwt>
<pdfrwt beam="2">  1       21 0.10517668E-02 0.87863437E+02</pdfrwt>
<totfact> 0.43454942E+05</totfact>
</mgrwt>
</event>
<event>
 5    1  0.1590180E+000  0.6974073E+02  0.7546771E-02  0.1360977E+00
         21   -1    0    0  501  502  0.00000000000E+00  0.00000000000E+00  0.90476627595E+02  0.90476627595E+02  0.00000000000E+00 0. -1.
         21   -1    0    0  502  503 -0.00000000000E+00 -0.00000000000E+00 -0.13151255295E+03  0.13151255295E+03  0.00000000000E+00 0. -1.
         24    1    1    2    0    0 -0.33845257107E+01 -0.38178677198E+02 -0.71866181041E+02  0.11445973239E+03  0.80419002446E+02 0. -1.
          1    1    1    2  501    0 -0.13870930776E+02  0.25339597420E+02  0.62726732189E+02  0.69058966464E+02  0.00000000000E+00 0. -1.
         -2    1    1    2    0  503  0.17255456487E+02  0.12839079778E+02 -0.31896476501E+02  0.38470481688E+02  0.00000000000E+00 0.  1.
<mgrwt>
<rscale>  2 0.69740731E+02</rscale>
<asrwt>0</asrwt>
<pdfrwt beam="1">  1       21 0.13919481E-01 0.69740731E+02</pdfrwt>
<pdfrwt beam="2">  1       21 0.20232700E-01 0.69740731E+02</pdfrwt>
<totfact> 0.10042307E+06</totfact>
</mgrwt>
</event>
<event>
 5    1  0.1590180E+000  0.7619269E+02  0.7546771E-02  0.1340217E+00
         21   -1    0    0  501  502  0.00000000000E+00  0.00000000000E+00  0.10355738917E+03  0.10355738917E+03  0.00000000000E+00 0. -1.
         21   -1    0    0  502  503 -0.00000000000E+00 -0.00000000000E+00 -0.71379916981E+02  0.71379916981E+02  0.00000000000E+00 0. -1.
         24    1    1    2    0    0 -0.28160174491E+01 -0.34699516652E+02 -0.15225880570E+02  0.88943970024E+02  0.80419002446E+02 0.  1.
          1    1    1    2  501    0 -0.23760437922E+02  0.39079615704E+01  0.36767889679E+02  0.43951203457E+02  0.00000000000E+00 0. -1.
         -2    1    1    2    0  503  0.26576455371E+02  0.30791555082E+02  0.10635463079E+02  0.42042132669E+02  0.00000000000E+00 0.  1.
<mgrwt>
<rscale>  2 0.76192694E+02</rscale>
<asrwt>0</asrwt>
<pdfrwt beam="1">  1       21 0.15931906E-01 0.76192694E+02</pdfrwt>
<pdfrwt beam="2">  1       21 0.10981526E-01 0.76192694E+02</pdfrwt>
<totfact> 0.23461387E+06</totfact>
</mgrwt>
</event>
<event>
 5    1  0.1590180E+000  0.1427589E+03  0.7546771E-02  0.1209664E+00
         21   -1    0    0  503  502  0.00000000000E+00  0.00000000000E+00  0.32075275969E+03  0.32075275969E+03  0.00000000000E+00 0.  1.
         21   -1    0    0  501  503 -0.00000000000E+00 -0.00000000000E+00 -0.10848395908E+03  0.10848395908E+03  0.00000000000E+00 0. -1.
         24    1    1    2    0    0  0.12414407607E+03  0.38988382241E+02  0.14424679427E+03  0.21025270316E+03  0.80419002446E+02 0.  1.
          1    1    1    2  501    0 -0.24566884702E+02  0.24630579862E+01 -0.52032620276E+02  0.57593333393E+02  0.00000000000E+00 0. -1.
         -2    1    1    2    0  502 -0.99577191367E+02 -0.41451440227E+02  0.12005462661E+03  0.16139068222E+03  0.00000000000E+00 0.  1.
<mgrwt>
<rscale>  2 0.14275892E+03</rscale>
<asrwt>0</asrwt>
<pdfrwt beam="1">  1       21 0.49346578E-01 0.14275892E+03</pdfrwt>
<pdfrwt beam="2">  1       21 0.16689840E-01 0.14275892E+03</pdfrwt>
<totfact> 0.12859673E+05</totfact>
</mgrwt>
</event>
<event>
 5    1  0.1590180E+000  0.9908722E+02  0.7546771E-02  0.1282227E+00
         21   -1    0    0  501  502  0.00000000000E+00  0.00000000000E+00  0.14870464881E+03  0.14870464881E+03  0.00000000000E+00 0. -1.
         21   -1    0    0  502  503 -0.00000000000E+00 -0.00000000000E+00 -0.23773167788E+03  0.23773167788E+03  0.00000000000E+00 0.  1.
         24    1    1    2    0    0 -0.16035212118E+02 -0.31349575258E+02 -0.59852379438E+02  0.10625181022E+03  0.80419002446E+02 0. -1.
          1    1    1    2  501    0  0.58020307101E+02  0.35780327316E+02  0.11294812903E+03  0.13192371929E+03  0.00000000000E+00 0. -1.
         -2    1    1    2    0  503 -0.41985094983E+02 -0.44307520583E+01 -0.14212277867E+03  0.14826079718E+03  0.00000000000E+00 0.  1.
<mgrwt>
<rscale>  2 0.99087221E+02</rscale>
<asrwt>0</asrwt>
<pdfrwt beam="1">  1       21 0.22877639E-01 0.99087221E+02</pdfrwt>
<pdfrwt beam="2">  1       21 0.36574104E-01 0.99087221E+02</pdfrwt>
<totfact> 0.13359172E+05</totfact>
</mgrwt>
</event>
<event>
 5    1  0.1590180E+000  0.6495610E+02  0.7546771E-02  0.1378137E+00
         21   -1    0    0  501  502  0.00000000000E+00  0.00000000000E+00  0.76043061860E+01  0.76043061860E+01  0.00000000000E+00 0. -1.
         21   -1    0    0  502  503 -0.00000000000E+00 -0.00000000000E+00 -0.57798769937E+03  0.57798769937E+03  0.00000000000E+00 0.  1.
         24    1    1    2    0    0 -0.18945195221E+02 -0.33051769080E+02 -0.39944687800E+03  0.40923876180E+03  0.80419002446E+02 0.  1.
          1    1    1    2  501    0  0.16171256208E+02  0.13181375883E+02 -0.57763948630E+02  0.61416056198E+02  0.00000000000E+00 0. -1.
         -2    1    1    2    0  503  0.27739390130E+01  0.19870393197E+02 -0.11317256655E+03  0.11493718756E+03  0.00000000000E+00 0.  1.
<mgrwt>
<rscale>  2 0.64956096E+02</rscale>
<asrwt>0</asrwt>
<pdfrwt beam="1">  1       21 0.11698929E-02 0.64956096E+02</pdfrwt>
<pdfrwt beam="2">  1       21 0.88921210E-01 0.64956096E+02</pdfrwt>
<totfact> 0.30588537E+06</totfact>
</mgrwt>
</event>
<event>
 5    1  0.1590180E+000  0.8351261E+02  0.7546771E-02  0.1319369E+00
         21   -1    0    0  501  502  0.00000000000E+00  0.00000000000E+00  0.83672354656E+02  0.83672354656E+02  0.00000000000E+00 0. -1.
         21   -1    0    0  502  503 -0.00000000000E+00 -0.00000000000E+00 -0.29053077886E+03  0.29053077886E+03  0.00000000000E+00 0. -1.
         24    1    1    2    0    0  0.10819251345E+02  0.39147078558E+02 -0.19751998873E+03  0.21709654963E+03  0.80419002446E+02 0. -1.
          1    1    1    2  501    0  0.17279545710E+02 -0.45023445051E+02  0.62965906854E+02  0.79312033955E+02  0.00000000000E+00 0. -1.
         -2    1    1    2    0  503 -0.28098797055E+02  0.58763664926E+01 -0.72304342328E+02  0.77794549928E+02  0.00000000000E+00 0.  1.
<mgrwt>
<rscale>  2 0.83512614E+02</rscale>
<asrwt>0</asrwt>
<pdfrwt beam="1">  1       21 0.12872670E-01 0.83512614E+02</pdfrwt>
<pdfrwt beam="2">  1       21 0.44697044E-01 0.83512614E+02</pdfrwt>
<totfact> 0.25506025E+05</totfact>
</mgrwt>
</event>
<event>
 5    1  0.1590180E+000  0.1375212E+03  0.7546771E-02  0.1216704E+00
         21   -1    0    0  503  502  0.00000000000E+00  0.00000000000E+00  0.97616149096E+02  0.97616149096E+02  0.00000000000E+00 0. -1.
         21   -1    0    0  501  503 -0.00000000000E+00 -0.00000000000E+00 -0.74070151340E+03  0.74070151340E+03  0.00000000000E+00 0.  1.
         24    1    1    2    0    0  0.42118453603E+01 -0.92899880459E+02 -0.59604761823E+03  0.60859519106E+03  0.80419002446E+02 0.  1.
          1    1    1    2  501    0  0.15408861370E+02  0.11869372946E+03 -0.10765731605E+03  0.16098363929E+03  0.00000000000E+00 0. -1.
         -2    1    1    2    0  502 -0.19620706730E+02 -0.25793848997E+02  0.60619569982E+02  0.68738832136E+02  0.00000000000E+00 0.  1.
<mgrwt>
<rscale>  2 0.13752123E+03</rscale>
<asrwt>0</asrwt>
<pdfrwt beam="1">  1       21 0.15017869E-01 0.13752123E+03</pdfrwt>
<pdfrwt beam="2">  1       21 0.11395408E+00 0.13752123E+03</pdfrwt>
<totfact> 0.24319069E+04</totfact>
</mgrwt>
</event>
