<event>
 5    1  0.1595802E+000  0.1150799E+03  0.7546771E-02  0.1251442E+00
         21   -1    0    0  503  502  0.00000000000E+00  0.00000000000E+00  0.47369479462E+02  0.47369479462E+02  0.00000000000E+00 0. -1.
         21   -1    0    0  501  503 -0.00000000000E+00 -0.00000000000E+00 -0.37277296578E+03  0.37277296578E+03  0.00000000000E+00 0. -1.
         24    1    1    2    0    0 -0.51041019718E+02  0.60810031466E+02 -0.18292704475E+03  0.21501759295E+03  0.80419002446E+02 0. -1.
          1    1    1    2  501    0 -0.47747891608E+01 -0.61151264295E+02 -0.13567407062E+03  0.14889502737E+03  0.00000000000E+00 0. -1.
         -2    1    1    2    0  502  0.55815808879E+02  0.34123282962E+00 -0.68023709444E+01  0.56229824925E+02  0.00000000000E+00 0.  1.
<mgrwt>
<rscale>  2 0.11507991E+03</rscale>
<asrwt>0</asrwt>
<pdfrwt beam="1">  1       21 0.72876118E-02 0.11507991E+03</pdfrwt>
<pdfrwt beam="2">  1       21 0.57349690E-01 0.11507991E+03</pdfrwt>
<totfact> 0.40793834E+05</totfact>
</mgrwt>
</event>
<event>
 5    1  0.1595802E+000  0.9840052E+02  0.7546771E-02  0.1283696E+00
         21   -1    0    0  501  502  0.00000000000E+00  0.00000000000E+00  0.10811107926E+03  0.10811107926E+03  0.00000000000E+00 0. -1.
         21   -1    0    0  502  503 -0.00000000000E+00 -0.00000000000E+00 -0.12523244589E+03  0.12523244589E+03  0.00000000000E+00 0. -1.
         24    1    1    2    0    0  0.49893384724E+02 -0.11458029794E+02 -0.46573282212E+02  0.10609864682E+03  0.80419002446E+02 0. -1.
          1    1    1    2  501    0 -0.42501056280E+02 -0.34611811603E+02  0.51883899734E+02  0.75473547280E+02  0.00000000000E+00 0. -1.
         -2    1    1    2    0  503 -0.73923284440E+01  0.46069841398E+02 -0.22431984150E+02  0.51771331054E+02  0.00000000000E+00 0.  1.
<mgrwt>
<rscale>  2 0.98400518E+02</rscale>
<asrwt>0</asrwt>
<pdfrwt beam="1">  1       21 0.16632474E-01 0.98400518E+02</pdfrwt>
<pdfrwt beam="2">  1       21 0.19266530E-01 0.98400518E+02</pdfrwt>
<totfact> 0.80470581E+05</totfact>
</mgrwt>
</event>
<event>
 5    1  0.1595802E+000  0.7042406E+02  0.7546771E-02  0.1358657E+00
         21   -1    0    0  501  502  0.00000000000E+00  0.00000000000E+00  0.16962630221E+03  0.16962630221E+03  0.00000000000E+00 0. -1.
         21   -1    0    0  502  503 -0.00000000000E+00 -0.00000000000E+00 -0.72437912168E+02  0.72437912168E+02  0.00000000000E+00 0.  1.
         24    1    1    2    0    0 -0.20621094396E+02  0.21021362192E+02  0.81059026884E+02  0.11791907817E+03  0.80419002446E+02 0.  1.
          1    1    1    2  501    0  0.28172416962E+02  0.45561166749E+01  0.63592566525E+02  0.69702638357E+02  0.00000000000E+00 0. -1.
         -2    1    1    2    0  503 -0.75513225661E+01 -0.25577478867E+02 -0.47463203371E+02  0.54442497848E+02  0.00000000000E+00 0.  1.
<mgrwt>
<rscale>  2 0.70424063E+02</rscale>
<asrwt>0</asrwt>
<pdfrwt beam="1">  1       21 0.26096354E-01 0.70424063E+02</pdfrwt>
<pdfrwt beam="2">  1       21 0.11144294E-01 0.70424063E+02</pdfrwt>
<totfact> 0.92705978E+05</totfact>
</mgrwt>
</event>
<event>
 5    1  0.1595802E+000  0.9166105E+02  0.7546771E-02  0.1298878E+00
         21   -1    0    0  503  502  0.00000000000E+00  0.00000000000E+00  0.12392827037E+04  0.12392827037E+04  0.00000000000E+00 0. -1.
         21   -1    0    0  501  503 -0.00000000000E+00 -0.00000000000E+00 -0.81894073602E+01  0.81894073602E+01  0.00000000000E+00 0. -1.
         24    1    1    2    0    0 -0.91174993946E+00  0.37460752624E+02  0.65393952410E+03  0.65993049362E+03  0.80419002446E+02 0.  0.
          1    1    1    2  501    0 -0.36118252150E+02  0.69471602659E+01  0.93987866687E+02  0.10092824312E+03  0.00000000000E+00 0. -1.
         -2    1    1    2    0  502  0.37030002089E+02 -0.44407912890E+02  0.48316590551E+03  0.48661337428E+03  0.00000000000E+00 0.  1.
<mgrwt>
<rscale>  2 0.91661052E+02</rscale>
<asrwt>0</asrwt>
<pdfrwt beam="1">  1       21 0.19065873E+00 0.91661052E+02</pdfrwt>
<pdfrwt beam="2">  1       21 0.12599098E-02 0.91661052E+02</pdfrwt>
<totfact> 0.41802476E+05</totfact>
</mgrwt>
</event>
<event>
 5    1  0.1595802E+000  0.7833178E+02  0.7546771E-02  0.1333853E+00
         21   -1    0    0  503  502  0.00000000000E+00  0.00000000000E+00  0.47009172328E+02  0.47009172328E+02  0.00000000000E+00 0. -1.
         21   -1    0    0  501  503 -0.00000000000E+00 -0.00000000000E+00 -0.18957217610E+03  0.18957217610E+03  0.00000000000E+00 0.  1.
         24    1    1    2    0    0  0.10710512870E+02 -0.18485411208E+02 -0.32686984656E+02  0.89398436417E+02  0.80419002446E+02 0.  0.
          1    1    1    2  501    0 -0.25114751377E+02  0.40198264940E+02 -0.11141798263E+03  0.12108103937E+03  0.00000000000E+00 0. -1.
         -2    1    1    2    0  502  0.14404238507E+02 -0.21712853732E+02  0.15419635114E+01  0.26101872646E+02  0.00000000000E+00 0.  1.
<mgrwt>
<rscale>  2 0.78331781E+02</rscale>
<asrwt>0</asrwt>
<pdfrwt beam="1">  1       21 0.72321803E-02 0.78331781E+02</pdfrwt>
<pdfrwt beam="2">  1       21 0.29164951E-01 0.78331781E+02</pdfrwt>
<totfact> 0.15818138E+06</totfact>
</mgrwt>
</event>
<event>
 5    1  0.1595802E+000  0.8492223E+02  0.7546771E-02  0.1315636E+00
         21   -1    0    0  503  502  0.00000000000E+00  0.00000000000E+00  0.75602859117E+01  0.75602859117E+01  0.00000000000E+00 0.  1.
         21   -1    0    0  501  503 -0.00000000000E+00 -0.00000000000E+00 -0.17528787057E+04  0.17528787057E+04  0.00000000000E+00 0.  1.
         24    1    1    2    0    0 -0.44963713234E+02 -0.14626180726E+02 -0.98314110074E+03  0.98755723915E+03  0.80419002446E+02 0.  1.
          1    1    1    2  501    0  0.16369165173E+02 -0.23659334841E+02 -0.65385557716E+03  0.65448821951E+03  0.00000000000E+00 0. -1.
         -2    1    1    2    0  502  0.28594548061E+02  0.38285515567E+02 -0.10832174193E+03  0.11839353300E+03  0.00000000000E+00 0.  1.
<mgrwt>
<rscale>  2 0.84922230E+02</rscale>
<asrwt>0</asrwt>
<pdfrwt beam="1">  1       21 0.11631199E-02 0.84922230E+02</pdfrwt>
<pdfrwt beam="2">  1       21 0.26967389E+00 0.84922230E+02</pdfrwt>
<totfact> 0.16584135E+05</totfact>
</mgrwt>
</event>
<event>
 5    1  0.1595802E+000  0.7555882E+02  0.7546771E-02  0.1342149E+00
         21   -1    0    0  503  502  0.00000000000E+00  0.00000000000E+00  0.10033382573E+03  0.10033382573E+03  0.00000000000E+00 0.  1.
         21   -1    0    0  501  503 -0.00000000000E+00 -0.00000000000E+00 -0.82435984645E+02  0.82435984645E+02  0.00000000000E+00 0. -1.
         24    1    1    2    0    0 -0.13215860104E+02  0.13917696316E+02  0.31278842972E+02  0.88396511249E+02  0.80419002446E+02 0.  1.
          1    1    1    2  501    0 -0.80749468792E+01 -0.36512395408E+02 -0.39067021753E+02  0.54079496801E+02  0.00000000000E+00 0. -1.
         -2    1    1    2    0  502  0.21290806984E+02  0.22594699093E+02  0.25686019864E+02  0.40293802322E+02  0.00000000000E+00 0.  1.
<mgrwt>
<rscale>  2 0.75558816E+02</rscale>
<asrwt>0</asrwt>
<pdfrwt beam="1">  1       21 0.15435973E-01 0.75558816E+02</pdfrwt>
<pdfrwt beam="2">  1       21 0.12682459E-01 0.75558816E+02</pdfrwt>
<totfact> 0.19302437E+06</totfact>
</mgrwt>
</event>
<event>
 5    1  0.1595802E+000  0.7594460E+02  0.7546771E-02  0.1340971E+00
         21   -1    0    0  503  502  0.00000000000E+00  0.00000000000E+00  0.47320163288E+02  0.47320163288E+02  0.00000000000E+00 0.  1.
         21   -1    0    0  501  503 -0.00000000000E+00 -0.00000000000E+00 -0.13821421880E+03  0.13821421880E+03  0.00000000000E+00 0.  1.
         24    1    1    2    0    0 -0.35825928970E+02 -0.35750593915E+02 -0.86162701646E+02  0.12826858252E+03  0.80419002446E+02 0.  1.
          1    1    1    2  501    0  0.47980989246E+01  0.22711581924E+02 -0.42941615592E+01  0.23606726378E+02  0.00000000000E+00 0. -1.
         -2    1    1    2    0  502  0.31027830046E+02  0.13039011990E+02 -0.43719230707E+00  0.33659073192E+02  0.00000000000E+00 0.  1.
<mgrwt>
<rscale>  2 0.75944602E+02</rscale>
<asrwt>0</asrwt>
<pdfrwt beam="1">  1       21 0.72800253E-02 0.75944602E+02</pdfrwt>
<pdfrwt beam="2">  1       21 0.21263725E-01 0.75944602E+02</pdfrwt>
<totfact> 0.28137887E+06</totfact>
</mgrwt>
</event>
<event>
 5    1  0.1595802E+000  0.1246882E+03  0.7546771E-02  0.1235557E+00
         21   -1    0    0  503  502  0.00000000000E+00  0.00000000000E+00  0.30232138302E+03  0.30232138302E+03  0.00000000000E+00 0.  1.
         21   -1    0    0  501  503 -0.00000000000E+00 -0.00000000000E+00 -0.53425966800E+02  0.53425966800E+02  0.00000000000E+00 0.  1.
         24    1    1    2    0    0 -0.72625043142E+02 -0.44461039601E+02  0.96836333212E+02  0.15197260384E+03  0.80419002446E+02 0.  1.
          1    1    1    2  501    0  0.27257423664E+01  0.60478457406E+02  0.47321908537E+02  0.76840331267E+02  0.00000000000E+00 0. -1.
         -2    1    1    2    0  502  0.69899300776E+02 -0.16017417805E+02  0.10473717447E+03  0.12693441471E+03  0.00000000000E+00 0.  1.
<mgrwt>
<rscale>  2 0.12468821E+03</rscale>
<asrwt>0</asrwt>
<pdfrwt beam="1">  1       21 0.46510981E-01 0.12468821E+03</pdfrwt>
<pdfrwt beam="2">  1       21 0.82193797E-02 0.12468821E+03</pdfrwt>
<totfact> 0.51126716E+05</totfact>
</mgrwt>
</event>
<event>
 5    1  0.1595802E+000  0.7866676E+02  0.7546771E-02  0.1332878E+00
         21   -1    0    0  503  502  0.00000000000E+00  0.00000000000E+00  0.11473275796E+03  0.11473275796E+03  0.00000000000E+00 0. -1.
         21   -1    0    0  501  503 -0.00000000000E+00 -0.00000000000E+00 -0.92150674900E+02  0.92150674900E+02  0.00000000000E+00 0. -1.
         24    1    1    2    0    0 -0.47788908481E+02 -0.19873300689E+02  0.46147166668E+02  0.10618617989E+03  0.80419002446E+02 0. -1.
          1    1    1    2  501    0  0.23354465099E+02 -0.79492215904E+01 -0.49624018546E+02  0.55418087125E+02  0.00000000000E+00 0. -1.
         -2    1    1    2    0  502  0.24434443382E+02  0.27822522280E+02  0.26058934939E+02  0.45279165844E+02  0.00000000000E+00 0.  1.
<mgrwt>
<rscale>  2 0.78666757E+02</rscale>
<asrwt>0</asrwt>
<pdfrwt beam="1">  1       21 0.17651194E-01 0.78666757E+02</pdfrwt>
<pdfrwt beam="2">  1       21 0.14177027E-01 0.78666757E+02</pdfrwt>
<totfact> 0.12493572E+06</totfact>
</mgrwt>
</event>
<event>
 5    1  0.1595802E+000  0.7660422E+02  0.7546771E-02  0.1338974E+00
         21   -1    0    0  503  502  0.00000000000E+00  0.00000000000E+00  0.11159682675E+03  0.11159682675E+03  0.00000000000E+00 0. -1.
         21   -1    0    0  501  503 -0.00000000000E+00 -0.00000000000E+00 -0.56620422762E+02  0.56620422762E+02  0.00000000000E+00 0.  1.
         24    1    1    2    0    0  0.31690160378E+02  0.98469618663E+01  0.11225195312E+02  0.87718013469E+02  0.80419002446E+02 0.  1.
          1    1    1    2  501    0 -0.53093685763E+01 -0.31585202724E+02  0.13160712413E+02  0.34626850521E+02  0.00000000000E+00 0. -1.
         -2    1    1    2    0  502 -0.26380791802E+02  0.21738240858E+02  0.30590496260E+02  0.45872385518E+02  0.00000000000E+00 0.  1.
<mgrwt>
<rscale>  2 0.76604219E+02</rscale>
<asrwt>0</asrwt>
<pdfrwt beam="1">  1       21 0.17168743E-01 0.76604219E+02</pdfrwt>
<pdfrwt beam="2">  1       21 0.87108343E-02 0.76604219E+02</pdfrwt>
<totfact> 0.30589819E+06</totfact>
</mgrwt>
</event>
<event>
 5    1  0.1595802E+000  0.7821983E+02  0.7546771E-02  0.1334181E+00
         21   -1    0    0  501  502  0.00000000000E+00  0.00000000000E+00  0.22475881370E+03  0.22475881370E+03  0.00000000000E+00 0. -1.
         21   -1    0    0  502  503 -0.00000000000E+00 -0.00000000000E+00 -0.28871764272E+03  0.28871764272E+03  0.00000000000E+00 0. -1.
         24    1    1    2    0    0  0.59712144102E+01  0.26700682648E+02 -0.12386804465E+03  0.15019683850E+03  0.80419002446E+02 0. -1.
          1    1    1    2  501    0 -0.23116813472E+02  0.14210335545E+02  0.20744878886E+03  0.20921596665E+03  0.00000000000E+00 0. -1.
         -2    1    1    2    0  503  0.17145599061E+02 -0.40911018193E+02 -0.14753957322E+03  0.15406365127E+03  0.00000000000E+00 0.  1.
<mgrwt>
<rscale>  2 0.78219827E+02</rscale>
<asrwt>0</asrwt>
<pdfrwt beam="1">  1       21 0.34578279E-01 0.78219827E+02</pdfrwt>
<pdfrwt beam="2">  1       21 0.44418099E-01 0.78219827E+02</pdfrwt>
<totfact> 0.42122935E+04</totfact>
</mgrwt>
</event>
<event>
 5    1  0.1595802E+000  0.2806574E+03  0.7546771E-02  0.1095330E+00
         21   -1    0    0  501  502  0.00000000000E+00  0.00000000000E+00  0.42805101729E+03  0.42805101729E+03  0.00000000000E+00 0. -1.
         21   -1    0    0  502  503 -0.00000000000E+00 -0.00000000000E+00 -0.43313277435E+03  0.43313277435E+03  0.00000000000E+00 0.  1.
         24    1    1    2    0    0 -0.26709995528E+03  0.42136779222E+02 -0.25352494341E+03  0.37928881761E+03  0.80419002446E+02 0.  1.
          1    1    1    2  501    0  0.97364489389E+02 -0.49673522169E+02  0.28748619660E+03  0.30756400282E+03  0.00000000000E+00 0. -1.
         -2    1    1    2    0  503  0.16973546589E+03  0.75367429472E+01 -0.39043010246E+02  0.17433097122E+03  0.00000000000E+00 0.  1.
<mgrwt>
<rscale>  2 0.28065738E+03</rscale>
<asrwt>0</asrwt>
<pdfrwt beam="1">  1       21 0.65854003E-01 0.28065738E+03</pdfrwt>
<pdfrwt beam="2">  1       21 0.66635812E-01 0.28065738E+03</pdfrwt>
<totfact> 0.41195453E+03</totfact>
</mgrwt>
</event>
<event>
 5    1  0.1595802E+000  0.7212484E+02  0.7546771E-02  0.1353013E+00
         21   -1    0    0  501  502  0.00000000000E+00  0.00000000000E+00  0.93569115154E+02  0.93569115154E+02  0.00000000000E+00 0.  1.
         21   -1    0    0  502  503 -0.00000000000E+00 -0.00000000000E+00 -0.19574601265E+03  0.19574601265E+03  0.00000000000E+00 0.  1.
         24    1    1    2    0    0 -0.28733033464E+02 -0.65217350201E+01 -0.18333872275E+02  0.87586911503E+02  0.80419002446E+02 0.  1.
          1    1    1    2  501    0 -0.60092464583E+01  0.20343413645E+02  0.54467712211E+02  0.58452520863E+02  0.00000000000E+00 0. -1.
         -2    1    1    2    0  503  0.34742279923E+02 -0.13821678625E+02 -0.13831073744E+03  0.14327569544E+03  0.00000000000E+00 0.  1.
<mgrwt>
<rscale>  2 0.72124836E+02</rscale>
<asrwt>0</asrwt>
<pdfrwt beam="1">  1       21 0.14395248E-01 0.72124836E+02</pdfrwt>
<pdfrwt beam="2">  1       21 0.30114771E-01 0.72124836E+02</pdfrwt>
<totfact> 0.45258887E+05</totfact>
</mgrwt>
</event>
<event>
 5    1  0.1595802E+000  0.1747361E+03  0.7546771E-02  0.1172997E+00
         21   -1    0    0  501  502  0.00000000000E+00  0.00000000000E+00  0.41220761852E+03  0.41220761852E+03  0.00000000000E+00 0. -1.
         21   -1    0    0  502  503 -0.00000000000E+00 -0.00000000000E+00 -0.13304233128E+03  0.13304233128E+03  0.00000000000E+00 0.  1.
         24    1    1    2    0    0 -0.10626636376E+03 -0.98888586341E+02  0.10824388474E+02  0.16630055898E+03  0.80419002446E+02 0.  1.
          1    1    1    2  501    0  0.11916176791E+03  0.43815820362E+02  0.29140765697E+03  0.31786439811E+03  0.00000000000E+00 0. -1.
         -2    1    1    2    0  503 -0.12895404148E+02  0.55072765979E+02 -0.23066758202E+02  0.61084992712E+02  0.00000000000E+00 0.  1.
<mgrwt>
<rscale>  2 0.17473614E+03</rscale>
<asrwt>0</asrwt>
<pdfrwt beam="1">  1       21 0.63416556E-01 0.17473614E+03</pdfrwt>
<pdfrwt beam="2">  1       21 0.20468051E-01 0.17473614E+03</pdfrwt>
<totfact> 0.51267413E+04</totfact>
</mgrwt>
</event>
<event>
 5    1  0.1595802E+000  0.9102075E+02  0.7546771E-02  0.1300398E+00
         21   -1    0    0  503  502  0.00000000000E+00  0.00000000000E+00  0.27877772507E+03  0.27877772507E+03  0.00000000000E+00 0. -1.
         21   -1    0    0  501  503 -0.00000000000E+00 -0.00000000000E+00 -0.41775645981E+02  0.41775645981E+02  0.00000000000E+00 0. -1.
         24    1    1    2    0    0 -0.65539901057E+02 -0.12353125482E+02  0.91677044241E+02  0.13899631195E+03  0.80419002446E+02 0. -1.
          1    1    1    2  501    0  0.40172178378E+02  0.26876979324E+02  0.19066174363E+02  0.51958588685E+02  0.00000000000E+00 0. -1.
         -2    1    1    2    0  502  0.25367722678E+02 -0.14523853842E+02  0.12625886049E+03  0.12959847042E+03  0.00000000000E+00 0.  1.
<mgrwt>
<rscale>  2 0.91020750E+02</rscale>
<asrwt>0</asrwt>
<pdfrwt beam="1">  1       21 0.42888880E-01 0.91020750E+02</pdfrwt>
<pdfrwt beam="2">  1       21 0.64270226E-02 0.91020750E+02</pdfrwt>
<totfact> 0.91571579E+05</totfact>
</mgrwt>
</event>
<event>
 5    1  0.1595802E+000  0.1220971E+03  0.7546771E-02  0.1239677E+00
         21   -1    0    0  503  502  0.00000000000E+00  0.00000000000E+00  0.47710854607E+02  0.47710854607E+02  0.00000000000E+00 0. -1.
         21   -1    0    0  501  503 -0.00000000000E+00 -0.00000000000E+00 -0.49746269441E+03  0.49746269441E+03  0.00000000000E+00 0. -1.
         24    1    1    2    0    0  0.52136896719E+02  0.32150956040E+02 -0.36447008734E+03  0.37822956058E+03  0.80419002446E+02 0.  0.
          1    1    1    2  501    0 -0.70377162613E+02  0.31343890370E+02 -0.52205394325E+02  0.93063353032E+02  0.00000000000E+00 0. -1.
         -2    1    1    2    0  502  0.18240265894E+02 -0.63494846410E+02 -0.33076358135E+02  0.73880635406E+02  0.00000000000E+00 0.  1.
<mgrwt>
<rscale>  2 0.12209708E+03</rscale>
<asrwt>0</asrwt>
<pdfrwt beam="1">  1       21 0.73401321E-02 0.12209708E+03</pdfrwt>
<pdfrwt beam="2">  1       21 0.76532715E-01 0.12209708E+03</pdfrwt>
<totfact> 0.21604827E+05</totfact>
</mgrwt>
</event>
<event>
 5    1  0.1595802E+000  0.8403155E+02  0.7546771E-02  0.1317985E+00
         21   -1    0    0  503  502  0.00000000000E+00  0.00000000000E+00  0.14571685869E+03  0.14571685869E+03  0.00000000000E+00 0.  1.
         21   -1    0    0  501  503 -0.00000000000E+00 -0.00000000000E+00 -0.88895353960E+02  0.88895353960E+02  0.00000000000E+00 0. -1.
         24    1    1    2    0    0 -0.20808136621E+02  0.10992817092E+02  0.40279659774E+02  0.92970358304E+02  0.80419002446E+02 0.  0.
          1    1    1    2  501    0  0.45955747014E+02  0.14768826307E+02 -0.47787355763E+02  0.67924077358E+02  0.00000000000E+00 0. -1.
         -2    1    1    2    0  502 -0.25147610393E+02 -0.25761643399E+02  0.64329200714E+02  0.73717776985E+02  0.00000000000E+00 0.  1.
<mgrwt>
<rscale>  2 0.84031551E+02</rscale>
<asrwt>0</asrwt>
<pdfrwt beam="1">  1       21 0.22417978E-01 0.84031551E+02</pdfrwt>
<pdfrwt beam="2">  1       21 0.13676208E-01 0.84031551E+02</pdfrwt>
<totfact> 0.86217486E+05</totfact>
</mgrwt>
</event>
<event>
 5    1  0.1595802E+000  0.9157376E+02  0.7546771E-02  0.1299085E+00
         21   -1    0    0  503  502  0.00000000000E+00  0.00000000000E+00  0.26986974369E+03  0.26986974369E+03  0.00000000000E+00 0.  1.
         21   -1    0    0  501  503 -0.00000000000E+00 -0.00000000000E+00 -0.71699722875E+02  0.71699722875E+02  0.00000000000E+00 0. -1.
         24    1    1    2    0    0 -0.27642968361E+02 -0.23146987508E+02  0.77745263864E+02  0.11752216275E+03  0.80419002446E+02 0.  1.
          1    1    1    2  501    0  0.10961798770E+02 -0.33874933255E+02 -0.39657770845E+02  0.53295505661E+02  0.00000000000E+00 0. -1.
         -2    1    1    2    0  502  0.16681169591E+02  0.57021920763E+02  0.16008252780E+03  0.17075179815E+03  0.00000000000E+00 0.  1.
<mgrwt>
<rscale>  2 0.91573756E+02</rscale>
<asrwt>0</asrwt>
<pdfrwt beam="1">  1       21 0.41518422E-01 0.91573756E+02</pdfrwt>
<pdfrwt beam="2">  1       21 0.11030727E-01 0.91573756E+02</pdfrwt>
<totfact> 0.38692184E+05</totfact>
</mgrwt>
</event>
<event>
 5    1  0.1595802E+000  0.7585720E+02  0.7546771E-02  0.1341237E+00
         21   -1    0    0  501  502  0.00000000000E+00  0.00000000000E+00  0.46675018147E+03  0.46675018147E+03  0.00000000000E+00 0. -1.
         21   -1    0    0  502  503 -0.00000000000E+00 -0.00000000000E+00 -0.16936844189E+02  0.16936844189E+02  0.00000000000E+00 0. -1.
         24    1    1    2    0    0  0.52250553329E+02  0.43591041698E+01  0.30818295116E+03  0.32278951261E+03  0.80419002446E+02 0. -1.
          1    1    1    2  501    0 -0.17836322272E+02 -0.10583657245E+02  0.11522310734E+03  0.11707481650E+03  0.00000000000E+00 0. -1.
         -2    1    1    2    0  503 -0.34414231057E+02  0.62245530750E+01  0.26407278779E+02  0.43822696548E+02  0.00000000000E+00 0.  1.
<mgrwt>
<rscale>  2 0.75857199E+02</rscale>
<asrwt>0</asrwt>
<pdfrwt beam="1">  1       21 0.71807711E-01 0.75857199E+02</pdfrwt>
<pdfrwt beam="2">  1       21 0.26056687E-02 0.75857199E+02</pdfrwt>
<totfact> 0.13850964E+06</totfact>
</mgrwt>
</event>
<event>
 5    1  0.1595802E+000  0.8298293E+02  0.7546771E-02  0.1320793E+00
         21   -1    0    0  503  502  0.00000000000E+00  0.00000000000E+00  0.19193776468E+03  0.19193776468E+03  0.00000000000E+00 0.  1.
         21   -1    0    0  501  503 -0.00000000000E+00 -0.00000000000E+00 -0.10485198019E+03  0.10485198019E+03  0.00000000000E+00 0. -1.
         24    1    1    2    0    0  0.15697619698E+02 -0.21535715928E+02  0.13032768200E+03  0.15544363278E+03  0.80419002446E+02 0.  1.
          1    1    1    2  501    0 -0.14648285259E+02 -0.28052591687E+02 -0.75714558738E+02  0.82062260304E+02  0.00000000000E+00 0. -1.
         -2    1    1    2    0  502 -0.10493344393E+01  0.49588307614E+02  0.32472661236E+02  0.59283851786E+02  0.00000000000E+00 0.  1.
<mgrwt>
<rscale>  2 0.82982929E+02</rscale>
<asrwt>0</asrwt>
<pdfrwt beam="1">  1       21 0.29528887E-01 0.82982929E+02</pdfrwt>
<pdfrwt beam="2">  1       21 0.16131074E-01 0.82982929E+02</pdfrwt>
<totfact> 0.38355120E+05</totfact>
</mgrwt>
</event>
<event>
 5    1  0.1595802E+000  0.7628431E+02  0.7546771E-02  0.1339939E+00
         21   -1    0    0  503  502  0.00000000000E+00  0.00000000000E+00  0.29454511844E+03  0.29454511844E+03  0.00000000000E+00 0.  1.
         21   -1    0    0  501  503 -0.00000000000E+00 -0.00000000000E+00 -0.42975374893E+02  0.42975374893E+02  0.00000000000E+00 0. -1.
         24    1    1    2    0    0 -0.29898609538E+02  0.34021120650E+01  0.62403843871E+02  0.10614592269E+03  0.80419002446E+02 0. -1.
          1    1    1    2  501    0  0.45284272773E+02  0.99132969866E+01  0.56106053249E+01  0.46694943087E+02  0.00000000000E+00 0. -1.
         -2    1    1    2    0  502 -0.15385663235E+02 -0.13315409052E+02  0.18355529435E+03  0.18467962756E+03  0.00000000000E+00 0.  1.
<mgrwt>
<rscale>  2 0.76284313E+02</rscale>
<asrwt>0</asrwt>
<pdfrwt beam="1">  1       21 0.45314632E-01 0.76284313E+02</pdfrwt>
<pdfrwt beam="2">  1       21 0.66115963E-02 0.76284313E+02</pdfrwt>
<totfact> 0.77996235E+05</totfact>
</mgrwt>
</event>
<event>
 5    1  0.1595802E+000  0.6916029E+02  0.7546771E-02  0.1362972E+00
         21   -1    0    0  503  502  0.00000000000E+00  0.00000000000E+00  0.17480583190E+03  0.17480583190E+03  0.00000000000E+00 0. -1.
         21   -1    0    0  501  503 -0.00000000000E+00 -0.00000000000E+00 -0.45583508220E+02  0.45583508220E+02  0.00000000000E+00 0. -1.
         24    1    1    2    0    0  0.21676245143E+02  0.12535522345E+02  0.12927300017E+03  0.15429103490E+03  0.80419002446E+02 0. -1.
          1    1    1    2  501    0 -0.39413496856E+01 -0.29374535293E+02 -0.18961171818E+02  0.35184138440E+02  0.00000000000E+00 0. -1.
         -2    1    1    2    0  502 -0.17734895457E+02  0.16839012948E+02  0.18910495323E+02  0.30914166773E+02  0.00000000000E+00 0.  1.
<mgrwt>
<rscale>  2 0.69160293E+02</rscale>
<asrwt>0</asrwt>
<pdfrwt beam="1">  1       21 0.26893204E-01 0.69160293E+02</pdfrwt>
<pdfrwt beam="2">  1       21 0.70128475E-02 0.69160293E+02</pdfrwt>
<totfact> 0.19307172E+06</totfact>
</mgrwt>
</event>
<event>
 5    1  0.1595802E+000  0.8379528E+02  0.7546771E-02  0.1318613E+00
         21   -1    0    0  501  502  0.00000000000E+00  0.00000000000E+00  0.12232019357E+02  0.12232019357E+02  0.00000000000E+00 0. -1.
         21   -1    0    0  502  503 -0.00000000000E+00 -0.00000000000E+00 -0.58758332385E+03  0.58758332385E+03  0.00000000000E+00 0.  1.
         24    1    1    2    0    0  0.30631320904E+02 -0.83153948192E+00 -0.26992387771E+03  0.28331093341E+03  0.80419002446E+02 0.  0.
          1    1    1    2  501    0  0.25438067774E+02 -0.57032505651E+00 -0.12488409779E+03  0.12744982716E+03  0.00000000000E+00 0. -1.
         -2    1    1    2    0  503 -0.56069388678E+02  0.14018645384E+01 -0.18054332899E+03  0.18905458263E+03  0.00000000000E+00 0.  1.
<mgrwt>
<rscale>  2 0.83795284E+02</rscale>
<asrwt>0</asrwt>
<pdfrwt beam="1">  1       21 0.18818495E-02 0.83795284E+02</pdfrwt>
<pdfrwt beam="2">  1       21 0.90397417E-01 0.83795284E+02</pdfrwt>
<totfact> 0.14072895E+06</totfact>
</mgrwt>
</event>
<event>
 5    1  0.1614315E+000  0.9443406E+02  0.7546771E-02  0.1292456E+00
         21   -1    0    0  503  502  0.00000000000E+00  0.00000000000E+00  0.11845620890E+03  0.11845620890E+03  0.00000000000E+00 0. -1.
         21   -1    0    0  501  503 -0.00000000000E+00 -0.00000000000E+00 -0.47210906224E+03  0.47210906224E+03  0.00000000000E+00 0. -1.
         24    1    1    2    0    0  0.36970220074E+02 -0.21857940037E+02 -0.37389879451E+02  0.98538245137E+02  0.80419002446E+02 0.  0.
          1    1    1    2  501    0 -0.65858984137E+02  0.19641348603E+02 -0.39873459474E+03  0.40461397085E+03  0.00000000000E+00 0. -1.
         -2    1    1    2    0  502  0.28888764063E+02  0.22165914341E+01  0.82471620849E+02  0.87413055158E+02  0.00000000000E+00 0.  1.
<mgrwt>
<rscale>  2 0.94434056E+02</rscale>
<asrwt>0</asrwt>
<pdfrwt beam="1">  1       21 0.18224032E-01 0.94434056E+02</pdfrwt>
<pdfrwt beam="2">  1       21 0.72632163E-01 0.94434056E+02</pdfrwt>
<totfact> 0.49520019E+04</totfact>
</mgrwt>
</event>
<event>
 5    1  0.1595802E+000  0.7870113E+02  0.7546771E-02  0.1332778E+00
         21   -1    0    0  503  502  0.00000000000E+00  0.00000000000E+00  0.52279995422E+01  0.52279995422E+01  0.00000000000E+00 0.  1.
         21   -1    0    0  501  503 -0.00000000000E+00 -0.00000000000E+00 -0.19173184382E+04  0.19173184382E+04  0.00000000000E+00 0.  1.
         24    1    1    2    0    0  0.57798353969E+02 -0.40851561648E+01 -0.12321595959E+04  0.12361398885E+04  0.80419002446E+02 0.  1.
          1    1    1    2  501    0 -0.35639540325E+02 -0.55532792052E+00 -0.63588297388E+03  0.63688118334E+03  0.00000000000E+00 0. -1.
         -2    1    1    2    0  502 -0.22158813645E+02  0.46404840853E+01 -0.44047868872E+02  0.49525365893E+02  0.00000000000E+00 0.  1.
<mgrwt>
<rscale>  2 0.78701130E+02</rscale>
<asrwt>0</asrwt>
<pdfrwt beam="1">  1       21 0.80430764E-03 0.78701130E+02</pdfrwt>
<pdfrwt beam="2">  1       21 0.29497206E+00 0.78701130E+02</pdfrwt>
<totfact> 0.21634060E+05</totfact>
</mgrwt>
</event>
<event>
 5    1  0.1595802E+000  0.9363177E+02  0.7546771E-02  0.1294288E+00
         21   -1    0    0  501  502  0.00000000000E+00  0.00000000000E+00  0.10962990893E+03  0.10962990893E+03  0.00000000000E+00 0.  1.
         21   -1    0    0  502  503 -0.00000000000E+00 -0.00000000000E+00 -0.21284137043E+03  0.21284137043E+03  0.00000000000E+00 0.  1.
         24    1    1    2    0    0 -0.12043129335E+02 -0.40712548413E+02  0.51246479079E+02  0.10438374459E+03  0.80419002446E+02 0.  1.
          1    1    1    2  501    0  0.47334550239E+02  0.76170278830E+01  0.79750034859E+01  0.48602257568E+02  0.00000000000E+00 0. -1.
         -2    1    1    2    0  503 -0.35291420904E+02  0.33095520530E+02 -0.16243294407E+03  0.16948527720E+03  0.00000000000E+00 0.  1.
<mgrwt>
<rscale>  2 0.93631767E+02</rscale>
<asrwt>0</asrwt>
<pdfrwt beam="1">  1       21 0.16866140E-01 0.93631767E+02</pdfrwt>
<pdfrwt beam="2">  1       21 0.32744826E-01 0.93631767E+02</pdfrwt>
<totfact> 0.29001065E+05</totfact>
</mgrwt>
</event>
<event>
 5    1  0.1595802E+000  0.7841885E+02  0.7546771E-02  0.1333599E+00
         21   -1    0    0  503  502  0.00000000000E+00  0.00000000000E+00  0.93477989198E+03  0.93477989198E+03  0.00000000000E+00 0.  1.
         21   -1    0    0  501  503 -0.00000000000E+00 -0.00000000000E+00 -0.10964574755E+02  0.10964574755E+02  0.00000000000E+00 0.  1.
         24    1    1    2    0    0  0.45845784223E+01  0.44405619558E+02  0.29735117569E+03  0.31125201212E+03  0.80419002446E+02 0.  1.
          1    1    1    2  501    0  0.19174893707E+02 -0.33755901063E+02  0.98320771112E+02  0.10570766972E+03  0.00000000000E+00 0. -1.
         -2    1    1    2    0  502 -0.23759472130E+02 -0.10649718495E+02  0.52814337042E+03  0.52878478490E+03  0.00000000000E+00 0.  1.
<mgrwt>
<rscale>  2 0.78418852E+02</rscale>
<asrwt>0</asrwt>
<pdfrwt beam="1">  1       21 0.14381223E+00 0.78418852E+02</pdfrwt>
<pdfrwt beam="2">  1       21 0.16868584E-02 0.78418852E+02</pdfrwt>
<totfact> 0.55620309E+05</totfact>
</mgrwt>
</event>
<event>
 5    1  0.1595802E+000  0.9808180E+02  0.7546771E-02  0.1284382E+00
         21   -1    0    0  503  502  0.00000000000E+00  0.00000000000E+00  0.81832155899E+01  0.81832155899E+01  0.00000000000E+00 0.  1.
         21   -1    0    0  501  503 -0.00000000000E+00 -0.00000000000E+00 -0.13658759207E+04  0.13658759207E+04  0.00000000000E+00 0. -1.
         24    1    1    2    0    0 -0.21024869062E+02  0.51185084442E+01 -0.39268477792E+03  0.40141847867E+03  0.80419002446E+02 0.  1.
          1    1    1    2  501    0 -0.45300948676E+02  0.57825274599E+01 -0.58120194966E+03  0.58299341322E+03  0.00000000000E+00 0. -1.
         -2    1    1    2    0  502  0.66325817738E+02 -0.10901035904E+02 -0.38380597753E+03  0.38964724441E+03  0.00000000000E+00 0.  1.
<mgrwt>
<rscale>  2 0.98081801E+02</rscale>
<asrwt>0</asrwt>
<pdfrwt beam="1">  1       21 0.12589559E-02 0.98081801E+02</pdfrwt>
<pdfrwt beam="2">  1       21 0.21013481E+00 0.98081801E+02</pdfrwt>
<totfact> 0.31614437E+05</totfact>
</mgrwt>
</event>
<event>
 5    1  0.1595802E+000  0.9403699E+02  0.7546771E-02  0.1293360E+00
         21   -1    0    0  501  502  0.00000000000E+00  0.00000000000E+00  0.20587855776E+03  0.20587855776E+03  0.00000000000E+00 0.  1.
         21   -1    0    0  502  503 -0.00000000000E+00 -0.00000000000E+00 -0.57866155379E+02  0.57866155379E+02  0.00000000000E+00 0.  1.
         24    1    1    2    0    0  0.42219849123E+02 -0.26055644301E+00  0.61857142965E+01  0.91038797034E+02  0.80419002446E+02 0.  1.
          1    1    1    2  501    0  0.21626628970E+02  0.20970442466E+02  0.57634537937E+02  0.65032380404E+02  0.00000000000E+00 0. -1.
         -2    1    1    2    0  503 -0.63846478093E+02 -0.20709886023E+02  0.84192150152E+02  0.10767353570E+03  0.00000000000E+00 0.  1.
<mgrwt>
<rscale>  2 0.94036991E+02</rscale>
<asrwt>0</asrwt>
<pdfrwt beam="1">  1       21 0.31673624E-01 0.94036991E+02</pdfrwt>
<pdfrwt beam="2">  1       21 0.89024855E-02 0.94036991E+02</pdfrwt>
<totfact> 0.95246886E+05</totfact>
</mgrwt>
</event>
<event>
 5    1  0.1595802E+000  0.6167944E+02  0.7546771E-02  0.1390916E+00
         21   -1    0    0  501  502  0.00000000000E+00  0.00000000000E+00  0.37044568959E+03  0.37044568959E+03  0.00000000000E+00 0.  1.
         21   -1    0    0  502  503 -0.00000000000E+00 -0.00000000000E+00 -0.16445601277E+02  0.16445601277E+02  0.00000000000E+00 0. -1.
         24    1    1    2    0    0  0.16067117178E+01  0.17436042834E+01  0.14700208578E+03  0.16757819326E+03  0.80419002446E+02 0. -1.
          1    1    1    2  501    0 -0.21942298980E+02  0.26450981240E+01  0.19294723004E+03  0.19420889426E+03  0.00000000000E+00 0. -1.
         -2    1    1    2    0  503  0.20335587262E+02 -0.43887024074E+01  0.14050772493E+02  0.25104203349E+02  0.00000000000E+00 0.  1.
<mgrwt>
<rscale>  2 0.61679436E+02</rscale>
<asrwt>0</asrwt>
<pdfrwt beam="1">  1       21 0.56991638E-01 0.61679436E+02</pdfrwt>
<pdfrwt beam="2">  1       21 0.25300928E-02 0.61679436E+02</pdfrwt>
<totfact> 0.23423086E+06</totfact>
</mgrwt>
</event>
<event>
 5    1  0.1595802E+000  0.6834299E+02  0.7546771E-02  0.1365820E+00
         21   -1    0    0  501  502  0.00000000000E+00  0.00000000000E+00  0.26689805369E+02  0.26689805369E+02  0.00000000000E+00 0. -1.
         21   -1    0    0  502  503 -0.00000000000E+00 -0.00000000000E+00 -0.67338739200E+03  0.67338739200E+03  0.00000000000E+00 0. -1.
         24    1    1    2    0    0 -0.91477339439E+01 -0.31845990277E+00 -0.29431819266E+03  0.30524448716E+03  0.80419002446E+02 0. -1.
          1    1    1    2  501    0  0.17814845284E+02  0.24367170089E+02  0.98125607476E+01  0.31739786374E+02  0.00000000000E+00 0. -1.
         -2    1    1    2    0  503 -0.86671113406E+01 -0.24048710186E+02 -0.36219195472E+03  0.36309292384E+03  0.00000000000E+00 0.  1.
<mgrwt>
<rscale>  2 0.68342990E+02</rscale>
<asrwt>0</asrwt>
<pdfrwt beam="1">  1       21 0.41061243E-02 0.68342990E+02</pdfrwt>
<pdfrwt beam="2">  1       21 0.10359805E+00 0.68342990E+02</pdfrwt>
<totfact> 0.29267318E+05</totfact>
</mgrwt>
</event>
<event>
 5    1  0.1595802E+000  0.1091683E+03  0.7546771E-02  0.1262118E+00
         21   -1    0    0  501  502  0.00000000000E+00  0.00000000000E+00  0.59384295997E+03  0.59384295997E+03  0.00000000000E+00 0. -1.
         21   -1    0    0  502  503 -0.00000000000E+00 -0.00000000000E+00 -0.29634898927E+03  0.29634898927E+03  0.00000000000E+00 0.  1.
         24    1    1    2    0    0  0.63228838665E+02  0.61056902677E+02  0.15022054141E+03  0.19172704144E+03  0.80419002446E+02 0. -1.
          1    1    1    2  501    0 -0.28862285117E+02 -0.57894880018E+02  0.41929844081E+03  0.42425939130E+03  0.00000000000E+00 0. -1.
         -2    1    1    2    0  503 -0.34366553549E+02 -0.31620226584E+01 -0.27202501152E+03  0.27420551650E+03  0.00000000000E+00 0.  1.
<mgrwt>
<rscale>  2 0.10916835E+03</rscale>
<asrwt>0</asrwt>
<pdfrwt beam="1">  1       21 0.91360455E-01 0.10916835E+03</pdfrwt>
<pdfrwt beam="2">  1       21 0.45592152E-01 0.10916835E+03</pdfrwt>
<totfact> 0.50705998E+03</totfact>
</mgrwt>
</event>
<event>
 5    1  0.1595802E+000  0.1212518E+03  0.7546771E-02  0.1241046E+00
         21   -1    0    0  501  502  0.00000000000E+00  0.00000000000E+00  0.10954285316E+03  0.10954285316E+03  0.00000000000E+00 0. -1.
         21   -1    0    0  502  503 -0.00000000000E+00 -0.00000000000E+00 -0.35415178060E+03  0.35415178060E+03  0.00000000000E+00 0.  1.
         24    1    1    2    0    0  0.25911454551E+02 -0.52932470758E+02 -0.11539254596E+03  0.15249887067E+03  0.80419002446E+02 0.  0.
          1    1    1    2  501    0  0.10419850227E+01 -0.43072420128E+02  0.73547743158E+02  0.85238428142E+02  0.00000000000E+00 0. -1.
         -2    1    1    2    0  503 -0.26953439574E+02  0.96004890886E+02 -0.20276412463E+03  0.22595733495E+03  0.00000000000E+00 0.  1.
<mgrwt>
<rscale>  2 0.12125182E+03</rscale>
<asrwt>0</asrwt>
<pdfrwt beam="1">  1       21 0.16852746E-01 0.12125182E+03</pdfrwt>
<pdfrwt beam="2">  1       21 0.54484891E-01 0.12125182E+03</pdfrwt>
<totfact> 0.10370296E+05</totfact>
</mgrwt>
</event>
<event>
 5    1  0.1595802E+000  0.7231639E+02  0.7546771E-02  0.1352389E+00
         21   -1    0    0  503  502  0.00000000000E+00  0.00000000000E+00  0.23865792375E+02  0.23865792375E+02  0.00000000000E+00 0.  1.
         21   -1    0    0  501  503 -0.00000000000E+00 -0.00000000000E+00 -0.31795379453E+03  0.31795379453E+03  0.00000000000E+00 0.  1.
         24    1    1    2    0    0 -0.11357725666E+02  0.47096576068E+02 -0.18471274861E+03  0.20720304260E+03  0.80419002446E+02 0.  1.
          1    1    1    2  501    0  0.13283249164E+02 -0.22888408317E+02 -0.10699091092E+03  0.11021514852E+03  0.00000000000E+00 0. -1.
         -2    1    1    2    0  502 -0.19255234970E+01 -0.24208167752E+02 -0.23843426276E+01  0.24401395788E+02  0.00000000000E+00 0.  1.
<mgrwt>
<rscale>  2 0.72316385E+02</rscale>
<asrwt>0</asrwt>
<pdfrwt beam="1">  1       21 0.36716604E-02 0.72316385E+02</pdfrwt>
<pdfrwt beam="2">  1       21 0.48915968E-01 0.72316385E+02</pdfrwt>
<totfact> 0.17670214E+06</totfact>
</mgrwt>
</event>
<event>
 5    1  0.1595802E+000  0.7415983E+02  0.7546771E-02  0.1346493E+00
         21   -1    0    0  501  502  0.00000000000E+00  0.00000000000E+00  0.87747133145E+02  0.87747133145E+02  0.00000000000E+00 0.  1.
         21   -1    0    0  502  503 -0.00000000000E+00 -0.00000000000E+00 -0.13179286355E+03  0.13179286355E+03  0.00000000000E+00 0.  1.
         24    1    1    2    0    0  0.12609918143E+02 -0.30831351033E+01  0.15632787309E+02  0.82946463162E+02  0.80419002446E+02 0.  1.
          1    1    1    2  501    0 -0.18884021092E+02  0.32061708068E+02  0.26352703018E+02  0.45596319294E+02  0.00000000000E+00 0. -1.
         -2    1    1    2    0  503  0.62741029491E+01 -0.28978572964E+02 -0.86031220728E+02  0.90997214237E+02  0.00000000000E+00 0.  1.
<mgrwt>
<rscale>  2 0.74159831E+02</rscale>
<asrwt>0</asrwt>
<pdfrwt beam="1">  1       21 0.13499559E-01 0.74159831E+02</pdfrwt>
<pdfrwt beam="2">  1       21 0.20275825E-01 0.74159831E+02</pdfrwt>
<totfact> 0.10577624E+06</totfact>
</mgrwt>
</event>
<event>
 5    1  0.1595802E+000  0.1456240E+03  0.7546771E-02  0.1205956E+00
         21   -1    0    0  501  502  0.00000000000E+00  0.00000000000E+00  0.77933222524E+03  0.77933222524E+03  0.00000000000E+00 0. -1.
         21   -1    0    0  502  503 -0.00000000000E+00 -0.00000000000E+00 -0.22498110545E+03  0.22498110545E+03  0.00000000000E+00 0.  1.
         24    1    1    2    0    0 -0.35085535512E+02  0.74956474387E+01 -0.21777377437E+02  0.90711904704E+02  0.80419002446E+02 0.  1.
          1    1    1    2  501    0 -0.31152197013E+02  0.84367906999E+02  0.72275526504E+03  0.72832930482E+03  0.00000000000E+00 0. -1.
         -2    1    1    2    0  503  0.66237732524E+02 -0.91863554438E+02 -0.14662676782E+03  0.18527212117E+03  0.00000000000E+00 0.  1.
<mgrwt>
<rscale>  2 0.14562404E+03</rscale>
<asrwt>0</asrwt>
<pdfrwt beam="1">  1       21 0.11989726E+00 0.14562404E+03</pdfrwt>
<pdfrwt beam="2">  1       21 0.34612478E-01 0.14562404E+03</pdfrwt>
<totfact> 0.44421613E+03</totfact>
</mgrwt>
</event>
<event>
 5    1  0.1595802E+000  0.8736182E+02  0.7546771E-02  0.1309369E+00
         21   -1    0    0  501  502  0.00000000000E+00  0.00000000000E+00  0.19596514905E+03  0.19596514905E+03  0.00000000000E+00 0.  1.
         21   -1    0    0  502  503 -0.00000000000E+00 -0.00000000000E+00 -0.49725972623E+02  0.49725972623E+02  0.00000000000E+00 0. -1.
         24    1    1    2    0    0  0.19943028841E+02  0.40454384488E+02  0.81485057632E+02  0.12305003940E+03  0.80419002446E+02 0.  0.
          1    1    1    2  501    0  0.25770450916E+02 -0.19029491879E+02  0.64654696327E+02  0.72155855333E+02  0.00000000000E+00 0. -1.
         -2    1    1    2    0  503 -0.45713479756E+02 -0.21424892608E+02  0.99422465505E-01  0.50485226944E+02  0.00000000000E+00 0.  1.
<mgrwt>
<rscale>  2 0.87361820E+02</rscale>
<asrwt>0</asrwt>
<pdfrwt beam="1">  1       21 0.30148484E-01 0.87361820E+02</pdfrwt>
<pdfrwt beam="2">  1       21 0.76501497E-02 0.87361820E+02</pdfrwt>
<totfact> 0.13548536E+06</totfact>
</mgrwt>
</event>
<event>
 5    1  0.1595802E+000  0.7086535E+02  0.7546771E-02  0.1357175E+00
         21   -1    0    0  501  502  0.00000000000E+00  0.00000000000E+00  0.10534071799E+04  0.10534071799E+04  0.00000000000E+00 0.  1.
         21   -1    0    0  502  503 -0.00000000000E+00 -0.00000000000E+00 -0.89296246382E+01  0.89296246382E+01  0.00000000000E+00 0.  1.
         24    1    1    2    0    0  0.60882191628E+01 -0.53388192839E+01  0.91658263743E+03  0.92013940063E+03  0.80419002446E+02 0.  1.
          1    1    1    2  501    0 -0.33367431595E+02  0.20858226351E+01  0.84067004403E+02  0.90470975327E+02  0.00000000000E+00 0. -1.
         -2    1    1    2    0  503  0.27279212432E+02  0.32529966488E+01  0.43827913435E+02  0.51726428585E+02  0.00000000000E+00 0.  1.
<mgrwt>
<rscale>  2 0.70865347E+02</rscale>
<asrwt>0</asrwt>
<pdfrwt beam="1">  1       21 0.16206254E+00 0.70865347E+02</pdfrwt>
<pdfrwt beam="2">  1       21 0.13737892E-02 0.70865347E+02</pdfrwt>
<totfact> 0.56836540E+05</totfact>
</mgrwt>
</event>
<event>
 5    1  0.1595802E+000  0.7002785E+02  0.7546771E-02  0.1359998E+00
         21   -1    0    0  501  502  0.00000000000E+00  0.00000000000E+00  0.75937245568E+02  0.75937245568E+02  0.00000000000E+00 0.  1.
         21   -1    0    0  502  503 -0.00000000000E+00 -0.00000000000E+00 -0.26233677346E+03  0.26233677346E+03  0.00000000000E+00 0.  1.
         24    1    1    2    0    0  0.35009545826E+02 -0.29087683985E+02  0.27445472205E+02  0.96396221697E+02  0.80419002446E+02 0.  1.
          1    1    1    2  501    0 -0.20208931152E+02  0.76710926791E+01  0.44221665308E+01  0.22063592591E+02  0.00000000000E+00 0. -1.
         -2    1    1    2    0  503 -0.14800614674E+02  0.21416591306E+02 -0.21826716662E+03  0.21981420474E+03  0.00000000000E+00 0.  1.
<mgrwt>
<rscale>  2 0.70027848E+02</rscale>
<asrwt>0</asrwt>
<pdfrwt beam="1">  1       21 0.11682653E-01 0.70027848E+02</pdfrwt>
<pdfrwt beam="2">  1       21 0.40359503E-01 0.70027848E+02</pdfrwt>
<totfact> 0.37081652E+05</totfact>
</mgrwt>
</event>
<event>
 5    1  0.1598605E+000  0.1175743E+03  0.7546771E-02  0.1247153E+00
         21   -1    0    0  503  502  0.00000000000E+00  0.00000000000E+00  0.25228795396E+03  0.25228795396E+03  0.00000000000E+00 0. -1.
         21   -1    0    0  501  503 -0.00000000000E+00 -0.00000000000E+00 -0.13065572105E+03  0.13065572105E+03  0.00000000000E+00 0. -1.
         24    1    1    2    0    0 -0.48955405019E+02 -0.57514220901E+02  0.15198651037E+03  0.18780743483E+03  0.80419002446E+02 0. -1.
          1    1    1    2  501    0  0.66826293772E+02  0.23841026849E+01 -0.89900923421E+02  0.11204290927E+03  0.00000000000E+00 0. -1.
         -2    1    1    2    0  502 -0.17870888753E+02  0.55130118216E+02  0.59546645957E+02  0.83093330924E+02  0.00000000000E+00 0.  1.
<mgrwt>
<rscale>  2 0.11757433E+03</rscale>
<asrwt>0</asrwt>
<pdfrwt beam="1">  1       21 0.38813531E-01 0.11757433E+03</pdfrwt>
<pdfrwt beam="2">  1       21 0.20100880E-01 0.11757433E+03</pdfrwt>
<totfact> 0.14995122E+05</totfact>
</mgrwt>
</event>
<event>
 5    1  0.1595802E+000  0.1052435E+03  0.7546771E-02  0.1269641E+00
         21   -1    0    0  503  502  0.00000000000E+00  0.00000000000E+00  0.13592628973E+03  0.13592628973E+03  0.00000000000E+00 0.  1.
         21   -1    0    0  501  503 -0.00000000000E+00 -0.00000000000E+00 -0.33416187317E+03  0.33416187317E+03  0.00000000000E+00 0. -1.
         24    1    1    2    0    0  0.29751415797E+01 -0.79449449413E+02 -0.73522066956E+02  0.13488430881E+03  0.80419002446E+02 0.  1.
          1    1    1    2  501    0  0.23072568222E+02  0.14069139892E+02 -0.21726170411E+03  0.21893590883E+03  0.00000000000E+00 0. -1.
         -2    1    1    2    0  502 -0.26047709802E+02  0.65380309521E+02  0.92548187636E+02  0.11626794525E+03  0.00000000000E+00 0.  1.
<mgrwt>
<rscale>  2 0.10524355E+03</rscale>
<asrwt>0</asrwt>
<pdfrwt beam="1">  1       21 0.20911737E-01 0.10524355E+03</pdfrwt>
<pdfrwt beam="2">  1       21 0.51409519E-01 0.10524355E+03</pdfrwt>
<totfact> 0.79393690E+04</totfact>
</mgrwt>
</event>
<event>
 5    1  0.1595802E+000  0.1487349E+03  0.7546771E-02  0.1202036E+00
         21   -1    0    0  503  502  0.00000000000E+00  0.00000000000E+00  0.36894555802E+03  0.36894555802E+03  0.00000000000E+00 0.  1.
         21   -1    0    0  501  503 -0.00000000000E+00 -0.00000000000E+00 -0.23788302427E+03  0.23788302427E+03  0.00000000000E+00 0.  1.
         24    1    1    2    0    0 -0.57688820843E+02  0.10954320097E+03 -0.15975166253E+03  0.21752131519E+03  0.80419002446E+02 0.  1.
          1    1    1    2  501    0  0.48688311152E+02 -0.97681785946E+01 -0.26687712538E+02  0.56375552826E+02  0.00000000000E+00 0. -1.
         -2    1    1    2    0  502  0.90005096915E+01 -0.99775022380E+02  0.31750190882E+03  0.33293171427E+03  0.00000000000E+00 0.  1.
<mgrwt>
<rscale>  2 0.14873487E+03</rscale>
<asrwt>0</asrwt>
<pdfrwt beam="1">  1       21 0.56760855E-01 0.14873487E+03</pdfrwt>
<pdfrwt beam="2">  1       21 0.36597389E-01 0.14873487E+03</pdfrwt>
<totfact> 0.21585550E+04</totfact>
</mgrwt>
</event>
<event>
 5    1  0.1595802E+000  0.1239640E+03  0.7546771E-02  0.1236697E+00
         21   -1    0    0  503  502  0.00000000000E+00  0.00000000000E+00  0.21034119473E+03  0.21034119473E+03  0.00000000000E+00 0.  1.
         21   -1    0    0  501  503 -0.00000000000E+00 -0.00000000000E+00 -0.11381855381E+03  0.11381855381E+03  0.00000000000E+00 0. -1.
         24    1    1    2    0    0  0.71682393716E+02  0.41970807720E+02 -0.30340209375E+02  0.11953099401E+03  0.80419002446E+02 0. -1.
          1    1    1    2  501    0 -0.91454223381E+02 -0.56746167977E+02  0.40810537804E+02  0.11510648353E+03  0.00000000000E+00 0. -1.
         -2    1    1    2    0  502  0.19771829665E+02  0.14775360257E+02  0.86052312499E+02  0.89522271002E+02  0.00000000000E+00 0.  1.
<mgrwt>
<rscale>  2 0.12396401E+03</rscale>
<asrwt>0</asrwt>
<pdfrwt beam="1">  1       21 0.32360184E-01 0.12396401E+03</pdfrwt>
<pdfrwt beam="2">  1       21 0.17510547E-01 0.12396401E+03</pdfrwt>
<totfact> 0.27556289E+05</totfact>
</mgrwt>
</event>
<event>
 5    1  0.1595802E+000  0.8314589E+02  0.7546771E-02  0.1320354E+00
         21   -1    0    0  503  502  0.00000000000E+00  0.00000000000E+00  0.35147043267E+03  0.35147043267E+03  0.00000000000E+00 0.  1.
         21   -1    0    0  501  503 -0.00000000000E+00 -0.00000000000E+00 -0.20787120577E+02  0.20787120577E+02  0.00000000000E+00 0.  1.
         24    1    1    2    0    0 -0.39899876421E+02 -0.12096374956E+01  0.21535189329E+03  0.23331763169E+03  0.80419002446E+02 0.  1.
          1    1    1    2  501    0  0.31621473099E+02  0.31784369102E+02  0.56547626179E+02  0.72165072623E+02  0.00000000000E+00 0. -1.
         -2    1    1    2    0  502  0.82784033221E+01 -0.30574731607E+02  0.58783792632E+02  0.66774848937E+02  0.00000000000E+00 0.  1.
<mgrwt>
<rscale>  2 0.83145888E+02</rscale>
<asrwt>0</asrwt>
<pdfrwt beam="1">  1       21 0.54072370E-01 0.83145888E+02</pdfrwt>
<pdfrwt beam="2">  1       21 0.31980188E-02 0.83145888E+02</pdfrwt>
<totfact> 0.18127061E+06</totfact>
</mgrwt>
</event>
<event>
 5    1  0.1595802E+000  0.8177342E+02  0.7546771E-02  0.1324093E+00
         21   -1    0    0  501  502  0.00000000000E+00  0.00000000000E+00  0.18780664844E+02  0.18780664844E+02  0.00000000000E+00 0.  1.
         21   -1    0    0  502  503 -0.00000000000E+00 -0.00000000000E+00 -0.41018399671E+03  0.41018399671E+03  0.00000000000E+00 0. -1.
         24    1    1    2    0    0 -0.25913998122E+01  0.59562272409E+02 -0.28754365556E+03  0.30447159056E+03  0.80419002446E+02 0.  0.
          1    1    1    2  501    0  0.12213926729E+02 -0.33374216248E+02 -0.33646571557E+02  0.48939862013E+02  0.00000000000E+00 0. -1.
         -2    1    1    2    0  503 -0.96225269173E+01 -0.26188056161E+02 -0.70213104750E+02  0.75553208988E+02  0.00000000000E+00 0.  1.
<mgrwt>
<rscale>  2 0.81773420E+02</rscale>
<asrwt>0</asrwt>
<pdfrwt beam="1">  1       21 0.28893332E-02 0.81773420E+02</pdfrwt>
<pdfrwt beam="2">  1       21 0.63105226E-01 0.81773420E+02</pdfrwt>
<totfact> 0.15475824E+06</totfact>
</mgrwt>
</event>
<event>
 5    1  0.1595802E+000  0.6767503E+02  0.7546771E-02  0.1368183E+00
         21   -1    0    0  501  502  0.00000000000E+00  0.00000000000E+00  0.21714591801E+04  0.21714591801E+04  0.00000000000E+00 0. -1.
         21   -1    0    0  502  503 -0.00000000000E+00 -0.00000000000E+00 -0.39443932512E+01  0.39443932512E+01  0.00000000000E+00 0. -1.
         24    1    1    2    0    0 -0.24558145791E+02  0.35308355451E+02  0.12299033598E+04  0.12332798843E+04  0.80419002446E+02 0.  0.
          1    1    1    2  501    0  0.16880687165E+02 -0.15535588096E+02  0.88635478935E+03  0.88665163661E+03  0.00000000000E+00 0. -1.
         -2    1    1    2    0  503  0.76774586253E+01 -0.19772767355E+02  0.51256637700E+02  0.55472052496E+02  0.00000000000E+00 0.  1.
<mgrwt>
<rscale>  2 0.67675026E+02</rscale>
<asrwt>0</asrwt>
<pdfrwt beam="1">  1       21 0.33406969E+00 0.67675026E+02</pdfrwt>
<pdfrwt beam="2">  1       21 0.60683147E-03 0.67675026E+02</pdfrwt>
<totfact> 0.20902181E+05</totfact>
</mgrwt>
</event>
<event>
 5    1  0.1595802E+000  0.6732279E+02  0.7546771E-02  0.1369441E+00
         21   -1    0    0  503  502  0.00000000000E+00  0.00000000000E+00  0.37587078623E+03  0.37587078623E+03  0.00000000000E+00 0. -1.
         21   -1    0    0  501  503 -0.00000000000E+00 -0.00000000000E+00 -0.21917166766E+02  0.21917166766E+02  0.00000000000E+00 0. -1.
         24    1    1    2    0    0  0.86399032656E+01  0.40728204799E+02  0.21517413100E+03  0.23345354399E+03  0.80419002446E+02 0. -1.
          1    1    1    2  501    0 -0.11493470117E+02 -0.19242031588E+02 -0.14305741156E+01  0.22458899734E+02  0.00000000000E+00 0. -1.
         -2    1    1    2    0  502  0.28535668513E+01 -0.21486173211E+02  0.14021006258E+03  0.14187550927E+03  0.00000000000E+00 0.  1.
<mgrwt>
<rscale>  2 0.67322785E+02</rscale>
<asrwt>0</asrwt>
<pdfrwt beam="1">  1       21 0.57826270E-01 0.67322785E+02</pdfrwt>
<pdfrwt beam="2">  1       21 0.33718721E-02 0.67322785E+02</pdfrwt>
<totfact> 0.14373798E+06</totfact>
</mgrwt>
</event>
<event>
 5    1  0.1595802E+000  0.7558711E+02  0.7546771E-02  0.1342063E+00
         21   -1    0    0  501  502  0.00000000000E+00  0.00000000000E+00  0.93736629893E+02  0.93736629893E+02  0.00000000000E+00 0. -1.
         21   -1    0    0  502  503 -0.00000000000E+00 -0.00000000000E+00 -0.21368166033E+03  0.21368166033E+03  0.00000000000E+00 0. -1.
         24    1    1    2    0    0  0.43914710237E+02  0.27252949351E+02 -0.70387071080E+02  0.11871301847E+03  0.80419002446E+02 0. -1.
          1    1    1    2  501    0 -0.32453170768E+02 -0.84119154381E+01  0.64415572792E+02  0.72617729462E+02  0.00000000000E+00 0. -1.
         -2    1    1    2    0  503 -0.11461539469E+02 -0.18841033913E+02 -0.11397353215E+03  0.11608754229E+03  0.00000000000E+00 0.  1.
<mgrwt>
<rscale>  2 0.75587106E+02</rscale>
<asrwt>0</asrwt>
<pdfrwt beam="1">  1       21 0.14421020E-01 0.75587106E+02</pdfrwt>
<pdfrwt beam="2">  1       21 0.32874101E-01 0.75587106E+02</pdfrwt>
<totfact> 0.38167813E+05</totfact>
</mgrwt>
</event>
<event>
 5    1  0.1595802E+000  0.9749697E+02  0.7546771E-02  0.1285649E+00
         21   -1    0    0  501  502  0.00000000000E+00  0.00000000000E+00  0.54722110147E+02  0.54722110147E+02  0.00000000000E+00 0. -1.
         21   -1    0    0  502  503 -0.00000000000E+00 -0.00000000000E+00 -0.19472370795E+03  0.19472370795E+03  0.00000000000E+00 0.  1.
         24    1    1    2    0    0 -0.43882087697E+02  0.36933201589E+02 -0.98352020174E+02  0.13939165982E+03  0.80419002446E+02 0.  0.
          1    1    1    2  501    0  0.60525948360E+02 -0.56594771875E+01 -0.82170896408E+01  0.61342812693E+02  0.00000000000E+00 0. -1.
         -2    1    1    2    0  503 -0.16643860663E+02 -0.31273724401E+02 -0.33432487987E+02  0.48711345585E+02  0.00000000000E+00 0.  1.
<mgrwt>
<rscale>  2 0.97496973E+02</rscale>
<asrwt>0</asrwt>
<pdfrwt beam="1">  1       21 0.84187860E-02 0.97496973E+02</pdfrwt>
<pdfrwt beam="2">  1       21 0.29957494E-01 0.97496973E+02</pdfrwt>
<totfact> 0.11674480E+06</totfact>
</mgrwt>
</event>
<event>
 5    1  0.1595802E+000  0.7708064E+02  0.7546771E-02  0.1337546E+00
         21   -1    0    0  503  502  0.00000000000E+00  0.00000000000E+00  0.91661238378E+03  0.91661238378E+03  0.00000000000E+00 0.  1.
         21   -1    0    0  501  503 -0.00000000000E+00 -0.00000000000E+00 -0.24034354583E+02  0.24034354583E+02  0.00000000000E+00 0.  1.
         24    1    1    2    0    0 -0.75080994913E+01 -0.69260840611E+01  0.10810738366E+03  0.13512499604E+03  0.80419002446E+02 0.  1.
          1    1    1    2  501    0  0.28156529821E+02 -0.23261390524E+02  0.22973930308E+02  0.43147235537E+02  0.00000000000E+00 0. -1.
         -2    1    1    2    0  502 -0.20648430329E+02  0.30187474586E+02  0.76149671522E+03  0.76237450678E+03  0.00000000000E+00 0.  1.
<mgrwt>
<rscale>  2 0.77080641E+02</rscale>
<asrwt>0</asrwt>
<pdfrwt beam="1">  1       21 0.14101726E+00 0.77080641E+02</pdfrwt>
<pdfrwt beam="2">  1       21 0.36975937E-02 0.77080641E+02</pdfrwt>
<totfact> 0.16549737E+05</totfact>
</mgrwt>
</event>
<event>
 5    1  0.1595802E+000  0.6923166E+02  0.7546771E-02  0.1362725E+00
         21   -1    0    0  501  502  0.00000000000E+00  0.00000000000E+00  0.18848361145E+03  0.18848361145E+03  0.00000000000E+00 0. -1.
         21   -1    0    0  502  503 -0.00000000000E+00 -0.00000000000E+00 -0.47155591930E+02  0.47155591930E+02  0.00000000000E+00 0. -1.
         24    1    1    2    0    0 -0.89473465699E+01  0.42692544855E+01 -0.18870030226E+01  0.81049727201E+02  0.80419002446E+02 0. -1.
          1    1    1    2  501    0  0.12247566110E+02 -0.29525320078E+02  0.91909401446E+02  0.97309226055E+02  0.00000000000E+00 0. -1.
         -2    1    1    2    0  503 -0.33002195400E+01  0.25256065593E+02  0.51305621101E+02  0.57280250129E+02  0.00000000000E+00 0.  1.
<mgrwt>
<rscale>  2 0.69231657E+02</rscale>
<asrwt>0</asrwt>
<pdfrwt beam="1">  1       21 0.28997478E-01 0.69231657E+02</pdfrwt>
<pdfrwt beam="2">  1       21 0.72547066E-02 0.69231657E+02</pdfrwt>
<totfact> 0.15829381E+06</totfact>
</mgrwt>
</event>
<event>
 5    1  0.1595802E+000  0.1451838E+03  0.7546771E-02  0.1206519E+00
         21   -1    0    0  503  502  0.00000000000E+00  0.00000000000E+00  0.79048571759E+02  0.79048571759E+02  0.00000000000E+00 0. -1.
         21   -1    0    0  501  503 -0.00000000000E+00 -0.00000000000E+00 -0.14505693145E+04  0.14505693145E+04  0.00000000000E+00 0. -1.
         24    1    1    2    0    0 -0.58061359093E+02 -0.95251458698E+02 -0.11772853151E+03  0.18102813287E+03  0.80419002446E+02 0. -1.
          1    1    1    2  501    0  0.64244678023E+02  0.11523381471E+03 -0.12953570631E+04  0.13020584210E+04  0.00000000000E+00 0. -1.
         -2    1    1    2    0  502 -0.61833189295E+01 -0.19982356009E+02  0.41564851874E+02  0.46531332411E+02  0.00000000000E+00 0.  1.
<mgrwt>
<rscale>  2 0.14518384E+03</rscale>
<asrwt>0</asrwt>
<pdfrwt beam="1">  1       21 0.12161318E-01 0.14518384E+03</pdfrwt>
<pdfrwt beam="2">  1       21 0.22316452E+00 0.14518384E+03</pdfrwt>
<totfact> 0.57973343E+03</totfact>
</mgrwt>
</event>
<event>
 5    1  0.1595802E+000  0.1451706E+03  0.7546771E-02  0.1206536E+00
         21   -1    0    0  503  502  0.00000000000E+00  0.00000000000E+00  0.67789993015E+02  0.67789993015E+02  0.00000000000E+00 0.  1.
         21   -1    0    0  501  503 -0.00000000000E+00 -0.00000000000E+00 -0.91841491680E+03  0.91841491680E+03  0.00000000000E+00 0. -1.
         24    1    1    2    0    0  0.10141626509E+03 -0.61331712528E+02 -0.19494398006E+03  0.24190330527E+03  0.80419002446E+02 0. -1.
          1    1    1    2  501    0 -0.92699330456E+02  0.82579674562E+02 -0.69105940915E+03  0.70212226534E+03  0.00000000000E+00 0. -1.
         -2    1    1    2    0  502 -0.87169346320E+01 -0.21247962034E+02  0.35378465421E+02  0.42179339202E+02  0.00000000000E+00 0.  1.
<mgrwt>
<rscale>  2 0.14517058E+03</rscale>
<asrwt>0</asrwt>
<pdfrwt beam="1">  1       21 0.10429230E-01 0.14517058E+03</pdfrwt>
<pdfrwt beam="2">  1       21 0.14129460E+00 0.14517058E+03</pdfrwt>
<totfact> 0.27160923E+04</totfact>
</mgrwt>
</event>
<event>
 5    1  0.1595802E+000  0.1134544E+03  0.7546771E-02  0.1254303E+00
         21   -1    0    0  503  502  0.00000000000E+00  0.00000000000E+00  0.15813061475E+03  0.15813061475E+03  0.00000000000E+00 0.  1.
         21   -1    0    0  501  503 -0.00000000000E+00 -0.00000000000E+00 -0.16938868638E+03  0.16938868638E+03  0.00000000000E+00 0. -1.
         24    1    1    2    0    0  0.78187308179E+02  0.32329107575E+02 -0.10940818583E+03  0.15998685395E+03  0.80419002446E+02 0. -1.
          1    1    1    2  501    0  0.69978325838E+01 -0.23521785578E+02 -0.12557777756E+02  0.27567042638E+02  0.00000000000E+00 0. -1.
         -2    1    1    2    0  502 -0.85185140763E+02 -0.88073219973E+01  0.11070789196E+03  0.13996540455E+03  0.00000000000E+00 0.  1.
<mgrwt>
<rscale>  2 0.11345441E+03</rscale>
<asrwt>0</asrwt>
<pdfrwt beam="1">  1       21 0.24327787E-01 0.11345441E+03</pdfrwt>
<pdfrwt beam="2">  1       21 0.26059798E-01 0.11345441E+03</pdfrwt>
<totfact> 0.22767272E+05</totfact>
</mgrwt>
</event>
<event>
 5    1  0.1595802E+000  0.9268906E+02  0.7546771E-02  0.1296467E+00
         21   -1    0    0  503  502  0.00000000000E+00  0.00000000000E+00  0.13182721094E+03  0.13182721094E+03  0.00000000000E+00 0.  1.
         21   -1    0    0  501  503 -0.00000000000E+00 -0.00000000000E+00 -0.81512419290E+02  0.81512419290E+02  0.00000000000E+00 0. -1.
         24    1    1    2    0    0 -0.18254003277E+02 -0.45721908286E+02  0.73213922320E+02  0.11937837287E+03  0.80419002446E+02 0.  1.
          1    1    1    2  501    0  0.47686777367E+01  0.66306599009E+02 -0.17970411501E+02  0.68863931408E+02  0.00000000000E+00 0. -1.
         -2    1    1    2    0  502  0.13485325540E+02 -0.20584690723E+02 -0.49287191729E+01  0.25097325948E+02  0.00000000000E+00 0.  1.
<mgrwt>
<rscale>  2 0.92689062E+02</rscale>
<asrwt>0</asrwt>
<pdfrwt beam="1">  1       21 0.20281109E-01 0.92689062E+02</pdfrwt>
<pdfrwt beam="2">  1       21 0.12540372E-01 0.92689062E+02</pdfrwt>
<totfact> 0.12107957E+06</totfact>
</mgrwt>
</event>
<event>
 5    1  0.1595802E+000  0.7910037E+02  0.7546771E-02  0.1331624E+00
         21   -1    0    0  503  502  0.00000000000E+00  0.00000000000E+00  0.47129177157E+02  0.47129177157E+02  0.00000000000E+00 0. -1.
         21   -1    0    0  501  503 -0.00000000000E+00 -0.00000000000E+00 -0.15893632034E+03  0.15893632034E+03  0.00000000000E+00 0.  1.
         24    1    1    2    0    0 -0.47719919544E+02 -0.10584072156E+02 -0.86262983274E+02  0.12766256907E+03  0.80419002446E+02 0.  1.
          1    1    1    2  501    0  0.21022376976E+02  0.25864970853E+02 -0.32836891814E+02  0.46788871700E+02  0.00000000000E+00 0. -1.
         -2    1    1    2    0  502  0.26697542568E+02 -0.15280898696E+02  0.72927319021E+01  0.31614056727E+02  0.00000000000E+00 0.  1.
<mgrwt>
<rscale>  2 0.79100370E+02</rscale>
<asrwt>0</asrwt>
<pdfrwt beam="1">  1       21 0.72506426E-02 0.79100370E+02</pdfrwt>
<pdfrwt beam="2">  1       21 0.24451742E-01 0.79100370E+02</pdfrwt>
<totfact> 0.21935241E+06</totfact>
</mgrwt>
</event>
<event>
 5    1  0.1595802E+000  0.3861547E+03  0.7546771E-02  0.1048682E+00
         21   -1    0    0  503  502  0.00000000000E+00  0.00000000000E+00  0.18861243857E+03  0.18861243857E+03  0.00000000000E+00 0.  1.
         21   -1    0    0  501  503 -0.00000000000E+00 -0.00000000000E+00 -0.13706844368E+04  0.13706844368E+04  0.00000000000E+00 0. -1.
         24    1    1    2    0    0 -0.15350351753E+03  0.34039467872E+03 -0.38123514695E+03  0.53966593409E+03  0.80419002446E+02 0. -1.
          1    1    1    2  501    0  0.17190489785E+03 -0.31663135363E+03 -0.87139405514E+03  0.94293918539E+03  0.00000000000E+00 0. -1.
         -2    1    1    2    0  502 -0.18401380325E+02 -0.23763325086E+02  0.70557203825E+02  0.76691755936E+02  0.00000000000E+00 0.  1.
<mgrwt>
<rscale>  2 0.38615471E+03</rscale>
<asrwt>0</asrwt>
<pdfrwt beam="1">  1       21 0.29017299E-01 0.38615471E+03</pdfrwt>
<pdfrwt beam="2">  1       21 0.21087452E+00 0.38615471E+03</pdfrwt>
<totfact> 0.11208117E+03</totfact>
</mgrwt>
</event>
<event>
 5    1  0.1595802E+000  0.7026456E+02  0.7546771E-02  0.1359196E+00
         21   -1    0    0  501  502  0.00000000000E+00  0.00000000000E+00  0.14393261458E+03  0.14393261458E+03  0.00000000000E+00 0. -1.
         21   -1    0    0  502  503 -0.00000000000E+00 -0.00000000000E+00 -0.37921785489E+02  0.37921785489E+02  0.00000000000E+00 0. -1.
         24    1    1    2    0    0 -0.24906441286E+02 -0.26769286418E+02  0.42846640655E+02  0.98183379870E+02  0.80419002446E+02 0. -1.
          1    1    1    2  501    0  0.29951774601E+02  0.56570220957E+01  0.49146443123E+02  0.57831510203E+02  0.00000000000E+00 0. -1.
         -2    1    1    2    0  503 -0.50453333145E+01  0.21112264323E+02  0.14017745308E+02  0.25839509991E+02  0.00000000000E+00 0.  1.
<mgrwt>
<rscale>  2 0.70264561E+02</rscale>
<asrwt>0</asrwt>
<pdfrwt beam="1">  1       21 0.22143479E-01 0.70264561E+02</pdfrwt>
<pdfrwt beam="2">  1       21 0.58341209E-02 0.70264561E+02</pdfrwt>
<totfact> 0.37689993E+06</totfact>
</mgrwt>
</event>
<event>
 5    1  0.1595802E+000  0.9015851E+02  0.7546771E-02  0.1302468E+00
         21   -1    0    0  501  502  0.00000000000E+00  0.00000000000E+00  0.11891312922E+04  0.11891312922E+04  0.00000000000E+00 0.  1.
         21   -1    0    0  502  503 -0.00000000000E+00 -0.00000000000E+00 -0.30423038844E+02  0.30423038844E+02  0.00000000000E+00 0.  1.
         24    1    1    2    0    0  0.59908058408E+02 -0.39288240123E+02  0.84042929506E+03  0.84730228208E+03  0.80419002446E+02 0.  1.
          1    1    1    2  501    0 -0.31731291165E+02  0.13733628657E+02  0.33049566669E+03  0.33229937269E+03  0.00000000000E+00 0. -1.
         -2    1    1    2    0  503 -0.28176767243E+02  0.25554611466E+02 -0.12216708366E+02  0.39952676290E+02  0.00000000000E+00 0.  1.
<mgrwt>
<rscale>  2 0.90158514E+02</rscale>
<asrwt>0</asrwt>
<pdfrwt beam="1">  1       21 0.18294324E+00 0.90158514E+02</pdfrwt>
<pdfrwt beam="2">  1       21 0.46804684E-02 0.90158514E+02</pdfrwt>
<totfact> 0.56427194E+04</totfact>
</mgrwt>
</event>
<event>
 5    1  0.1595802E+000  0.7508010E+02  0.7546771E-02  0.1343623E+00
         21   -1    0    0  501  502  0.00000000000E+00  0.00000000000E+00  0.66628273962E+02  0.66628273962E+02  0.00000000000E+00 0. -1.
         21   -1    0    0  502  503 -0.00000000000E+00 -0.00000000000E+00 -0.42686166823E+03  0.42686166823E+03  0.00000000000E+00 0. -1.
         24    1    1    2    0    0  0.21177982431E+02  0.36444247461E+02 -0.32198002593E+03  0.33453705798E+03  0.80419002446E+02 0. -1.
          1    1    1    2  501    0 -0.27232904350E+02 -0.54357320062E+01  0.54390630460E+02  0.61069787487E+02  0.00000000000E+00 0. -1.
         -2    1    1    2    0  503  0.60549219191E+01 -0.31008515455E+02 -0.92643998795E+02  0.97883096717E+02  0.00000000000E+00 0.  1.
<mgrwt>
<rscale>  2 0.75080101E+02</rscale>
<asrwt>0</asrwt>
<pdfrwt beam="1">  1       21 0.10250503E-01 0.75080101E+02</pdfrwt>
<pdfrwt beam="2">  1       21 0.65671029E-01 0.75080101E+02</pdfrwt>
<totfact> 0.17216597E+05</totfact>
</mgrwt>
</event>
<event>
 5    1  0.1595802E+000  0.6858369E+02  0.7546771E-02  0.1364977E+00
         21   -1    0    0  501  502  0.00000000000E+00  0.00000000000E+00  0.11872357906E+03  0.11872357906E+03  0.00000000000E+00 0. -1.
         21   -1    0    0  502  503 -0.00000000000E+00 -0.00000000000E+00 -0.14283578662E+03  0.14283578662E+03  0.00000000000E+00 0.  1.
         24    1    1    2    0    0  0.25436755693E+02 -0.24618636990E+02 -0.19833722642E+01  0.87887744011E+02  0.80419002446E+02 0.  1.
          1    1    1    2  501    0 -0.23499927453E+02 -0.10855227588E+01  0.72172982527E+02  0.75910238814E+02  0.00000000000E+00 0. -1.
         -2    1    1    2    0  503 -0.19368282404E+01  0.25704159749E+02 -0.94301817826E+02  0.97761382853E+02  0.00000000000E+00 0.  1.
<mgrwt>
<rscale>  2 0.68583687E+02</rscale>
<asrwt>0</asrwt>
<pdfrwt beam="1">  1       21 0.18265166E-01 0.68583687E+02</pdfrwt>
<pdfrwt beam="2">  1       21 0.21974736E-01 0.68583687E+02</pdfrwt>
<totfact> 0.53227719E+05</totfact>
</mgrwt>
</event>
<event>
 5    1  0.1595802E+000  0.8264025E+02  0.7546771E-02  0.1321721E+00
         21   -1    0    0  501  502  0.00000000000E+00  0.00000000000E+00  0.23912795945E+03  0.23912795945E+03  0.00000000000E+00 0. -1.
         21   -1    0    0  502  503 -0.00000000000E+00 -0.00000000000E+00 -0.37276338338E+02  0.37276338338E+02  0.00000000000E+00 0.  1.
         24    1    1    2    0    0  0.15692344556E+02  0.50545448957E+02  0.10010185485E+03  0.13888372614E+03  0.80419002446E+02 0.  0.
          1    1    1    2  501    0 -0.20563556504E+02 -0.24980244062E+01  0.83276570768E+02  0.85814260009E+02  0.00000000000E+00 0. -1.
         -2    1    1    2    0  503  0.48712119488E+01 -0.48047424551E+02  0.18473195500E+02  0.51706311643E+02  0.00000000000E+00 0.  1.
<mgrwt>
<rscale>  2 0.82640252E+02</rscale>
<asrwt>0</asrwt>
<pdfrwt beam="1">  1       21 0.36788916E-01 0.82640252E+02</pdfrwt>
<pdfrwt beam="2">  1       21 0.57348214E-02 0.82640252E+02</pdfrwt>
<totfact> 0.14976433E+06</totfact>
</mgrwt>
</event>
<event>
 5    1  0.1595802E+000  0.8742227E+02  0.7546771E-02  0.1309217E+00
         21   -1    0    0  501  502  0.00000000000E+00  0.00000000000E+00  0.13848885558E+03  0.13848885558E+03  0.00000000000E+00 0. -1.
         21   -1    0    0  502  503 -0.00000000000E+00 -0.00000000000E+00 -0.84802543876E+02  0.84802543876E+02  0.00000000000E+00 0. -1.
         24    1    1    2    0    0  0.35890254827E+02  0.68956942009E+01  0.94693440607E+01  0.88839998995E+02  0.80419002446E+02 0. -1.
          1    1    1    2  501    0 -0.51963184315E+02 -0.28746843876E+02  0.73528309125E+02  0.94514368219E+02  0.00000000000E+00 0. -1.
         -2    1    1    2    0  503  0.16072929488E+02  0.21851149675E+02 -0.29311341485E+02  0.39937032239E+02  0.00000000000E+00 0.  1.
<mgrwt>
<rscale>  2 0.87422269E+02</rscale>
<asrwt>0</asrwt>
<pdfrwt beam="1">  1       21 0.21305978E-01 0.87422269E+02</pdfrwt>
<pdfrwt beam="2">  1       21 0.13046545E-01 0.87422269E+02</pdfrwt>
<totfact> 0.10300139E+06</totfact>
</mgrwt>
</event>
<event>
 5    1  0.1595802E+000  0.6695093E+02  0.7546771E-02  0.1370780E+00
         21   -1    0    0  503  502  0.00000000000E+00  0.00000000000E+00  0.54573925244E+02  0.54573925244E+02  0.00000000000E+00 0.  1.
         21   -1    0    0  501  503 -0.00000000000E+00 -0.00000000000E+00 -0.13573101185E+03  0.13573101185E+03  0.00000000000E+00 0.  1.
         24    1    1    2    0    0 -0.25269440788E+02  0.16589899243E+02 -0.59041294593E+02  0.10424423157E+03  0.80419002446E+02 0.  0.
          1    1    1    2  501    0  0.25559166373E+02  0.52954197533E+01 -0.46480930994E+02  0.53308436500E+02  0.00000000000E+00 0. -1.
         -2    1    1    2    0  502 -0.28972558485E+00 -0.21885318996E+02  0.24365138981E+02  0.32752269021E+02  0.00000000000E+00 0.  1.
<mgrwt>
<rscale>  2 0.66950930E+02</rscale>
<asrwt>0</asrwt>
<pdfrwt beam="1">  1       21 0.83959885E-02 0.66950930E+02</pdfrwt>
<pdfrwt beam="2">  1       21 0.20881694E-01 0.66950930E+02</pdfrwt>
<totfact> 0.22679512E+06</totfact>
</mgrwt>
</event>
<event>
 5    1  0.1595802E+000  0.1228236E+03  0.7546771E-02  0.1238510E+00
         21   -1    0    0  503  502  0.00000000000E+00  0.00000000000E+00  0.15089618725E+04  0.15089618725E+04  0.00000000000E+00 0. -1.
         21   -1    0    0  501  503 -0.00000000000E+00 -0.00000000000E+00 -0.23420700075E+02  0.23420700075E+02  0.00000000000E+00 0. -1.
         24    1    1    2    0    0  0.86373675755E+02  0.21983334981E+02  0.67716927269E+03  0.68772750324E+03  0.80419002446E+02 0. -1.
          1    1    1    2  501    0 -0.10437532576E+03 -0.12123933260E+02  0.13549187736E+03  0.17146208682E+03  0.00000000000E+00 0. -1.
         -2    1    1    2    0  502  0.18001650002E+02 -0.98594017213E+01  0.67288002237E+03  0.67319298252E+03  0.00000000000E+00 0.  1.
<mgrwt>
<rscale>  2 0.12282364E+03</rscale>
<asrwt>0</asrwt>
<pdfrwt beam="1">  1       21 0.23214790E+00 0.12282364E+03</pdfrwt>
<pdfrwt beam="2">  1       21 0.36031858E-02 0.12282364E+03</pdfrwt>
<totfact> 0.42044094E+04</totfact>
</mgrwt>
</event>
<event>
 5    1  0.1595802E+000  0.7113826E+02  0.7546771E-02  0.1356265E+00
         21   -1    0    0  503  502  0.00000000000E+00  0.00000000000E+00  0.28145407191E+02  0.28145407191E+02  0.00000000000E+00 0. -1.
         21   -1    0    0  501  503 -0.00000000000E+00 -0.00000000000E+00 -0.43774179431E+03  0.43774179431E+03  0.00000000000E+00 0. -1.
         24    1    1    2    0    0 -0.17873128738E+00 -0.10446409101E+02 -0.13395162499E+03  0.15658675934E+03  0.80419002446E+02 0. -1.
          1    1    1    2  501    0  0.26862504979E+02 -0.88154923903E+01 -0.27493329359E+03  0.27638310912E+03  0.00000000000E+00 0. -1.
         -2    1    1    2    0  502 -0.26683773691E+02  0.19261901491E+02 -0.71146853668E+00  0.32917333047E+02  0.00000000000E+00 0.  1.
<mgrwt>
<rscale>  2 0.71138258E+02</rscale>
<asrwt>0</asrwt>
<pdfrwt beam="1">  1       21 0.43300631E-02 0.71138258E+02</pdfrwt>
<pdfrwt beam="2">  1       21 0.67344884E-01 0.71138258E+02</pdfrwt>
<totfact> 0.69527621E+05</totfact>
</mgrwt>
</event>
<event>
 5    1  0.1595802E+000  0.9597260E+02  0.7546771E-02  0.1289000E+00
         21   -1    0    0  501  502  0.00000000000E+00  0.00000000000E+00  0.13141816895E+03  0.13141816895E+03  0.00000000000E+00 0.  1.
         21   -1    0    0  502  503 -0.00000000000E+00 -0.00000000000E+00 -0.71114784048E+02  0.71114784048E+02  0.00000000000E+00 0. -1.
         24    1    1    2    0    0  0.14874825349E+02  0.54102015849E+02  0.25110952722E+02  0.10122284549E+03  0.80419002446E+02 0.  0.
          1    1    1    2  501    0  0.29982114654E+01 -0.69940960037E+02  0.32803036449E+02  0.77309548978E+02  0.00000000000E+00 0. -1.
         -2    1    1    2    0  503 -0.17873036814E+02  0.15838944188E+02  0.23893957343E+01  0.24000558534E+02  0.00000000000E+00 0.  1.
<mgrwt>
<rscale>  2 0.95972598E+02</rscale>
<asrwt>0</asrwt>
<pdfrwt beam="1">  1       21 0.20218180E-01 0.95972598E+02</pdfrwt>
<pdfrwt beam="2">  1       21 0.10940736E-01 0.95972598E+02</pdfrwt>
<totfact> 0.15483075E+06</totfact>
</mgrwt>
</event>
<event>
 5    1  0.1595802E+000  0.7818704E+02  0.7546771E-02  0.1334277E+00
         21   -1    0    0  503  502  0.00000000000E+00  0.00000000000E+00  0.35204720964E+03  0.35204720964E+03  0.00000000000E+00 0. -1.
         21   -1    0    0  501  503 -0.00000000000E+00 -0.00000000000E+00 -0.21410178792E+02  0.21410178792E+02  0.00000000000E+00 0.  1.
         24    1    1    2    0    0  0.17768480296E+02  0.22917205216E+02  0.19666091251E+03  0.21443798090E+03  0.80419002446E+02 0. -1.
          1    1    1    2  501    0 -0.13128587529E+02 -0.45745128674E+02  0.39907656311E+02  0.62109561584E+02  0.00000000000E+00 0. -1.
         -2    1    1    2    0  502 -0.46398927679E+01  0.22827923458E+02  0.94068462021E+02  0.96909845946E+02  0.00000000000E+00 0.  1.
<mgrwt>
<rscale>  2 0.78187041E+02</rscale>
<asrwt>0</asrwt>
<pdfrwt beam="1">  1       21 0.54161105E-01 0.78187041E+02</pdfrwt>
<pdfrwt beam="2">  1       21 0.32938739E-02 0.78187041E+02</pdfrwt>
<totfact> 0.17182646E+06</totfact>
</mgrwt>
</event>
<event>
 5    1  0.1595802E+000  0.1239402E+03  0.7546771E-02  0.1236735E+00
         21   -1    0    0  503  502  0.00000000000E+00  0.00000000000E+00  0.31468839833E+02  0.31468839833E+02  0.00000000000E+00 0.  1.
         21   -1    0    0  501  503 -0.00000000000E+00 -0.00000000000E+00 -0.80223450224E+03  0.80223450224E+03  0.00000000000E+00 0.  1.
         24    1    1    2    0    0  0.77801154239E+01  0.89402712134E+02 -0.19740271450E+03  0.23127564243E+03  0.80419002446E+02 0.  0.
          1    1    1    2  501    0 -0.21139273340E+02 -0.10484802804E+03 -0.57205123731E+03  0.58196442844E+03  0.00000000000E+00 0. -1.
         -2    1    1    2    0  502  0.13359157916E+02  0.15445315910E+02 -0.13117105969E+01  0.20463271207E+02  0.00000000000E+00 0.  1.
<mgrwt>
<rscale>  2 0.12394022E+03</rscale>
<asrwt>0</asrwt>
<pdfrwt beam="1">  1       21 0.48413607E-02 0.12394022E+03</pdfrwt>
<pdfrwt beam="2">  1       21 0.12342067E+00 0.12394022E+03</pdfrwt>
<totfact> 0.14382791E+05</totfact>
</mgrwt>
</event>
<event>
 5    1  0.1595802E+000  0.9378740E+02  0.7546771E-02  0.1293931E+00
         21   -1    0    0  501  502  0.00000000000E+00  0.00000000000E+00  0.78499169517E+03  0.78499169517E+03  0.00000000000E+00 0. -1.
         21   -1    0    0  502  503 -0.00000000000E+00 -0.00000000000E+00 -0.30296382181E+02  0.30296382181E+02  0.00000000000E+00 0.  1.
         24    1    1    2    0    0  0.97994586571E+01  0.69613078622E+01  0.19230092068E+03  0.20878541435E+03  0.80419002446E+02 0. -1.
          1    1    1    2  501    0 -0.28241216112E+02 -0.51122950413E+02  0.55501493077E+03  0.55807947080E+03  0.00000000000E+00 0. -1.
         -2    1    1    2    0  503  0.18441757455E+02  0.44161642550E+02  0.73794615425E+01  0.48423192206E+02  0.00000000000E+00 0.  1.
<mgrwt>
<rscale>  2 0.93787399E+02</rscale>
<asrwt>0</asrwt>
<pdfrwt beam="1">  1       21 0.12076794E+00 0.93787399E+02</pdfrwt>
<pdfrwt beam="2">  1       21 0.46609825E-02 0.93787399E+02</pdfrwt>
<totfact> 0.16381834E+05</totfact>
</mgrwt>
</event>
<event>
 5    1  0.1595802E+000  0.1287686E+03  0.7546771E-02  0.1229294E+00
         21   -1    0    0  503  502  0.00000000000E+00  0.00000000000E+00  0.11931167054E+04  0.11931167054E+04  0.00000000000E+00 0.  1.
         21   -1    0    0  501  503 -0.00000000000E+00 -0.00000000000E+00 -0.21212716001E+02  0.21212716001E+02  0.00000000000E+00 0. -1.
         24    1    1    2    0    0 -0.83369351228E+02  0.52866112140E+02  0.34199838337E+03  0.36493202753E+03  0.80419002446E+02 0.  1.
          1    1    1    2  501    0  0.89767496906E+01  0.22552841640E+02  0.17039226285E+02  0.29657173389E+02  0.00000000000E+00 0. -1.
         -2    1    1    2    0  502  0.74392601537E+02 -0.75418953780E+02  0.81286637975E+03  0.81974022049E+03  0.00000000000E+00 0.  1.
<mgrwt>
<rscale>  2 0.12876862E+03</rscale>
<asrwt>0</asrwt>
<pdfrwt beam="1">  1       21 0.18355636E+00 0.12876862E+03</pdfrwt>
<pdfrwt beam="2">  1       21 0.32634957E-02 0.12876862E+03</pdfrwt>
<totfact> 0.98305014E+04</totfact>
</mgrwt>
</event>
<event>
 5    1  0.1595802E+000  0.1103418E+03  0.7546771E-02  0.1259938E+00
         21   -1    0    0  501  502  0.00000000000E+00  0.00000000000E+00  0.60782820580E+03  0.60782820580E+03  0.00000000000E+00 0. -1.
         21   -1    0    0  502  503 -0.00000000000E+00 -0.00000000000E+00 -0.96085991812E+02  0.96085991812E+02  0.00000000000E+00 0.  1.
         24    1    1    2    0    0  0.68906524383E+02 -0.22353973321E+01  0.20175985813E+02  0.10783038747E+03  0.80419002446E+02 0.  0.
          1    1    1    2  501    0 -0.84482040625E+02  0.24155223129E+02  0.53653834738E+03  0.54368565201E+03  0.00000000000E+00 0. -1.
         -2    1    1    2    0  503  0.15575516242E+02 -0.21919825797E+02 -0.44972119209E+02  0.52398158129E+02  0.00000000000E+00 0.  1.
<mgrwt>
<rscale>  2 0.11034177E+03</rscale>
<asrwt>0</asrwt>
<pdfrwt beam="1">  1       21 0.93512029E-01 0.11034177E+03</pdfrwt>
<pdfrwt beam="2">  1       21 0.14782461E-01 0.11034177E+03</pdfrwt>
<totfact> 0.40634410E+04</totfact>
</mgrwt>
</event>
<event>
 5    1  0.1595802E+000  0.1268586E+03  0.7546771E-02  0.1232193E+00
         21   -1    0    0  501  502  0.00000000000E+00  0.00000000000E+00  0.28921538577E+03  0.28921538577E+03  0.00000000000E+00 0. -1.
         21   -1    0    0  502  503 -0.00000000000E+00 -0.00000000000E+00 -0.65472073542E+02  0.65472073542E+02  0.00000000000E+00 0. -1.
         24    1    1    2    0    0  0.11094118266E+02 -0.10902420007E+03  0.11038206882E+03  0.17510217798E+03  0.80419002446E+02 0. -1.
          1    1    1    2  501    0  0.79359077573E+01  0.91734931949E+02  0.12165282536E+03  0.15257026673E+03  0.00000000000E+00 0. -1.
         -2    1    1    2    0  503 -0.19030026024E+02  0.17289268122E+02 -0.82915819554E+01  0.27015014602E+02  0.00000000000E+00 0.  1.
<mgrwt>
<rscale>  2 0.12685861E+03</rscale>
<asrwt>0</asrwt>
<pdfrwt beam="1">  1       21 0.44494674E-01 0.12685861E+03</pdfrwt>
<pdfrwt beam="2">  1       21 0.10072627E-01 0.12685861E+03</pdfrwt>
<totfact> 0.39290409E+05</totfact>
</mgrwt>
</event>
<event>
 5    1  0.1595802E+000  0.1163923E+03  0.7546771E-02  0.1249170E+00
         21   -1    0    0  503  502  0.00000000000E+00  0.00000000000E+00  0.63600432290E+03  0.63600432290E+03  0.00000000000E+00 0.  1.
         21   -1    0    0  501  503 -0.00000000000E+00 -0.00000000000E+00 -0.40596447736E+02  0.40596447736E+02  0.00000000000E+00 0.  1.
         24    1    1    2    0    0 -0.40174011792E+02 -0.85750256356E+02  0.88316349058E+02  0.15242719952E+03  0.80419002446E+02 0.  1.
          1    1    1    2  501    0  0.35617056057E+02  0.16679907011E+02  0.59907164876E+02  0.71663535941E+02  0.00000000000E+00 0. -1.
         -2    1    1    2    0  502  0.45569557341E+01  0.69070349345E+02  0.44718436123E+03  0.45251003517E+03  0.00000000000E+00 0.  1.
<mgrwt>
<rscale>  2 0.11639228E+03</rscale>
<asrwt>0</asrwt>
<pdfrwt beam="1">  1       21 0.97846811E-01 0.11639228E+03</pdfrwt>
<pdfrwt beam="2">  1       21 0.62456078E-02 0.11639228E+03</pdfrwt>
<totfact> 0.16342960E+05</totfact>
</mgrwt>
</event>
<event>
 5    1  0.1595802E+000  0.7518677E+02  0.7546771E-02  0.1343294E+00
         21   -1    0    0  501  502  0.00000000000E+00  0.00000000000E+00  0.19802356033E+02  0.19802356033E+02  0.00000000000E+00 0. -1.
         21   -1    0    0  502  503 -0.00000000000E+00 -0.00000000000E+00 -0.44501339414E+03  0.44501339414E+03  0.00000000000E+00 0.  1.
         24    1    1    2    0    0  0.30509353196E+02 -0.30421855175E+01 -0.12075179459E+03  0.14828448124E+03  0.80419002446E+02 0. -1.
          1    1    1    2  501    0 -0.30252905350E+02  0.26879589928E+02 -0.69946818921E+02  0.80810321828E+02  0.00000000000E+00 0. -1.
         -2    1    1    2    0  503 -0.25644784562E+00 -0.23837404411E+02 -0.23451242460E+03  0.23572094711E+03  0.00000000000E+00 0.  1.
<mgrwt>
<rscale>  2 0.75186769E+02</rscale>
<asrwt>0</asrwt>
<pdfrwt beam="1">  1       21 0.30465162E-02 0.75186769E+02</pdfrwt>
<pdfrwt beam="2">  1       21 0.68463601E-01 0.75186769E+02</pdfrwt>
<totfact> 0.11919917E+06</totfact>
</mgrwt>
</event>
<event>
 5    1  0.1595802E+000  0.6856044E+02  0.7546771E-02  0.1365058E+00
         21   -1    0    0  501  502  0.00000000000E+00  0.00000000000E+00  0.24168361387E+03  0.24168361387E+03  0.00000000000E+00 0. -1.
         21   -1    0    0  502  503 -0.00000000000E+00 -0.00000000000E+00 -0.46616044123E+02  0.46616044123E+02  0.00000000000E+00 0.  1.
         24    1    1    2    0    0 -0.23302365942E+01  0.36726641117E+02  0.88254519502E+02  0.12494139561E+03  0.80419002446E+02 0.  1.
          1    1    1    2  501    0  0.17136939259E+02 -0.20320945708E+02  0.12919688926E+03  0.13190319070E+03  0.00000000000E+00 0. -1.
         -2    1    1    2    0  503 -0.14806702665E+02 -0.16405695409E+02 -0.22383839015E+02  0.31455071685E+02  0.00000000000E+00 0.  1.
<mgrwt>
<rscale>  2 0.68560441E+02</rscale>
<asrwt>0</asrwt>
<pdfrwt beam="1">  1       21 0.37182094E-01 0.68560441E+02</pdfrwt>
<pdfrwt beam="2">  1       21 0.71716992E-02 0.68560441E+02</pdfrwt>
<totfact> 0.10023939E+06</totfact>
</mgrwt>
</event>
<event>
 5    1  0.1595802E+000  0.8292205E+02  0.7546771E-02  0.1320958E+00
         21   -1    0    0  501  502  0.00000000000E+00  0.00000000000E+00  0.31592966538E+02  0.31592966538E+02  0.00000000000E+00 0.  1.
         21   -1    0    0  502  503 -0.00000000000E+00 -0.00000000000E+00 -0.27710913246E+03  0.27710913246E+03  0.00000000000E+00 0. -1.
         24    1    1    2    0    0  0.13738077718E+02 -0.33732880409E+02 -0.85928806066E+02  0.12319747427E+03  0.80419002446E+02 0.  0.
          1    1    1    2  501    0 -0.24150075518E+02 -0.14532604856E+02 -0.13409244476E+02  0.31212667122E+02  0.00000000000E+00 0. -1.
         -2    1    1    2    0  503  0.10411997801E+02  0.48265485265E+02 -0.14617811538E+03  0.15429195760E+03  0.00000000000E+00 0.  1.
<mgrwt>
<rscale>  2 0.82922053E+02</rscale>
<asrwt>0</asrwt>
<pdfrwt beam="1">  1       21 0.48604565E-02 0.82922053E+02</pdfrwt>
<pdfrwt beam="2">  1       21 0.42632173E-01 0.82922053E+02</pdfrwt>
<totfact> 0.14752984E+06</totfact>
</mgrwt>
</event>
<event>
 5    1  0.1595802E+000  0.7956541E+02  0.7546771E-02  0.1330289E+00
         21   -1    0    0  501  502  0.00000000000E+00  0.00000000000E+00  0.36289372054E+03  0.36289372054E+03  0.00000000000E+00 0. -1.
         21   -1    0    0  502  503 -0.00000000000E+00 -0.00000000000E+00 -0.21076183651E+02  0.21076183651E+02  0.00000000000E+00 0.  1.
         24    1    1    2    0    0  0.23243027523E+00 -0.24326566499E+02  0.19593281479E+03  0.21318705338E+03  0.80419002446E+02 0.  0.
          1    1    1    2  501    0  0.26330427507E+01  0.49603745987E+02  0.13359438526E+03  0.14253043290E+03  0.00000000000E+00 0. -1.
         -2    1    1    2    0  503 -0.28654730259E+01 -0.25277179487E+02  0.12290336843E+02  0.28252417918E+02  0.00000000000E+00 0.  1.
<mgrwt>
<rscale>  2 0.79565411E+02</rscale>
<asrwt>0</asrwt>
<pdfrwt beam="1">  1       21 0.55829799E-01 0.79565411E+02</pdfrwt>
<pdfrwt beam="2">  1       21 0.32424901E-02 0.79565411E+02</pdfrwt>
<totfact> 0.16567540E+06</totfact>
</mgrwt>
</event>
<event>
 5    1  0.1595802E+000  0.6748437E+02  0.7546771E-02  0.1368863E+00
         21   -1    0    0  503  502  0.00000000000E+00  0.00000000000E+00  0.32270205884E+02  0.32270205884E+02  0.00000000000E+00 0.  1.
         21   -1    0    0  501  503 -0.00000000000E+00 -0.00000000000E+00 -0.17543725772E+03  0.17543725772E+03  0.00000000000E+00 0. -1.
         24    1    1    2    0    0 -0.25927872009E+01 -0.97769330455E+01 -0.74297898238E+02  0.10995319278E+03  0.80419002446E+02 0. -1.
          1    1    1    2  501    0 -0.44122874307E+01  0.31131146517E+02 -0.68394233873E+02  0.75275412924E+02  0.00000000000E+00 0. -1.
         -2    1    1    2    0  502  0.70050746316E+01 -0.21354213472E+02 -0.47491972084E+00  0.22478857896E+02  0.00000000000E+00 0.  1.
<mgrwt>
<rscale>  2 0.67484366E+02</rscale>
<asrwt>0</asrwt>
<pdfrwt beam="1">  1       21 0.49646469E-02 0.67484366E+02</pdfrwt>
<pdfrwt beam="2">  1       21 0.26990348E-01 0.67484366E+02</pdfrwt>
<totfact> 0.34046204E+06</totfact>
</mgrwt>
</event>
<event>
 5    1  0.1595802E+000  0.8321207E+02  0.7546771E-02  0.1320176E+00
         21   -1    0    0  503  502  0.00000000000E+00  0.00000000000E+00  0.36891512513E+02  0.36891512513E+02  0.00000000000E+00 0.  1.
         21   -1    0    0  501  503 -0.00000000000E+00 -0.00000000000E+00 -0.29742973588E+03  0.29742973588E+03  0.00000000000E+00 0. -1.
         24    1    1    2    0    0  0.27590208948E+02 -0.53686917289E+00 -0.22379412798E+03  0.23940036661E+03  0.80419002446E+02 0. -1.
          1    1    1    2  501    0  0.12857626194E+02 -0.28730419915E+02 -0.31811512343E+02  0.44751847977E+02  0.00000000000E+00 0. -1.
         -2    1    1    2    0  502 -0.40447835142E+02  0.29267289087E+02 -0.49325830451E+01  0.50169033812E+02  0.00000000000E+00 0.  1.
<mgrwt>
<rscale>  2 0.83212067E+02</rscale>
<asrwt>0</asrwt>
<pdfrwt beam="1">  1       21 0.56756170E-02 0.83212067E+02</pdfrwt>
<pdfrwt beam="2">  1       21 0.45758423E-01 0.83212067E+02</pdfrwt>
<totfact> 0.98929970E+05</totfact>
</mgrwt>
</event>
<event>
 5    1  0.1595802E+000  0.9254108E+02  0.7546771E-02  0.1296812E+00
         21   -1    0    0  501  502  0.00000000000E+00  0.00000000000E+00  0.30215572735E+03  0.30215572735E+03  0.00000000000E+00 0. -1.
         21   -1    0    0  502  503 -0.00000000000E+00 -0.00000000000E+00 -0.59752462282E+02  0.59752462282E+02  0.00000000000E+00 0. -1.
         24    1    1    2    0    0 -0.69764457087E+02 -0.12071681581E+02  0.33254045223E+02  0.11218668569E+03  0.80419002446E+02 0. -1.
          1    1    1    2  501    0  0.53642606134E+02 -0.56976276419E+01  0.21767430562E+03  0.22425899197E+03  0.00000000000E+00 0. -1.
         -2    1    1    2    0  503  0.16121850953E+02  0.17769309223E+02 -0.85250857712E+01  0.25462511970E+02  0.00000000000E+00 0.  1.
<mgrwt>
<rscale>  2 0.92541084E+02</rscale>
<asrwt>0</asrwt>
<pdfrwt beam="1">  1       21 0.46485496E-01 0.92541084E+02</pdfrwt>
<pdfrwt beam="2">  1       21 0.91926867E-02 0.92541084E+02</pdfrwt>
<totfact> 0.42310864E+05</totfact>
</mgrwt>
</event>
<event>
 5    1  0.1595802E+000  0.8154146E+02  0.7546771E-02  0.1324733E+00
         21   -1    0    0  503  502  0.00000000000E+00  0.00000000000E+00  0.24594519709E+03  0.24594519709E+03  0.00000000000E+00 0. -1.
         21   -1    0    0  501  503 -0.00000000000E+00 -0.00000000000E+00 -0.35038142481E+02  0.35038142481E+02  0.00000000000E+00 0.  1.
         24    1    1    2    0    0  0.12256679911E+02 -0.41388670737E+01  0.14904217732E+03  0.16984741092E+03  0.80419002446E+02 0. -1.
          1    1    1    2  501    0 -0.35579071454E+02  0.30192001609E+02  0.86455334669E+01  0.47457059913E+02  0.00000000000E+00 0. -1.
         -2    1    1    2    0  502  0.23322391543E+02 -0.26053134536E+02  0.53219343826E+02  0.63678868738E+02  0.00000000000E+00 0.  1.
<mgrwt>
<rscale>  2 0.81541460E+02</rscale>
<asrwt>0</asrwt>
<pdfrwt beam="1">  1       21 0.37837722E-01 0.81541460E+02</pdfrwt>
<pdfrwt beam="2">  1       21 0.53904836E-02 0.81541460E+02</pdfrwt>
<totfact> 0.15712173E+06</totfact>
</mgrwt>
</event>
<event>
 5    1  0.1595802E+000  0.9773897E+02  0.7546771E-02  0.1285124E+00
         21   -1    0    0  503  502  0.00000000000E+00  0.00000000000E+00  0.41945470529E+02  0.41945470529E+02  0.00000000000E+00 0.  1.
         21   -1    0    0  501  503 -0.00000000000E+00 -0.00000000000E+00 -0.27838454437E+03  0.27838454437E+03  0.00000000000E+00 0. -1.
         24    1    1    2    0    0  0.24812906585E+02  0.12395838430E+02 -0.48769454122E+02  0.98056171419E+02  0.80419002446E+02 0.  0.
          1    1    1    2  501    0 -0.66964516304E+02 -0.19953208352E+01 -0.15191185104E+03  0.16602842599E+03  0.00000000000E+00 0. -1.
         -2    1    1    2    0  502  0.42151609719E+02 -0.10400517594E+02 -0.35757768680E+02  0.56245417494E+02  0.00000000000E+00 0.  1.
<mgrwt>
<rscale>  2 0.97738969E+02</rscale>
<asrwt>0</asrwt>
<pdfrwt beam="1">  1       21 0.64531494E-02 0.97738969E+02</pdfrwt>
<pdfrwt beam="2">  1       21 0.42828391E-01 0.97738969E+02</pdfrwt>
<totfact> 0.91280065E+05</totfact>
</mgrwt>
</event>
<event>
 5    1  0.1595802E+000  0.6321537E+02  0.7546771E-02  0.1384813E+00
         21   -1    0    0  501  502  0.00000000000E+00  0.00000000000E+00  0.30864497696E+02  0.30864497696E+02  0.00000000000E+00 0. -1.
         21   -1    0    0  502  503 -0.00000000000E+00 -0.00000000000E+00 -0.14933665508E+03  0.14933665508E+03  0.00000000000E+00 0.  1.
         24    1    1    2    0    0  0.74088660386E+01 -0.19437596297E+02 -0.10670112558E+03  0.13522225260E+03  0.80419002446E+02 0.  1.
          1    1    1    2  501    0  0.13676427079E+02  0.17472070251E+02 -0.49833298453E+01  0.22740964642E+02  0.00000000000E+00 0. -1.
         -2    1    1    2    0  503 -0.21085293118E+02  0.19655260459E+01 -0.67877019571E+01  0.22237935524E+02  0.00000000000E+00 0.  1.
<mgrwt>
<rscale>  2 0.63215373E+02</rscale>
<asrwt>0</asrwt>
<pdfrwt beam="1">  1       21 0.47483843E-02 0.63215373E+02</pdfrwt>
<pdfrwt beam="2">  1       21 0.22974870E-01 0.63215373E+02</pdfrwt>
<totfact> 0.49145490E+06</totfact>
</mgrwt>
</event>
<event>
 5    1  0.1595802E+000  0.6534140E+02  0.7546771E-02  0.1376692E+00
         21   -1    0    0  501  502  0.00000000000E+00  0.00000000000E+00  0.47084910039E+03  0.47084910039E+03  0.00000000000E+00 0.  1.
         21   -1    0    0  502  503 -0.00000000000E+00 -0.00000000000E+00 -0.37068800919E+02  0.37068800919E+02  0.00000000000E+00 0.  1.
         24    1    1    2    0    0 -0.17656783077E+01  0.33622128437E+01  0.27319208371E+03  0.28480792238E+03  0.80419002446E+02 0.  1.
          1    1    1    2  501    0  0.19790575562E+01  0.23363718790E+02  0.18525925434E+03  0.18673717183E+03  0.00000000000E+00 0. -1.
         -2    1    1    2    0  503 -0.21337924849E+00 -0.26725931633E+02 -0.24671038572E+02  0.36372807104E+02  0.00000000000E+00 0.  1.
<mgrwt>
<rscale>  2 0.65341396E+02</rscale>
<asrwt>0</asrwt>
<pdfrwt beam="1">  1       21 0.72438319E-01 0.65341396E+02</pdfrwt>
<pdfrwt beam="2">  1       21 0.57028928E-02 0.65341396E+02</pdfrwt>
<totfact> 0.37746822E+05</totfact>
</mgrwt>
</event>
<event>
 5    1  0.1595802E+000  0.8721790E+02  0.7546771E-02  0.1309732E+00
         21   -1    0    0  501  502  0.00000000000E+00  0.00000000000E+00  0.14280357201E+02  0.14280357201E+02  0.00000000000E+00 0. -1.
         21   -1    0    0  502  503 -0.00000000000E+00 -0.00000000000E+00 -0.59058875896E+03  0.59058875896E+03  0.00000000000E+00 0. -1.
         24    1    1    2    0    0 -0.14314075482E+02 -0.16286703536E+02 -0.28561425930E+03  0.29751112674E+03  0.80419002446E+02 0.  1.
          1    1    1    2  501    0 -0.31743251546E+01 -0.35933864336E+02 -0.58547977676E+02  0.68769067438E+02  0.00000000000E+00 0. -1.
         -2    1    1    2    0  503  0.17488400636E+02  0.52220567872E+02 -0.23214616479E+03  0.23858892198E+03  0.00000000000E+00 0.  1.
<mgrwt>
<rscale>  2 0.87217900E+02</rscale>
<asrwt>0</asrwt>
<pdfrwt beam="1">  1       21 0.21969781E-02 0.87217900E+02</pdfrwt>
<pdfrwt beam="2">  1       21 0.90859807E-01 0.87217900E+02</pdfrwt>
<totfact> 0.10869011E+06</totfact>
</mgrwt>
</event>
<event>
 5    1  0.1595802E+000  0.8430241E+02  0.7546771E-02  0.1317267E+00
         21   -1    0    0  501  502  0.00000000000E+00  0.00000000000E+00  0.10016445838E+03  0.10016445838E+03  0.00000000000E+00 0. -1.
         21   -1    0    0  502  503 -0.00000000000E+00 -0.00000000000E+00 -0.17747359048E+03  0.17747359048E+03  0.00000000000E+00 0.  1.
         24    1    1    2    0    0 -0.53923413438E+02  0.16809059698E+02 -0.30134051894E+02  0.10278889066E+03  0.80419002446E+02 0.  0.
          1    1    1    2  501    0  0.22619218784E+02 -0.28965182250E+02  0.55644094012E+02  0.66684901137E+02  0.00000000000E+00 0. -1.
         -2    1    1    2    0  503  0.31304194654E+02  0.12156122553E+02 -0.10281917422E+03  0.10816425706E+03  0.00000000000E+00 0.  1.
<mgrwt>
<rscale>  2 0.84302407E+02</rscale>
<asrwt>0</asrwt>
<pdfrwt beam="1">  1       21 0.15409917E-01 0.84302407E+02</pdfrwt>
<pdfrwt beam="2">  1       21 0.27303629E-01 0.84302407E+02</pdfrwt>
<totfact> 0.48279840E+05</totfact>
</mgrwt>
</event>
<event>
 5    1  0.1595802E+000  0.6881759E+02  0.7546771E-02  0.1364161E+00
         21   -1    0    0  503  502  0.00000000000E+00  0.00000000000E+00  0.11753947400E+03  0.11753947400E+03  0.00000000000E+00 0. -1.
         21   -1    0    0  501  503 -0.00000000000E+00 -0.00000000000E+00 -0.43117377609E+02  0.43117377609E+02  0.00000000000E+00 0.  1.
         24    1    1    2    0    0 -0.13579667929E+02 -0.38302921989E+01  0.54503212430E+02  0.98167686328E+02  0.80419002446E+02 0. -1.
          1    1    1    2  501    0  0.99810317910E+01 -0.25007808622E+02 -0.56826800577E+00  0.26932033273E+02  0.00000000000E+00 0. -1.
         -2    1    1    2    0  502  0.35986361383E+01  0.28838100820E+02  0.20487151966E+02  0.35557132008E+02  0.00000000000E+00 0.  1.
<mgrwt>
<rscale>  2 0.68817591E+02</rscale>
<asrwt>0</asrwt>
<pdfrwt beam="1">  1       21 0.18082996E-01 0.68817591E+02</pdfrwt>
<pdfrwt beam="2">  1       21 0.66334428E-02 0.68817591E+02</pdfrwt>
<totfact> 0.43874419E+06</totfact>
</mgrwt>
</event>
<event>
 5    1  0.1595802E+000  0.6671903E+02  0.7546771E-02  0.1371619E+00
         21   -1    0    0  501  502  0.00000000000E+00  0.00000000000E+00  0.18439871138E+03  0.18439871138E+03  0.00000000000E+00 0.  1.
         21   -1    0    0  502  503 -0.00000000000E+00 -0.00000000000E+00 -0.10952655014E+03  0.10952655014E+03  0.00000000000E+00 0. -1.
         24    1    1    2    0    0  0.23726070727E+01 -0.18576982246E+02 -0.10896419041E+02  0.83286742258E+02  0.80419002446E+02 0. -1.
          1    1    1    2  501    0 -0.24832243336E+02  0.84563945430E+01  0.14454619237E+03  0.14690729270E+03  0.00000000000E+00 0. -1.
         -2    1    1    2    0  503  0.22459636263E+02  0.10120587703E+02 -0.58777612090E+02  0.63731226565E+02  0.00000000000E+00 0.  1.
<mgrwt>
<rscale>  2 0.66719033E+02</rscale>
<asrwt>0</asrwt>
<pdfrwt beam="1">  1       21 0.28369032E-01 0.66719033E+02</pdfrwt>
<pdfrwt beam="2">  1       21 0.16850239E-01 0.66719033E+02</pdfrwt>
<totfact> 0.38291075E+05</totfact>
</mgrwt>
</event>
<event>
 5    1  0.1595802E+000  0.9184479E+02  0.7546771E-02  0.1298445E+00
         21   -1    0    0  503  502  0.00000000000E+00  0.00000000000E+00  0.69759107649E+02  0.69759107649E+02  0.00000000000E+00 0. -1.
         21   -1    0    0  501  503 -0.00000000000E+00 -0.00000000000E+00 -0.22389004249E+03  0.22389004249E+03  0.00000000000E+00 0.  1.
         24    1    1    2    0    0  0.34519550763E+01  0.71667974099E+02  0.42702292891E+01  0.10785947023E+03  0.80419002446E+02 0. -1.
          1    1    1    2  501    0  0.10643378626E+02 -0.36715767615E+02 -0.13745707823E+03  0.14267367471E+03  0.00000000000E+00 0. -1.
         -2    1    1    2    0  502 -0.14095333703E+02 -0.34952206484E+02 -0.20944085903E+02  0.43116005202E+02  0.00000000000E+00 0.  1.
<mgrwt>
<rscale>  2 0.91844788E+02</rscale>
<asrwt>0</asrwt>
<pdfrwt beam="1">  1       21 0.10732170E-01 0.91844788E+02</pdfrwt>
<pdfrwt beam="2">  1       21 0.34444622E-01 0.91844788E+02</pdfrwt>
<totfact> 0.58587274E+05</totfact>
</mgrwt>
</event>
<event>
 5    1  0.1595802E+000  0.7140184E+02  0.7546771E-02  0.1355390E+00
         21   -1    0    0  501  502  0.00000000000E+00  0.00000000000E+00  0.33139396012E+02  0.33139396012E+02  0.00000000000E+00 0. -1.
         21   -1    0    0  502  503 -0.00000000000E+00 -0.00000000000E+00 -0.14926316110E+04  0.14926316110E+04  0.00000000000E+00 0.  1.
         24    1    1    2    0    0  0.24205898411E+02  0.34307235698E+02 -0.97264030177E+03  0.97686195776E+03  0.80419002446E+02 0.  1.
          1    1    1    2  501    0 -0.19920056523E+02 -0.26011358011E+01  0.27226640246E+02  0.33835846353E+02  0.00000000000E+00 0. -1.
         -2    1    1    2    0  503 -0.42858418888E+01 -0.31706099897E+02 -0.51407855346E+03  0.51507320289E+03  0.00000000000E+00 0.  1.
<mgrwt>
<rscale>  2 0.71401837E+02</rscale>
<asrwt>0</asrwt>
<pdfrwt beam="1">  1       21 0.50983681E-02 0.71401837E+02</pdfrwt>
<pdfrwt beam="2">  1       21 0.22963566E+00 0.71401837E+02</pdfrwt>
<totfact> 0.26281873E+04</totfact>
</mgrwt>
</event>
<event>
 5    1  0.1595802E+000  0.1085577E+03  0.7546771E-02  0.1263264E+00
         21   -1    0    0  503  502  0.00000000000E+00  0.00000000000E+00  0.23322356659E+04  0.23322356659E+04  0.00000000000E+00 0. -1.
         21   -1    0    0  501  503 -0.00000000000E+00 -0.00000000000E+00 -0.62422792857E+01  0.62422792857E+01  0.00000000000E+00 0. -1.
         24    1    1    2    0    0  0.77528584083E+02  0.46520819355E+02  0.80197757207E+03  0.81105493651E+03  0.80419002446E+02 0. -1.
          1    1    1    2  501    0 -0.54507345760E+02 -0.14017632908E+02  0.62618713080E+03  0.62871127519E+03  0.00000000000E+00 0. -1.
         -2    1    1    2    0  502 -0.23021238322E+02 -0.32503186446E+02  0.89782868373E+03  0.89871173346E+03  0.00000000000E+00 0.  1.
<mgrwt>
<rscale>  2 0.10855775E+03</rscale>
<asrwt>0</asrwt>
<pdfrwt beam="1">  1       21 0.35880479E+00 0.10855775E+03</pdfrwt>
<pdfrwt beam="2">  1       21 0.96035252E-03 0.10855775E+03</pdfrwt>
<totfact> 0.68979138E+04</totfact>
</mgrwt>
</event>
<event>
 5    1  0.1595802E+000  0.1074255E+03  0.7546771E-02  0.1265413E+00
         21   -1    0    0  503  502  0.00000000000E+00  0.00000000000E+00  0.31196985347E+03  0.31196985347E+03  0.00000000000E+00 0.  1.
         21   -1    0    0  501  503 -0.00000000000E+00 -0.00000000000E+00 -0.59498755452E+02  0.59498755452E+02  0.00000000000E+00 0.  1.
         24    1    1    2    0    0 -0.27054103012E+02  0.36422740184E+02  0.39462712923E+02  0.10041445194E+03  0.80419002446E+02 0.  1.
          1    1    1    2  501    0  0.43112095404E+02  0.31068745765E+02  0.69042458801E+01  0.53587203180E+02  0.00000000000E+00 0. -1.
         -2    1    1    2    0  502 -0.16057992391E+02 -0.67491485949E+02  0.20610413922E+03  0.21746695381E+03  0.00000000000E+00 0.  1.
<mgrwt>
<rscale>  2 0.10742554E+03</rscale>
<asrwt>0</asrwt>
<pdfrwt beam="1">  1       21 0.47995361E-01 0.10742554E+03</pdfrwt>
<pdfrwt beam="2">  1       21 0.91536549E-02 0.10742554E+03</pdfrwt>
<totfact> 0.39882286E+05</totfact>
</mgrwt>
</event>
<event>
 5    1  0.1595802E+000  0.1030907E+03  0.7546771E-02  0.1273928E+00
         21   -1    0    0  501  502  0.00000000000E+00  0.00000000000E+00  0.45756757283E+03  0.45756757283E+03  0.00000000000E+00 0.  1.
         21   -1    0    0  502  503 -0.00000000000E+00 -0.00000000000E+00 -0.32324800960E+02  0.32324800960E+02  0.00000000000E+00 0. -1.
         24    1    1    2    0    0  0.13206710011E+02 -0.66266643858E+02  0.33858598988E+03  0.35450440586E+03  0.80419002446E+02 0.  0.
          1    1    1    2  501    0  0.31065574558E+02  0.19164696950E+02  0.47154514180E+02  0.59631398938E+02  0.00000000000E+00 0. -1.
         -2    1    1    2    0  503 -0.44272284568E+02  0.47101946908E+02  0.39502267815E+02  0.75756568995E+02  0.00000000000E+00 0.  1.
<mgrwt>
<rscale>  2 0.10309069E+03</rscale>
<asrwt>0</asrwt>
<pdfrwt beam="1">  1       21 0.70395007E-01 0.10309069E+03</pdfrwt>
<pdfrwt beam="2">  1       21 0.49730466E-02 0.10309069E+03</pdfrwt>
<totfact> 0.50294352E+05</totfact>
</mgrwt>
</event>
<event>
 5    1  0.1595802E+000  0.6868137E+02  0.7546771E-02  0.1364635E+00
         21   -1    0    0  501  502  0.00000000000E+00  0.00000000000E+00  0.19778468111E+04  0.19778468111E+04  0.00000000000E+00 0.  1.
         21   -1    0    0  502  503 -0.00000000000E+00 -0.00000000000E+00 -0.61373249416E+01  0.61373249416E+01  0.00000000000E+00 0.  1.
         24    1    1    2    0    0  0.37078105863E+02  0.25202350123E+02  0.17128573057E+04  0.17153300878E+04  0.80419002446E+02 0.  1.
          1    1    1    2  501    0 -0.20722081597E+02 -0.10198049629E+02  0.23477075230E+03  0.23590402925E+03  0.00000000000E+00 0. -1.
         -2    1    1    2    0  503 -0.16356024267E+02 -0.15004300493E+02  0.24081428153E+02  0.32750019007E+02  0.00000000000E+00 0.  1.
<mgrwt>
<rscale>  2 0.68681372E+02</rscale>
<asrwt>0</asrwt>
<pdfrwt beam="1">  1       21 0.30428362E+00 0.68681372E+02</pdfrwt>
<pdfrwt beam="2">  1       21 0.94420541E-03 0.68681372E+02</pdfrwt>
<totfact> 0.15297113E+05</totfact>
</mgrwt>
</event>
<event>
 5    1  0.1639352E+000  0.1102809E+03  0.7546771E-02  0.1260051E+00
         21   -1    0    0  501  502  0.00000000000E+00  0.00000000000E+00  0.14456357522E+03  0.14456357522E+03  0.00000000000E+00 0. -1.
         21   -1    0    0  502  503 -0.00000000000E+00 -0.00000000000E+00 -0.35996851652E+03  0.35996851652E+03  0.00000000000E+00 0.  1.
         24    1    1    2    0    0 -0.62995162651E+02  0.22809554361E+02  0.26225802647E+02  0.10790586159E+03  0.80419002446E+02 0. -1.
          1    1    1    2  501    0  0.84596462919E+02 -0.16554409582E+00  0.53334305363E+02  0.10000568520E+03  0.00000000000E+00 0. -1.
         -2    1    1    2    0  503 -0.21601300267E+02 -0.22644010265E+02 -0.29496504931E+03  0.29662054496E+03  0.00000000000E+00 0.  1.
<mgrwt>
<rscale>  2 0.11028091E+03</rscale>
<asrwt>0</asrwt>
<pdfrwt beam="1">  1       21 0.22240550E-01 0.11028091E+03</pdfrwt>
<pdfrwt beam="2">  1       21 0.55379772E-01 0.11028091E+03</pdfrwt>
<totfact> 0.60536650E+04</totfact>
</mgrwt>
</event>
<event>
 5    1  0.1595802E+000  0.8784033E+02  0.7546771E-02  0.1308168E+00
         21   -1    0    0  501  502  0.00000000000E+00  0.00000000000E+00  0.13615092938E+03  0.13615092938E+03  0.00000000000E+00 0. -1.
         21   -1    0    0  502  503 -0.00000000000E+00 -0.00000000000E+00 -0.14297184664E+03  0.14297184664E+03  0.00000000000E+00 0. -1.
         24    1    1    2    0    0  0.20357419106E+02 -0.44165479249E+02 -0.18011473559E+02  0.95690350632E+02  0.80419002446E+02 0. -1.
          1    1    1    2  501    0 -0.69443755899E+01  0.60311597266E+02  0.86260737729E+02  0.10548283268E+03  0.00000000000E+00 0. -1.
         -2    1    1    2    0  503 -0.13413043516E+02 -0.16146118018E+02 -0.75070181429E+02  0.77949592707E+02  0.00000000000E+00 0.  1.
<mgrwt>
<rscale>  2 0.87840328E+02</rscale>
<asrwt>0</asrwt>
<pdfrwt beam="1">  1       21 0.20946297E-01 0.87840328E+02</pdfrwt>
<pdfrwt beam="2">  1       21 0.21995669E-01 0.87840328E+02</pdfrwt>
<totfact> 0.41444612E+05</totfact>
</mgrwt>
</event>
<event>
 5    1  0.1595802E+000  0.1497040E+03  0.7546771E-02  0.1200837E+00
         21   -1    0    0  503  502  0.00000000000E+00  0.00000000000E+00  0.18074350576E+04  0.18074350576E+04  0.00000000000E+00 0.  1.
         21   -1    0    0  501  503 -0.00000000000E+00 -0.00000000000E+00 -0.14351937633E+02  0.14351937633E+02  0.00000000000E+00 0. -1.
         24    1    1    2    0    0 -0.10515721123E+02 -0.10725536288E+03  0.94647511456E+03  0.95597942012E+03  0.80419002446E+02 0.  1.
          1    1    1    2  501    0 -0.48049051443E+02  0.92979584499E+02  0.34321096960E+03  0.35881427526E+03  0.00000000000E+00 0. -1.
         -2    1    1    2    0  502  0.58564772566E+02  0.14275778378E+02  0.50339703580E+03  0.50699329985E+03  0.00000000000E+00 0.  1.
<mgrwt>
<rscale>  2 0.14970403E+03</rscale>
<asrwt>0</asrwt>
<pdfrwt beam="1">  1       21 0.27806675E+00 0.14970403E+03</pdfrwt>
<pdfrwt beam="2">  1       21 0.22079918E-02 0.14970403E+03</pdfrwt>
<totfact> 0.49740062E+04</totfact>
</mgrwt>
</event>
<event>
 5    1  0.1595802E+000  0.8212706E+02  0.7546771E-02  0.1323121E+00
         21   -1    0    0  501  502  0.00000000000E+00  0.00000000000E+00  0.33711782172E+02  0.33711782172E+02  0.00000000000E+00 0. -1.
         21   -1    0    0  502  503 -0.00000000000E+00 -0.00000000000E+00 -0.24614143435E+03  0.24614143435E+03  0.00000000000E+00 0.  1.
         24    1    1    2    0    0 -0.54661009527E+02 -0.64047348398E+01 -0.67698916439E+02  0.11865582932E+03  0.80419002446E+02 0. -1.
          1    1    1    2  501    0  0.39793093135E+02 -0.13447463008E+02 -0.62465766608E+02  0.75274806678E+02  0.00000000000E+00 0. -1.
         -2    1    1    2    0  503  0.14867916392E+02  0.19852197848E+02 -0.82264969127E+02  0.85922580517E+02  0.00000000000E+00 0.  1.
<mgrwt>
<rscale>  2 0.82127060E+02</rscale>
<asrwt>0</asrwt>
<pdfrwt beam="1">  1       21 0.51864281E-02 0.82127060E+02</pdfrwt>
<pdfrwt beam="2">  1       21 0.37867913E-01 0.82127060E+02</pdfrwt>
<totfact> 0.16732474E+06</totfact>
</mgrwt>
</event>
<event>
 5    1  0.1595802E+000  0.7368706E+02  0.7546771E-02  0.1347986E+00
         21   -1    0    0  501  502  0.00000000000E+00  0.00000000000E+00  0.12551785118E+03  0.12551785118E+03  0.00000000000E+00 0.  1.
         21   -1    0    0  502  503 -0.00000000000E+00 -0.00000000000E+00 -0.14360438267E+03  0.14360438267E+03  0.00000000000E+00 0.  1.
         24    1    1    2    0    0  0.10423593843E+01  0.20780248302E+02  0.94018554357E+02  0.12545760141E+03  0.80419002446E+02 0.  1.
          1    1    1    2  501    0  0.28646816018E+02 -0.19377075653E+02 -0.81338475281E+01  0.35528447820E+02  0.00000000000E+00 0. -1.
         -2    1    1    2    0  503 -0.29689175403E+02 -0.14031726484E+01 -0.10397123832E+03  0.10813618463E+03  0.00000000000E+00 0.  1.
<mgrwt>
<rscale>  2 0.73687062E+02</rscale>
<asrwt>0</asrwt>
<pdfrwt beam="1">  1       21 0.19310439E-01 0.73687062E+02</pdfrwt>
<pdfrwt beam="2">  1       21 0.22092982E-01 0.73687062E+02</pdfrwt>
<totfact> 0.47692606E+05</totfact>
</mgrwt>
</event>
<event>
 5    1  0.1595802E+000  0.7524001E+02  0.7546771E-02  0.1343129E+00
         21   -1    0    0  503  502  0.00000000000E+00  0.00000000000E+00  0.84959562992E+02  0.84959562992E+02  0.00000000000E+00 0. -1.
         21   -1    0    0  501  503 -0.00000000000E+00 -0.00000000000E+00 -0.98940016322E+02  0.98940016322E+02  0.00000000000E+00 0.  1.
         24    1    1    2    0    0 -0.28507703274E+02  0.76526049939E+01  0.41597658374E+02  0.95230418700E+02  0.80419002446E+02 0. -1.
          1    1    1    2  501    0  0.89558493905E+01 -0.32206071289E+02 -0.43903662562E+02  0.55181245478E+02  0.00000000000E+00 0. -1.
         -2    1    1    2    0  502  0.19551853884E+02  0.24553466295E+02 -0.11674449141E+02  0.33487915136E+02  0.00000000000E+00 0.  1.
<mgrwt>
<rscale>  2 0.75240012E+02</rscale>
<asrwt>0</asrwt>
<pdfrwt beam="1">  1       21 0.13070702E-01 0.75240012E+02</pdfrwt>
<pdfrwt beam="2">  1       21 0.15221541E-01 0.75240012E+02</pdfrwt>
<totfact> 0.18765341E+06</totfact>
</mgrwt>
</event>
<event>
 5    1  0.1595802E+000  0.1294092E+03  0.7546771E-02  0.1228335E+00
         21   -1    0    0  501  502  0.00000000000E+00  0.00000000000E+00  0.70486963383E+03  0.70486963383E+03  0.00000000000E+00 0.  1.
         21   -1    0    0  502  503 -0.00000000000E+00 -0.00000000000E+00 -0.35737197530E+02  0.35737197530E+02  0.00000000000E+00 0. -1.
         24    1    1    2    0    0  0.64848382506E+02 -0.56838107115E+02  0.39593866010E+03  0.41312288929E+03  0.80419002446E+02 0.  1.
          1    1    1    2  501    0 -0.81390069909E+02  0.78884303251E+02  0.27734420891E+03  0.29961122642E+03  0.00000000000E+00 0. -1.
         -2    1    1    2    0  503  0.16541687404E+02 -0.22046196135E+02 -0.41504327159E+01  0.27872715654E+02  0.00000000000E+00 0.  1.
<mgrwt>
<rscale>  2 0.12940916E+03</rscale>
<asrwt>0</asrwt>
<pdfrwt beam="1">  1       21 0.10844147E+00 0.12940916E+03</pdfrwt>
<pdfrwt beam="2">  1       21 0.54980309E-02 0.12940916E+03</pdfrwt>
<totfact> 0.15837088E+05</totfact>
</mgrwt>
</event>
<event>
 5    1  0.1595802E+000  0.9413905E+02  0.7546771E-02  0.1293127E+00
         21   -1    0    0  503  502  0.00000000000E+00  0.00000000000E+00  0.16948463403E+03  0.16948463403E+03  0.00000000000E+00 0. -1.
         21   -1    0    0  501  503 -0.00000000000E+00 -0.00000000000E+00 -0.59041875337E+02  0.59041875337E+02  0.00000000000E+00 0. -1.
         24    1    1    2    0    0 -0.35113017086E+02 -0.47579932370E+02  0.89086729954E+02  0.13379250854E+03  0.80419002446E+02 0. -1.
          1    1    1    2  501    0  0.38118692097E+02 -0.25823489240E+01 -0.40579452017E+01  0.38420959546E+02  0.00000000000E+00 0. -1.
         -2    1    1    2    0  502 -0.30056750112E+01  0.50162281294E+02  0.25413973940E+02  0.56313041281E+02  0.00000000000E+00 0.  1.
<mgrwt>
<rscale>  2 0.94139049E+02</rscale>
<asrwt>0</asrwt>
<pdfrwt beam="1">  1       21 0.26074559E-01 0.94139049E+02</pdfrwt>
<pdfrwt beam="2">  1       21 0.90833655E-02 0.94139049E+02</pdfrwt>
<totfact> 0.13321366E+06</totfact>
</mgrwt>
</event>
<event>
 5    1  0.1595802E+000  0.6485644E+02  0.7546771E-02  0.1378512E+00
         21   -1    0    0  503  502  0.00000000000E+00  0.00000000000E+00  0.29659617956E+03  0.29659617956E+03  0.00000000000E+00 0.  1.
         21   -1    0    0  501  503 -0.00000000000E+00 -0.00000000000E+00 -0.81856756233E+02  0.81856756233E+02  0.00000000000E+00 0. -1.
         24    1    1    2    0    0 -0.10375189302E+02 -0.46112786855E+01  0.56689542990E+02  0.99044579271E+02  0.80419002446E+02 0.  0.
          1    1    1    2  501    0  0.12700453009E+02  0.24965201170E+02 -0.56933725126E+02  0.63450861561E+02  0.00000000000E+00 0. -1.
         -2    1    1    2    0  502 -0.23252637073E+01 -0.20353922485E+02  0.21498360546E+03  0.21595749496E+03  0.00000000000E+00 0.  1.
<mgrwt>
<rscale>  2 0.64856444E+02</rscale>
<asrwt>0</asrwt>
<pdfrwt beam="1">  1       21 0.45630181E-01 0.64856444E+02</pdfrwt>
<pdfrwt beam="2">  1       21 0.12593347E-01 0.64856444E+02</pdfrwt>
<totfact> 0.25532913E+05</totfact>
</mgrwt>
</event>
<event>
 5    1  0.1909031E+000  0.1566568E+03  0.7546771E-02  0.1192524E+00
         21   -1    0    0  501  502  0.00000000000E+00  0.00000000000E+00  0.14212921913E+04  0.14212921913E+04  0.00000000000E+00 0.  1.
         21   -1    0    0  502  503 -0.00000000000E+00 -0.00000000000E+00 -0.67483197106E+02  0.67483197106E+02  0.00000000000E+00 0.  1.
         24    1    1    2    0    0  0.54429885090E+02  0.11576705869E+02  0.25635862464E+03  0.27437855763E+03  0.80419002446E+02 0.  0.
          1    1    1    2  501    0  0.70829227952E+02 -0.47413477539E+02  0.10795251328E+04  0.10828847259E+04  0.00000000000E+00 0. -1.
         -2    1    1    2    0  503 -0.12525911304E+03  0.35836771670E+02  0.17925236786E+02  0.13151210483E+03  0.00000000000E+00 0.  1.
<mgrwt>
<rscale>  2 0.15665680E+03</rscale>
<asrwt>0</asrwt>
<pdfrwt beam="1">  1       21 0.21866031E+00 0.15665680E+03</pdfrwt>
<pdfrwt beam="2">  1       21 0.10382031E-01 0.15665680E+03</pdfrwt>
<totfact> 0.80648131E+03</totfact>
</mgrwt>
</event>
<event>
 5    1  0.1595802E+000  0.1360977E+03  0.7546771E-02  0.1218678E+00
         21   -1    0    0  503  502  0.00000000000E+00  0.00000000000E+00  0.12491529431E+02  0.12491529431E+02  0.00000000000E+00 0. -1.
         21   -1    0    0  501  503 -0.00000000000E+00 -0.00000000000E+00 -0.17526061141E+04  0.17526061141E+04  0.00000000000E+00 0. -1.
         24    1    1    2    0    0  0.76853204918E+02  0.66262580184E+02 -0.85420794047E+03  0.86396502600E+03  0.80419002446E+02 0. -1.
          1    1    1    2  501    0 -0.96241216145E+02 -0.74445678727E+02 -0.85576463876E+03  0.86437124416E+03  0.00000000000E+00 0. -1.
         -2    1    1    2    0  502  0.19388011226E+02  0.81830985429E+01 -0.30142005471E+02  0.36761373409E+02  0.00000000000E+00 0.  1.
<mgrwt>
<rscale>  2 0.13609766E+03</rscale>
<asrwt>0</asrwt>
<pdfrwt beam="1">  1       21 0.19217737E-02 0.13609766E+03</pdfrwt>
<pdfrwt beam="2">  1       21 0.26963172E+00 0.13609766E+03</pdfrwt>
<totfact> 0.70459882E+04</totfact>
</mgrwt>
</event>
<event>
 5    1  0.1595802E+000  0.8234057E+02  0.7546771E-02  0.1322537E+00
         21   -1    0    0  503  502  0.00000000000E+00  0.00000000000E+00  0.43375132680E+03  0.43375132680E+03  0.00000000000E+00 0. -1.
         21   -1    0    0  501  503 -0.00000000000E+00 -0.00000000000E+00 -0.27236301626E+02  0.27236301626E+02  0.00000000000E+00 0. -1.
         24    1    1    2    0    0  0.55480964424E+02  0.19622484938E+02  0.82148548564E+02  0.12914634843E+03  0.80419002446E+02 0. -1.
          1    1    1    2  501    0 -0.44727917643E+02 -0.24835036282E+01  0.27268997413E+03  0.27634503144E+03  0.00000000000E+00 0. -1.
         -2    1    1    2    0  502 -0.10753046780E+02 -0.17138981310E+02  0.51676502475E+02  0.55496248553E+02  0.00000000000E+00 0.  1.
<mgrwt>
<rscale>  2 0.82340571E+02</rscale>
<asrwt>0</asrwt>
<pdfrwt beam="1">  1       21 0.66730968E-01 0.82340571E+02</pdfrwt>
<pdfrwt beam="2">  1       21 0.41902006E-02 0.82340571E+02</pdfrwt>
<totfact> 0.74944560E+05</totfact>
</mgrwt>
</event>
<event>
 5    1  0.1595802E+000  0.8845763E+02  0.7546771E-02  0.1306630E+00
         21   -1    0    0  501  502  0.00000000000E+00  0.00000000000E+00  0.46207482983E+02  0.46207482983E+02  0.00000000000E+00 0. -1.
         21   -1    0    0  502  503 -0.00000000000E+00 -0.00000000000E+00 -0.34638387760E+03  0.34638387760E+03  0.00000000000E+00 0.  1.
         24    1    1    2    0    0  0.29256422481E+01 -0.56178113125E+02 -0.54153992719E+02  0.11209108198E+03  0.80419002446E+02 0. -1.
          1    1    1    2  501    0 -0.28933226064E+02  0.25614728537E+02 -0.84415127352E+01  0.39553824414E+02  0.00000000000E+00 0. -1.
         -2    1    1    2    0  503  0.26007583816E+02  0.30563384588E+02 -0.23758088916E+03  0.24094645419E+03  0.00000000000E+00 0.  1.
<mgrwt>
<rscale>  2 0.88457635E+02</rscale>
<asrwt>0</asrwt>
<pdfrwt beam="1">  1       21 0.71088437E-02 0.88457635E+02</pdfrwt>
<pdfrwt beam="2">  1       21 0.53289826E-01 0.88457635E+02</pdfrwt>
<totfact> 0.49694070E+05</totfact>
</mgrwt>
</event>
<event>
 5    1  0.1595802E+000  0.7343676E+02  0.7546771E-02  0.1348781E+00
         21   -1    0    0  503  502  0.00000000000E+00  0.00000000000E+00  0.37009996667E+02  0.37009996667E+02  0.00000000000E+00 0.  1.
         21   -1    0    0  501  503 -0.00000000000E+00 -0.00000000000E+00 -0.24744734383E+03  0.24744734383E+03  0.00000000000E+00 0.  1.
         24    1    1    2    0    0  0.34951085759E+02  0.28307778986E+02 -0.15455604197E+03  0.17993803047E+03  0.80419002446E+02 0.  1.
          1    1    1    2  501    0 -0.33194720347E+01 -0.22286097377E+02 -0.66816576799E+02  0.70513431104E+02  0.00000000000E+00 0. -1.
         -2    1    1    2    0  502 -0.31631613724E+02 -0.60216816088E+01  0.10935271605E+02  0.34005878922E+02  0.00000000000E+00 0.  1.
<mgrwt>
<rscale>  2 0.73436756E+02</rscale>
<asrwt>0</asrwt>
<pdfrwt beam="1">  1       21 0.56938456E-02 0.73436756E+02</pdfrwt>
<pdfrwt beam="2">  1       21 0.38068822E-01 0.73436756E+02</pdfrwt>
<totfact> 0.14122689E+06</totfact>
</mgrwt>
</event>
<event>
 5    1  0.1595802E+000  0.1182205E+03  0.7546771E-02  0.1246062E+00
         21   -1    0    0  503  502  0.00000000000E+00  0.00000000000E+00  0.16378932186E+02  0.16378932186E+02  0.00000000000E+00 0.  1.
         21   -1    0    0  501  503 -0.00000000000E+00 -0.00000000000E+00 -0.94608197694E+03  0.94608197694E+03  0.00000000000E+00 0. -1.
         24    1    1    2    0    0  0.10785648830E+01 -0.45921468509E+02 -0.37533349342E+03  0.38659072908E+03  0.80419002446E+02 0.  1.
          1    1    1    2  501    0  0.60112655409E+02 -0.99931503502E+01 -0.35110888279E+03  0.35635774437E+03  0.00000000000E+00 0. -1.
         -2    1    1    2    0  502 -0.61191220292E+02  0.55914618859E+02 -0.20326066854E+03  0.21951243568E+03  0.00000000000E+00 0.  1.
<mgrwt>
<rscale>  2 0.11822047E+03</rscale>
<asrwt>0</asrwt>
<pdfrwt beam="1">  1       21 0.25198343E-02 0.11822047E+03</pdfrwt>
<pdfrwt beam="2">  1       21 0.14555116E+00 0.11822047E+03</pdfrwt>
<totfact> 0.27996902E+05</totfact>
</mgrwt>
</event>
<event>
 5    1  0.1595802E+000  0.7651342E+02  0.7546771E-02  0.1339248E+00
         21   -1    0    0  503  502  0.00000000000E+00  0.00000000000E+00  0.32278925202E+02  0.32278925202E+02  0.00000000000E+00 0. -1.
         21   -1    0    0  501  503 -0.00000000000E+00 -0.00000000000E+00 -0.21022666521E+03  0.21022666521E+03  0.00000000000E+00 0.  1.
         24    1    1    2    0    0 -0.27979742391E+02 -0.42402877152E+02 -0.15106096900E+03  0.17851471167E+03  0.80419002446E+02 0.  1.
          1    1    1    2  501    0  0.29744315966E+02  0.20953805684E+02 -0.19189996939E+02  0.41134441620E+02  0.00000000000E+00 0. -1.
         -2    1    1    2    0  502 -0.17645735746E+01  0.21449071469E+02 -0.76967740755E+01  0.22856437122E+02  0.00000000000E+00 0.  1.
<mgrwt>
<rscale>  2 0.76513417E+02</rscale>
<asrwt>0</asrwt>
<pdfrwt beam="1">  1       21 0.49659884E-02 0.76513417E+02</pdfrwt>
<pdfrwt beam="2">  1       21 0.32342565E-01 0.76513417E+02</pdfrwt>
<totfact> 0.24339258E+06</totfact>
</mgrwt>
</event>
<event>
 5    1  0.1595802E+000  0.1298982E+03  0.7546771E-02  0.1227607E+00
         21   -1    0    0  503  502  0.00000000000E+00  0.00000000000E+00  0.39577623482E+03  0.39577623482E+03  0.00000000000E+00 0.  1.
         21   -1    0    0  501  503 -0.00000000000E+00 -0.00000000000E+00 -0.14144766217E+03  0.14144766217E+03  0.00000000000E+00 0. -1.
         24    1    1    2    0    0  0.45771585087E+02  0.74400082858E+02  0.39082111816E+02  0.12500015100E+03  0.80419002446E+02 0. -1.
          1    1    1    2  501    0 -0.78371637707E+02 -0.74973233096E+02 -0.67405586575E+02  0.12769734680E+03  0.00000000000E+00 0. -1.
         -2    1    1    2    0  502  0.32600052620E+02  0.57315023811E+00  0.28265204741E+03  0.28452639919E+03  0.00000000000E+00 0.  1.
<mgrwt>
<rscale>  2 0.12989817E+03</rscale>
<asrwt>0</asrwt>
<pdfrwt beam="1">  1       21 0.60888651E-01 0.12989817E+03</pdfrwt>
<pdfrwt beam="2">  1       21 0.21761179E-01 0.12989817E+03</pdfrwt>
<totfact> 0.51046681E+04</totfact>
</mgrwt>
</event>
<event>
 5    1  0.1595802E+000  0.8306802E+02  0.7546771E-02  0.1320564E+00
         21   -1    0    0  501  502  0.00000000000E+00  0.00000000000E+00  0.81839599069E+02  0.81839599069E+02  0.00000000000E+00 0.  1.
         21   -1    0    0  502  503 -0.00000000000E+00 -0.00000000000E+00 -0.12137196357E+03  0.12137196357E+03  0.00000000000E+00 0.  1.
         24    1    1    2    0    0 -0.11629940349E+02  0.56405816052E+02  0.28518786289E+01  0.98955650486E+02  0.80419002446E+02 0.  1.
          1    1    1    2  501    0  0.20108710988E+02 -0.15346172417E+02  0.17783718225E+02  0.30921285539E+02  0.00000000000E+00 0. -1.
         -2    1    1    2    0  503 -0.84787706395E+01 -0.41059643635E+02 -0.60167961358E+02  0.73334626617E+02  0.00000000000E+00 0.  1.
<mgrwt>
<rscale>  2 0.83068019E+02</rscale>
<asrwt>0</asrwt>
<pdfrwt beam="1">  1       21 0.12590708E-01 0.83068019E+02</pdfrwt>
<pdfrwt beam="2">  1       21 0.18672610E-01 0.83068019E+02</pdfrwt>
<totfact> 0.13935438E+06</totfact>
</mgrwt>
</event>
<event>
 5    1  0.1595802E+000  0.8394362E+02  0.7546771E-02  0.1318218E+00
         21   -1    0    0  501  502  0.00000000000E+00  0.00000000000E+00  0.11129773408E+03  0.11129773408E+03  0.00000000000E+00 0.  1.
         21   -1    0    0  502  503 -0.00000000000E+00 -0.00000000000E+00 -0.70056484274E+02  0.70056484274E+02  0.00000000000E+00 0.  1.
         24    1    1    2    0    0 -0.61672109042E+01 -0.26115975055E+02 -0.26902115214E+01  0.84820586156E+02  0.80419002446E+02 0.  1.
          1    1    1    2  501    0 -0.29003174581E+02 -0.11873141399E+02  0.28887586333E+02  0.42622156992E+02  0.00000000000E+00 0. -1.
         -2    1    1    2    0  503  0.35170385485E+02  0.37989116454E+02  0.15043874993E+02  0.53911475206E+02  0.00000000000E+00 0.  1.
<mgrwt>
<rscale>  2 0.83943619E+02</rscale>
<asrwt>0</asrwt>
<pdfrwt beam="1">  1       21 0.17122728E-01 0.83943619E+02</pdfrwt>
<pdfrwt beam="2">  1       21 0.10777921E-01 0.83943619E+02</pdfrwt>
<totfact> 0.21392794E+06</totfact>
</mgrwt>
</event>
<event>
 5    1  0.1595802E+000  0.9319475E+02  0.7546771E-02  0.1295294E+00
         21   -1    0    0  501  502  0.00000000000E+00  0.00000000000E+00  0.26615153511E+02  0.26615153511E+02  0.00000000000E+00 0. -1.
         21   -1    0    0  502  503 -0.00000000000E+00 -0.00000000000E+00 -0.42704421027E+03  0.42704421027E+03  0.00000000000E+00 0.  1.
         24    1    1    2    0    0  0.26555117759E+02  0.42208813841E+02 -0.31268520933E+03  0.32668947692E+03  0.80419002446E+02 0.  1.
          1    1    1    2  501    0 -0.53478896675E+02 -0.20859730253E+02 -0.54006540650E+02  0.78815145555E+02  0.00000000000E+00 0. -1.
         -2    1    1    2    0  503  0.26923778916E+02 -0.21349083588E+02 -0.33737306779E+02  0.48154741302E+02  0.00000000000E+00 0.  1.
<mgrwt>
<rscale>  2 0.93194755E+02</rscale>
<asrwt>0</asrwt>
<pdfrwt beam="1">  1       21 0.40946391E-02 0.93194755E+02</pdfrwt>
<pdfrwt beam="2">  1       21 0.65699108E-01 0.93194755E+02</pdfrwt>
<totfact> 0.80567015E+05</totfact>
</mgrwt>
</event>
<event>
 5    1  0.1595802E+000  0.7607791E+02  0.7546771E-02  0.1340565E+00
         21   -1    0    0  503  502  0.00000000000E+00  0.00000000000E+00  0.57550945821E+02  0.57550945821E+02  0.00000000000E+00 0.  1.
         21   -1    0    0  501  503 -0.00000000000E+00 -0.00000000000E+00 -0.76591761211E+03  0.76591761211E+03  0.00000000000E+00 0. -1.
         24    1    1    2    0    0  0.46057016240E+02 -0.57937966414E+01 -0.16149364060E+03  0.18628534224E+03  0.80419002446E+02 0.  1.
          1    1    1    2  501    0 -0.12108648274E+02  0.19283998841E+02 -0.58438163602E+03  0.58482509222E+03  0.00000000000E+00 0. -1.
         -2    1    1    2    0  502 -0.33948367966E+02 -0.13490202200E+02  0.37508610340E+02  0.52358123463E+02  0.00000000000E+00 0.  1.
<mgrwt>
<rscale>  2 0.76077909E+02</rscale>
<asrwt>0</asrwt>
<pdfrwt beam="1">  1       21 0.88539921E-02 0.76077909E+02</pdfrwt>
<pdfrwt beam="2">  1       21 0.11783347E+00 0.76077909E+02</pdfrwt>
<totfact> 0.59682918E+04</totfact>
</mgrwt>
</event>
<event>
 5    1  0.1595802E+000  0.7719496E+02  0.7546771E-02  0.1337206E+00
         21   -1    0    0  501  502  0.00000000000E+00  0.00000000000E+00  0.12102327905E+02  0.12102327905E+02  0.00000000000E+00 0. -1.
         21   -1    0    0  502  503 -0.00000000000E+00 -0.00000000000E+00 -0.76448922576E+03  0.76448922576E+03  0.00000000000E+00 0.  1.
         24    1    1    2    0    0 -0.56942351346E+01  0.63082596207E+01 -0.30804278391E+03  0.31848044073E+03  0.80419002446E+02 0.  0.
          1    1    1    2  501    0  0.22834277740E+02 -0.33999973092E+02 -0.61531337699E+02  0.73915545923E+02  0.00000000000E+00 0. -1.
         -2    1    1    2    0  503 -0.17140042606E+02  0.27691713471E+02 -0.38281277625E+03  0.38419556702E+03  0.00000000000E+00 0.  1.
<mgrwt>
<rscale>  2 0.77194956E+02</rscale>
<asrwt>0</asrwt>
<pdfrwt beam="1">  1       21 0.18618956E-02 0.77194956E+02</pdfrwt>
<pdfrwt beam="2">  1       21 0.11761379E+00 0.77194956E+02</pdfrwt>
<totfact> 0.77708742E+05</totfact>
</mgrwt>
</event>
<event>
 5    1  0.1595802E+000  0.7309638E+02  0.7546771E-02  0.1349869E+00
         21   -1    0    0  501  502  0.00000000000E+00  0.00000000000E+00  0.16232467496E+03  0.16232467496E+03  0.00000000000E+00 0. -1.
         21   -1    0    0  502  503 -0.00000000000E+00 -0.00000000000E+00 -0.76645882289E+02  0.76645882289E+02  0.00000000000E+00 0.  1.
         24    1    1    2    0    0  0.12694252270E+02  0.66115432835E+01 -0.14605135109E+02  0.82978204796E+02  0.80419002446E+02 0. -1.
          1    1    1    2  501    0  0.13786272640E+01 -0.33835625741E+02  0.11649882441E+03  0.12132075779E+03  0.00000000000E+00 0. -1.
         -2    1    1    2    0  503 -0.14072879534E+02  0.27224082457E+02 -0.16214896625E+02  0.34671594665E+02  0.00000000000E+00 0.  1.
<mgrwt>
<rscale>  2 0.73096385E+02</rscale>
<asrwt>0</asrwt>
<pdfrwt beam="1">  1       21 0.24973027E-01 0.73096385E+02</pdfrwt>
<pdfrwt beam="2">  1       21 0.11791674E-01 0.73096385E+02</pdfrwt>
<totfact> 0.91309796E+05</totfact>
</mgrwt>
</event>
<event>
 5    1  0.1595802E+000  0.7950900E+02  0.7546771E-02  0.1330451E+00
         21   -1    0    0  501  502  0.00000000000E+00  0.00000000000E+00  0.11514796980E+03  0.11514796980E+03  0.00000000000E+00 0. -1.
         21   -1    0    0  502  503 -0.00000000000E+00 -0.00000000000E+00 -0.32110581204E+03  0.32110581204E+03  0.00000000000E+00 0.  1.
         24    1    1    2    0    0 -0.15020383326E+01  0.13897229212E+02 -0.30123943936E+03  0.31210223466E+03  0.80419002446E+02 0.  1.
          1    1    1    2  501    0  0.34388636068E+02 -0.25183594207E+02  0.66634318192E+02  0.79100721038E+02  0.00000000000E+00 0. -1.
         -2    1    1    2    0  503 -0.32886597735E+02  0.11286364995E+02  0.28647278934E+02  0.45050826138E+02  0.00000000000E+00 0.  1.
<mgrwt>
<rscale>  2 0.79509005E+02</rscale>
<asrwt>0</asrwt>
<pdfrwt beam="1">  1       21 0.17715072E-01 0.79509005E+02</pdfrwt>
<pdfrwt beam="2">  1       21 0.49400895E-01 0.79509005E+02</pdfrwt>
<totfact> 0.11819433E+05</totfact>
</mgrwt>
</event>
<event>
 5    1  0.1595802E+000  0.1365694E+03  0.7546771E-02  0.1218021E+00
         21   -1    0    0  501  502  0.00000000000E+00  0.00000000000E+00  0.12404120089E+04  0.12404120089E+04  0.00000000000E+00 0. -1.
         21   -1    0    0  502  503 -0.00000000000E+00 -0.00000000000E+00 -0.30760451031E+02  0.30760451031E+02  0.00000000000E+00 0.  1.
         24    1    1    2    0    0 -0.33327467635E+02  0.40443389881E+02  0.56995172020E+03  0.57797799889E+03  0.80419002446E+02 0. -1.
          1    1    1    2  501    0  0.79891269890E+02 -0.82185157467E+02  0.61559619280E+03  0.62617544483E+03  0.00000000000E+00 0. -1.
         -2    1    1    2    0  503 -0.46563802254E+02  0.41741767586E+02  0.24103644900E+02  0.67019016250E+02  0.00000000000E+00 0.  1.
<mgrwt>
<rscale>  2 0.13656942E+03</rscale>
<asrwt>0</asrwt>
<pdfrwt beam="1">  1       21 0.19083258E+00 0.13656942E+03</pdfrwt>
<pdfrwt beam="2">  1       21 0.47323780E-02 0.13656942E+03</pdfrwt>
<totfact> 0.47270507E+04</totfact>
</mgrwt>
</event>
<event>
 5    1  0.1595802E+000  0.6279933E+02  0.7546771E-02  0.1386446E+00
         21   -1    0    0  501  502  0.00000000000E+00  0.00000000000E+00  0.13753261419E+04  0.13753261419E+04  0.00000000000E+00 0.  1.
         21   -1    0    0  502  503 -0.00000000000E+00 -0.00000000000E+00 -0.32422828900E+01  0.32422828900E+01  0.00000000000E+00 0. -1.
         24    1    1    2    0    0  0.13283395593E+02 -0.62422848696E+01  0.70340549599E+03  0.70813976196E+03  0.80419002446E+02 0.  0.
          1    1    1    2  501    0 -0.13493154057E+01  0.23131696690E+02  0.49178358178E+03  0.49232914534E+03  0.00000000000E+00 0. -1.
         -2    1    1    2    0  503 -0.11934080188E+02 -0.16889411820E+02  0.17689478125E+03  0.17809951750E+03  0.00000000000E+00 0.  1.
<mgrwt>
<rscale>  2 0.62799334E+02</rscale>
<asrwt>0</asrwt>
<pdfrwt beam="1">  1       21 0.21158817E+00 0.62799334E+02</pdfrwt>
<pdfrwt beam="2">  1       21 0.49881385E-03 0.62799334E+02</pdfrwt>
<totfact> 0.13219085E+06</totfact>
</mgrwt>
</event>
<event>
 5    1  0.1595802E+000  0.6637566E+02  0.7546771E-02  0.1372870E+00
         21   -1    0    0  503  502  0.00000000000E+00  0.00000000000E+00  0.11129346230E+02  0.11129346230E+02  0.00000000000E+00 0.  1.
         21   -1    0    0  501  503 -0.00000000000E+00 -0.00000000000E+00 -0.80777250600E+03  0.80777250600E+03  0.00000000000E+00 0. -1.
         24    1    1    2    0    0 -0.35102313282E+02  0.14669199624E+02 -0.18318602592E+03  0.20364600134E+03  0.80419002446E+02 0.  1.
          1    1    1    2  501    0  0.12379696952E+02 -0.16907097018E+02 -0.40719320667E+03  0.40773203748E+03  0.00000000000E+00 0. -1.
         -2    1    1    2    0  502  0.22722616330E+02  0.22378973937E+01 -0.20626392717E+03  0.20752381341E+03  0.00000000000E+00 0.  1.
<mgrwt>
<rscale>  2 0.66375660E+02</rscale>
<asrwt>0</asrwt>
<pdfrwt beam="1">  1       21 0.17122072E-02 0.66375660E+02</pdfrwt>
<pdfrwt beam="2">  1       21 0.12427269E+00 0.66375660E+02</pdfrwt>
<totfact> 0.77737327E+05</totfact>
</mgrwt>
</event>
<event>
 5    1  0.1595802E+000  0.9301702E+02  0.7546771E-02  0.1295706E+00
         21   -1    0    0  501  502  0.00000000000E+00  0.00000000000E+00  0.12742694630E+03  0.12742694630E+03  0.00000000000E+00 0. -1.
         21   -1    0    0  502  503 -0.00000000000E+00 -0.00000000000E+00 -0.78064095387E+02  0.78064095387E+02  0.00000000000E+00 0.  1.
         24    1    1    2    0    0  0.18110244855E+02 -0.29579921959E+02 -0.47449364143E+01  0.87707942216E+02  0.80419002446E+02 0.  1.
          1    1    1    2  501    0  0.14180315481E+02 -0.28595490831E+02  0.37424668790E+02  0.49187287759E+02  0.00000000000E+00 0. -1.
         -2    1    1    2    0  503 -0.32290560336E+02  0.58175412790E+02  0.16683118535E+02  0.68595811710E+02  0.00000000000E+00 0.  1.
<mgrwt>
<rscale>  2 0.93017017E+02</rscale>
<asrwt>0</asrwt>
<pdfrwt beam="1">  1       21 0.19604146E-01 0.93017017E+02</pdfrwt>
<pdfrwt beam="2">  1       21 0.12009861E-01 0.93017017E+02</pdfrwt>
<totfact> 0.13903755E+06</totfact>
</mgrwt>
</event>
<event>
 5    1  0.1595802E+000  0.7259808E+02  0.7546771E-02  0.1351475E+00
         21   -1    0    0  501  502  0.00000000000E+00  0.00000000000E+00  0.51535100071E+02  0.51535100071E+02  0.00000000000E+00 0. -1.
         21   -1    0    0  502  503 -0.00000000000E+00 -0.00000000000E+00 -0.26066799836E+03  0.26066799836E+03  0.00000000000E+00 0.  1.
         24    1    1    2    0    0 -0.38277601713E+02 -0.53380434195E+01 -0.16521012108E+03  0.18776386650E+03  0.80419002446E+02 0. -1.
          1    1    1    2  501    0  0.20146458222E+02  0.23058475239E+02  0.32063250931E+02  0.44335370975E+02  0.00000000000E+00 0. -1.
         -2    1    1    2    0  503  0.18131143491E+02 -0.17720431819E+02 -0.75986028139E+02  0.80103860958E+02  0.00000000000E+00 0.  1.
<mgrwt>
<rscale>  2 0.72598082E+02</rscale>
<asrwt>0</asrwt>
<pdfrwt beam="1">  1       21 0.79284771E-02 0.72598082E+02</pdfrwt>
<pdfrwt beam="2">  1       21 0.40102768E-01 0.72598082E+02</pdfrwt>
<totfact> 0.73078002E+05</totfact>
</mgrwt>
</event>
<event>
 5    1  0.1595802E+000  0.6561832E+02  0.7546771E-02  0.1375661E+00
         21   -1    0    0  503  502  0.00000000000E+00  0.00000000000E+00  0.10522378481E+04  0.10522378481E+04  0.00000000000E+00 0. -1.
         21   -1    0    0  501  503 -0.00000000000E+00 -0.00000000000E+00 -0.13914153724E+02  0.13914153724E+02  0.00000000000E+00 0. -1.
         24    1    1    2    0    0 -0.36594467934E+01 -0.32848221697E+01  0.75525159965E+03  0.75953694864E+03  0.80419002446E+02 0. -1.
          1    1    1    2  501    0 -0.21932662369E+02 -0.70932119360E+01  0.87276236391E+00  0.23067662393E+02  0.00000000000E+00 0. -1.
         -2    1    1    2    0  502  0.25592109162E+02  0.10378034106E+02  0.28219933235E+03  0.28354739079E+03  0.00000000000E+00 0.  1.
<mgrwt>
<rscale>  2 0.65618324E+02</rscale>
<asrwt>0</asrwt>
<pdfrwt beam="1">  1       21 0.16188268E+00 0.65618324E+02</pdfrwt>
<pdfrwt beam="2">  1       21 0.21406399E-02 0.65618324E+02</pdfrwt>
<totfact> 0.28346089E+05</totfact>
</mgrwt>
</event>
<event>
 5    1  0.1595802E+000  0.7160006E+02  0.7546771E-02  0.1354735E+00
         21   -1    0    0  501  502  0.00000000000E+00  0.00000000000E+00  0.96546262601E+03  0.96546262601E+03  0.00000000000E+00 0. -1.
         21   -1    0    0  502  503 -0.00000000000E+00 -0.00000000000E+00 -0.19415941544E+02  0.19415941544E+02  0.00000000000E+00 0.  1.
         24    1    1    2    0    0  0.30524197401E+02  0.29248556852E+02  0.21107721415E+03  0.22979993688E+03  0.80419002446E+02 0. -1.
          1    1    1    2  501    0 -0.10236064364E+02 -0.30348603267E+02  0.73404108485E+03  0.73473949737E+03  0.00000000000E+00 0. -1.
         -2    1    1    2    0  503 -0.20288133037E+02  0.11000464151E+01  0.92838546881E+00  0.20339133310E+02  0.00000000000E+00 0.  1.
<mgrwt>
<rscale>  2 0.71600060E+02</rscale>
<asrwt>0</asrwt>
<pdfrwt beam="1">  1       21 0.14853267E+00 0.71600060E+02</pdfrwt>
<pdfrwt beam="2">  1       21 0.29870687E-02 0.71600060E+02</pdfrwt>
<totfact> 0.20617929E+05</totfact>
</mgrwt>
</event>
<event>
 5    1  0.1595802E+000  0.1032232E+03  0.7546771E-02  0.1273660E+00
         21   -1    0    0  501  502  0.00000000000E+00  0.00000000000E+00  0.12027571825E+03  0.12027571825E+03  0.00000000000E+00 0. -1.
         21   -1    0    0  502  503 -0.00000000000E+00 -0.00000000000E+00 -0.11191755590E+03  0.11191755590E+03  0.00000000000E+00 0.  1.
         24    1    1    2    0    0 -0.24312035525E+02 -0.67359167017E+02 -0.48578686315E+02  0.11813313325E+03  0.80419002446E+02 0.  1.
          1    1    1    2  501    0  0.45926028415E+02  0.27799033501E+02  0.28822249637E+02  0.60931998357E+02  0.00000000000E+00 0. -1.
         -2    1    1    2    0  503 -0.21613992890E+02  0.39560133516E+02  0.28114599024E+02  0.53128142549E+02  0.00000000000E+00 0.  1.
<mgrwt>
<rscale>  2 0.10322317E+03</rscale>
<asrwt>0</asrwt>
<pdfrwt beam="1">  1       21 0.18503957E-01 0.10322317E+03</pdfrwt>
<pdfrwt beam="2">  1       21 0.17218086E-01 0.10322317E+03</pdfrwt>
<totfact> 0.81415588E+05</totfact>
</mgrwt>
</event>
<event>
 5    1  0.1595802E+000  0.7304716E+02  0.7546771E-02  0.1350027E+00
         21   -1    0    0  501  502  0.00000000000E+00  0.00000000000E+00  0.58960547682E+02  0.58960547682E+02  0.00000000000E+00 0.  1.
         21   -1    0    0  502  503 -0.00000000000E+00 -0.00000000000E+00 -0.15551415870E+03  0.15551415870E+03  0.00000000000E+00 0. -1.
         24    1    1    2    0    0 -0.11684649700E+02  0.10577333500E+02 -0.14947470676E+01  0.81962560024E+02  0.80419002446E+02 0.  1.
          1    1    1    2  501    0 -0.70302894864E+01  0.23901945796E+02  0.46665328295E+01  0.25347672709E+02  0.00000000000E+00 0. -1.
         -2    1    1    2    0  503  0.18714939186E+02 -0.34479279296E+02 -0.99725396778E+02  0.10716447365E+03  0.00000000000E+00 0.  1.
<mgrwt>
<rscale>  2 0.73047160E+02</rscale>
<asrwt>0</asrwt>
<pdfrwt beam="1">  1       21 0.90708536E-02 0.73047160E+02</pdfrwt>
<pdfrwt beam="2">  1       21 0.23925255E-01 0.73047160E+02</pdfrwt>
<totfact> 0.15549462E+06</totfact>
</mgrwt>
</event>
<event>
 5    1  0.1595802E+000  0.6649691E+02  0.7546771E-02  0.1372428E+00
         21   -1    0    0  503  502  0.00000000000E+00  0.00000000000E+00  0.12421078363E+03  0.12421078363E+03  0.00000000000E+00 0. -1.
         21   -1    0    0  501  503 -0.00000000000E+00 -0.00000000000E+00 -0.42110576948E+02  0.42110576948E+02  0.00000000000E+00 0. -1.
         24    1    1    2    0    0 -0.80044980405E+01  0.88492723570E+01  0.31529904201E+02  0.87199383160E+02  0.80419002446E+02 0.  1.
          1    1    1    2  501    0  0.48838894043E+01 -0.29959396472E+02  0.78267739231E+01  0.31347666623E+02  0.00000000000E+00 0. -1.
         -2    1    1    2    0  502  0.31206086362E+01  0.21110124115E+02  0.42743528563E+02  0.47774310800E+02  0.00000000000E+00 0.  1.
<mgrwt>
<rscale>  2 0.66496913E+02</rscale>
<asrwt>0</asrwt>
<pdfrwt beam="1">  1       21 0.19109351E-01 0.66496913E+02</pdfrwt>
<pdfrwt beam="2">  1       21 0.64785503E-02 0.66496913E+02</pdfrwt>
<totfact> 0.41218827E+06</totfact>
</mgrwt>
</event>
<event>
 5    1  0.1595802E+000  0.1198994E+03  0.7546771E-02  0.1243263E+00
         21   -1    0    0  503  502  0.00000000000E+00  0.00000000000E+00  0.61783296636E+01  0.61783296636E+01  0.00000000000E+00 0. -1.
         21   -1    0    0  501  503 -0.00000000000E+00 -0.00000000000E+00 -0.29173753326E+04  0.29173753326E+04  0.00000000000E+00 0. -1.
         24    1    1    2    0    0  0.87423614759E+02  0.47492127503E+01 -0.82983484824E+03  0.83830694542E+03  0.80419002446E+02 0. -1.
          1    1    1    2  501    0 -0.62255097631E+02 -0.42620032184E+02 -0.15887380697E+04  0.15905284714E+04  0.00000000000E+00 0. -1.
         -2    1    1    2    0  502 -0.25168517128E+02  0.37870819433E+02 -0.49262408498E+03  0.49471824539E+03  0.00000000000E+00 0.  1.
<mgrwt>
<rscale>  2 0.11989938E+03</rscale>
<asrwt>0</asrwt>
<pdfrwt beam="1">  1       21 0.95051119E-03 0.11989938E+03</pdfrwt>
<pdfrwt beam="2">  1       21 0.44882748E+00 0.11989938E+03</pdfrwt>
<totfact> 0.19325444E+04</totfact>
</mgrwt>
</event>
<event>
 5    1  0.1595802E+000  0.1386586E+03  0.7546771E-02  0.1215145E+00
         21   -1    0    0  503  502  0.00000000000E+00  0.00000000000E+00  0.12126496565E+04  0.12126496565E+04  0.00000000000E+00 0. -1.
         21   -1    0    0  501  503 -0.00000000000E+00 -0.00000000000E+00 -0.18896412127E+02  0.18896412127E+02  0.00000000000E+00 0.  1.
         24    1    1    2    0    0  0.90496780508E+02  0.65890102130E+02  0.49721805442E+03  0.51596916810E+03  0.80419002446E+02 0.  0.
          1    1    1    2  501    0 -0.67964652898E+02 -0.85770412827E+02  0.32707583930E+03  0.34489761149E+03  0.00000000000E+00 0. -1.
         -2    1    1    2    0  502 -0.22532127610E+02  0.19880310697E+02  0.36945935068E+03  0.37067928905E+03  0.00000000000E+00 0.  1.
<mgrwt>
<rscale>  2 0.13865857E+03</rscale>
<asrwt>0</asrwt>
<pdfrwt beam="1">  1       21 0.18656142E+00 0.13865857E+03</pdfrwt>
<pdfrwt beam="2">  1       21 0.29071413E-02 0.13865857E+03</pdfrwt>
<totfact> 0.11290010E+05</totfact>
</mgrwt>
</event>
<event>
 5    1  0.1595802E+000  0.1118375E+03  0.7546771E-02  0.1257204E+00
         21   -1    0    0  503  502  0.00000000000E+00  0.00000000000E+00  0.14693849257E+03  0.14693849257E+03  0.00000000000E+00 0. -1.
         21   -1    0    0  501  503 -0.00000000000E+00 -0.00000000000E+00 -0.11318100068E+03  0.11318100068E+03  0.00000000000E+00 0. -1.
         24    1    1    2    0    0 -0.75878516859E+02  0.53195106041E+02  0.64254651647E+02  0.13850323043E+03  0.80419002446E+02 0. -1.
          1    1    1    2  501    0  0.43553276296E+02 -0.62780305450E+01 -0.44880945473E+02  0.62853805057E+02  0.00000000000E+00 0. -1.
         -2    1    1    2    0  502  0.32325240563E+02 -0.46917075496E+02  0.14383785723E+02  0.58762457762E+02  0.00000000000E+00 0.  1.
<mgrwt>
<rscale>  2 0.11183750E+03</rscale>
<asrwt>0</asrwt>
<pdfrwt beam="1">  1       21 0.22605922E-01 0.11183750E+03</pdfrwt>
<pdfrwt beam="2">  1       21 0.17412462E-01 0.11183750E+03</pdfrwt>
<totfact> 0.55164317E+05</totfact>
</mgrwt>
</event>
<event>
 5    1  0.1595802E+000  0.8695118E+02  0.7546771E-02  0.1310407E+00
         21   -1    0    0  503  502  0.00000000000E+00  0.00000000000E+00  0.14292692658E+02  0.14292692658E+02  0.00000000000E+00 0.  1.
         21   -1    0    0  501  503 -0.00000000000E+00 -0.00000000000E+00 -0.77953075914E+03  0.77953075914E+03  0.00000000000E+00 0. -1.
         24    1    1    2    0    0  0.45937071349E+02 -0.15440861142E+02 -0.62324840701E+03  0.63028122891E+03  0.80419002446E+02 0. -1.
          1    1    1    2  501    0  0.29835418188E+01  0.29072562096E+02 -0.65556021731E+02  0.71775395323E+02  0.00000000000E+00 0. -1.
         -2    1    1    2    0  502 -0.48920613168E+02 -0.13631700953E+02 -0.76433637739E+02  0.91766827567E+02  0.00000000000E+00 0.  1.
<mgrwt>
<rscale>  2 0.86951179E+02</rscale>
<asrwt>0</asrwt>
<pdfrwt beam="1">  1       21 0.21988753E-02 0.86951179E+02</pdfrwt>
<pdfrwt beam="2">  1       21 0.11992784E+00 0.86951179E+02</pdfrwt>
<totfact> 0.56839669E+05</totfact>
</mgrwt>
</event>
<event>
 5    1  0.1595802E+000  0.1172994E+03  0.7546771E-02  0.1247620E+00
         21   -1    0    0  501  502  0.00000000000E+00  0.00000000000E+00  0.72506957319E+03  0.72506957319E+03  0.00000000000E+00 0. -1.
         21   -1    0    0  502  503 -0.00000000000E+00 -0.00000000000E+00 -0.43185845810E+02  0.43185845810E+02  0.00000000000E+00 0.  1.
         24    1    1    2    0    0 -0.44725474222E+02  0.90409406065E+02  0.23204243771E+03  0.26549037196E+03  0.80419002446E+02 0. -1.
          1    1    1    2  501    0  0.47128495525E+02 -0.66163607191E+02  0.46632559722E+03  0.47334794879E+03  0.00000000000E+00 0. -1.
         -2    1    1    2    0  503 -0.24030213022E+01 -0.24245798874E+02 -0.16484307544E+02  0.29417098253E+02  0.00000000000E+00 0.  1.
<mgrwt>
<rscale>  2 0.11729940E+03</rscale>
<asrwt>0</asrwt>
<pdfrwt beam="1">  1       21 0.11154916E+00 0.11729940E+03</pdfrwt>
<pdfrwt beam="2">  1       21 0.66439768E-02 0.11729940E+03</pdfrwt>
<totfact> 0.10798499E+05</totfact>
</mgrwt>
</event>
<event>
 5    1  0.1595802E+000  0.6948700E+02  0.7546771E-02  0.1361846E+00
         21   -1    0    0  503  502  0.00000000000E+00  0.00000000000E+00  0.95016280866E+03  0.95016280866E+03  0.00000000000E+00 0.  1.
         21   -1    0    0  501  503 -0.00000000000E+00 -0.00000000000E+00 -0.12481412244E+02  0.12481412244E+02  0.00000000000E+00 0.  1.
         24    1    1    2    0    0 -0.21737725101E+01 -0.26987633173E+02  0.31332863319E+03  0.32461531997E+03  0.80419002446E+02 0.  1.
          1    1    1    2  501    0 -0.20919843745E+02  0.22259162010E+02  0.28713742365E+02  0.41923610964E+02  0.00000000000E+00 0. -1.
         -2    1    1    2    0  502  0.23093616255E+02  0.47284711631E+01  0.59563902086E+03  0.59610528996E+03  0.00000000000E+00 0.  1.
<mgrwt>
<rscale>  2 0.69487003E+02</rscale>
<asrwt>0</asrwt>
<pdfrwt beam="1">  1       21 0.14617884E+00 0.69487003E+02</pdfrwt>
<pdfrwt beam="2">  1       21 0.19202180E-02 0.69487003E+02</pdfrwt>
<totfact> 0.43567170E+05</totfact>
</mgrwt>
</event>
<event>
 5    1  0.1595802E+000  0.1203693E+03  0.7546771E-02  0.1242489E+00
         21   -1    0    0  503  502  0.00000000000E+00  0.00000000000E+00  0.35771291391E+03  0.35771291391E+03  0.00000000000E+00 0.  1.
         21   -1    0    0  501  503 -0.00000000000E+00 -0.00000000000E+00 -0.58944340282E+02  0.58944340282E+02  0.00000000000E+00 0.  1.
         24    1    1    2    0    0  0.73149936161E+02  0.73482443112E+02  0.25996372965E+03  0.29120257433E+03  0.80419002446E+02 0.  1.
          1    1    1    2  501    0 -0.20645254888E+02 -0.45638847167E+02 -0.67892262182E+01  0.50549228607E+02  0.00000000000E+00 0. -1.
         -2    1    1    2    0  502 -0.52504681273E+02 -0.27843595945E+02  0.45594070189E+02  0.74905451251E+02  0.00000000000E+00 0.  1.
<mgrwt>
<rscale>  2 0.12036926E+03</rscale>
<asrwt>0</asrwt>
<pdfrwt beam="1">  1       21 0.55032755E-01 0.12036926E+03</pdfrwt>
<pdfrwt beam="2">  1       21 0.90683603E-02 0.12036926E+03</pdfrwt>
<totfact> 0.30496336E+05</totfact>
</mgrwt>
</event>
<event>
 5    1  0.1595802E+000  0.7933141E+02  0.7546771E-02  0.1330960E+00
         21   -1    0    0  503  502  0.00000000000E+00  0.00000000000E+00  0.41749453976E+02  0.41749453976E+02  0.00000000000E+00 0.  1.
         21   -1    0    0  501  503 -0.00000000000E+00 -0.00000000000E+00 -0.28808748066E+03  0.28808748066E+03  0.00000000000E+00 0.  1.
         24    1    1    2    0    0 -0.49373382200E+02  0.12836939682E+01 -0.10575305645E+03  0.14174026825E+03  0.80419002446E+02 0.  1.
          1    1    1    2  501    0  0.14853095203E+02 -0.20084514509E+02 -0.14626286030E+03  0.14838068090E+03  0.00000000000E+00 0. -1.
         -2    1    1    2    0  502  0.34520286997E+02  0.18800820541E+02  0.56778900729E+01  0.39715985485E+02  0.00000000000E+00 0.  1.
<mgrwt>
<rscale>  2 0.79331410E+02</rscale>
<asrwt>0</asrwt>
<pdfrwt beam="1">  1       21 0.64229931E-02 0.79331410E+02</pdfrwt>
<pdfrwt beam="2">  1       21 0.44321149E-01 0.79331410E+02</pdfrwt>
<totfact> 0.85648043E+05</totfact>
</mgrwt>
</event>
<event>
 5    1  0.1595802E+000  0.1494677E+03  0.7546771E-02  0.1201129E+00
         21   -1    0    0  503  502  0.00000000000E+00  0.00000000000E+00  0.29120025973E+03  0.29120025973E+03  0.00000000000E+00 0.  1.
         21   -1    0    0  501  503 -0.00000000000E+00 -0.00000000000E+00 -0.12050228784E+03  0.12050228784E+03  0.00000000000E+00 0. -1.
         24    1    1    2    0    0 -0.47096516860E+02 -0.26258586185E+02  0.75449136697E+01  0.97117129928E+02  0.80419002446E+02 0. -1.
          1    1    1    2  501    0  0.10031038688E+03  0.78625439348E+02 -0.81572013354E+01  0.12771324662E+03  0.00000000000E+00 0. -1.
         -2    1    1    2    0  502 -0.53213870025E+02 -0.52366853163E+02  0.17131025955E+03  0.18687217102E+03  0.00000000000E+00 0.  1.
<mgrwt>
<rscale>  2 0.14946767E+03</rscale>
<asrwt>0</asrwt>
<pdfrwt beam="1">  1       21 0.44800040E-01 0.14946767E+03</pdfrwt>
<pdfrwt beam="2">  1       21 0.18538814E-01 0.14946767E+03</pdfrwt>
<totfact> 0.12905556E+05</totfact>
</mgrwt>
</event>
<event>
 5    1  0.1595802E+000  0.1087549E+03  0.7546771E-02  0.1262893E+00
         21   -1    0    0  503  502  0.00000000000E+00  0.00000000000E+00  0.10730039225E+03  0.10730039225E+03  0.00000000000E+00 0.  1.
         21   -1    0    0  501  503 -0.00000000000E+00 -0.00000000000E+00 -0.59793422248E+03  0.59793422248E+03  0.00000000000E+00 0. -1.
         24    1    1    2    0    0 -0.65877368110E+02  0.87864724034E+01 -0.58097161736E+02  0.11941325673E+03  0.80419002446E+02 0. -1.
          1    1    1    2  501    0  0.83138093870E+02  0.14297536433E+02 -0.50282516470E+03  0.50985243792E+03  0.00000000000E+00 0. -1.
         -2    1    1    2    0  502 -0.17260725760E+02 -0.23084008837E+02  0.70288496207E+02  0.75968920071E+02  0.00000000000E+00 0.  1.
<mgrwt>
<rscale>  2 0.10875490E+03</rscale>
<asrwt>0</asrwt>
<pdfrwt beam="1">  1       21 0.16507752E-01 0.10875490E+03</pdfrwt>
<pdfrwt beam="2">  1       21 0.91989883E-01 0.10875490E+03</pdfrwt>
<totfact> 0.34624495E+04</totfact>
</mgrwt>
</event>
<event>
 5    1  0.1595802E+000  0.7865956E+02  0.7546771E-02  0.1332899E+00
         21   -1    0    0  503  502  0.00000000000E+00  0.00000000000E+00  0.18375138809E+03  0.18375138809E+03  0.00000000000E+00 0.  1.
         21   -1    0    0  501  503 -0.00000000000E+00 -0.00000000000E+00 -0.44631461277E+02  0.44631461277E+02  0.00000000000E+00 0.  1.
         24    1    1    2    0    0 -0.46637256556E+02  0.30456686312E+02  0.37801948876E+02  0.10487538669E+03  0.80419002446E+02 0.  1.
          1    1    1    2  501    0  0.36316941921E+02 -0.11823510936E+02  0.28545828615E+02  0.47682072236E+02  0.00000000000E+00 0. -1.
         -2    1    1    2    0  502  0.10320314635E+02 -0.18633175376E+02  0.72772149319E+02  0.75825390439E+02  0.00000000000E+00 0.  1.
<mgrwt>
<rscale>  2 0.78659563E+02</rscale>
<asrwt>0</asrwt>
<pdfrwt beam="1">  1       21 0.28269444E-01 0.78659563E+02</pdfrwt>
<pdfrwt beam="2">  1       21 0.68663788E-02 0.78659563E+02</pdfrwt>
<totfact> 0.18319866E+06</totfact>
</mgrwt>
</event>
<event>
 5    1  0.1595802E+000  0.9721897E+02  0.7546771E-02  0.1286255E+00
         21   -1    0    0  501  502  0.00000000000E+00  0.00000000000E+00  0.20360841521E+03  0.20360841521E+03  0.00000000000E+00 0. -1.
         21   -1    0    0  502  503 -0.00000000000E+00 -0.00000000000E+00 -0.63407748954E+02  0.63407748954E+02  0.00000000000E+00 0.  1.
         24    1    1    2    0    0 -0.25228074164E+02  0.37395841468E+02  0.12461563734E+03  0.15501992681E+03  0.80419002446E+02 0. -1.
          1    1    1    2  501    0  0.53802890741E+02  0.16713714986E+01  0.29829740786E+02  0.61541514201E+02  0.00000000000E+00 0. -1.
         -2    1    1    2    0  503 -0.28574816577E+02 -0.39067212966E+02 -0.14244711875E+02  0.50454723146E+02  0.00000000000E+00 0.  1.
<mgrwt>
<rscale>  2 0.97218965E+02</rscale>
<asrwt>0</asrwt>
<pdfrwt beam="1">  1       21 0.31324371E-01 0.97218965E+02</pdfrwt>
<pdfrwt beam="2">  1       21 0.97550384E-02 0.97218965E+02</pdfrwt>
<totfact> 0.83113615E+05</totfact>
</mgrwt>
</event>
<event>
 5    1  0.1595802E+000  0.6339864E+02  0.7546771E-02  0.1384098E+00
         21   -1    0    0  503  502  0.00000000000E+00  0.00000000000E+00  0.64484582212E+02  0.64484582212E+02  0.00000000000E+00 0.  1.
         21   -1    0    0  501  503 -0.00000000000E+00 -0.00000000000E+00 -0.22916018583E+03  0.22916018583E+03  0.00000000000E+00 0.  1.
         24    1    1    2    0    0  0.10502201925E+02 -0.19724366789E+02 -0.18299625827E+03  0.20113227833E+03  0.80419002446E+02 0.  1.
          1    1    1    2  501    0  0.11733000526E+02  0.17384435651E+02 -0.31535238804E+02  0.37872855592E+02  0.00000000000E+00 0. -1.
         -2    1    1    2    0  502 -0.22235202451E+02  0.23399311378E+01  0.49855893451E+02  0.54639634127E+02  0.00000000000E+00 0.  1.
<mgrwt>
<rscale>  2 0.63398643E+02</rscale>
<asrwt>0</asrwt>
<pdfrwt beam="1">  1       21 0.99207047E-02 0.63398643E+02</pdfrwt>
<pdfrwt beam="2">  1       21 0.35255414E-01 0.63398643E+02</pdfrwt>
<totfact> 0.63921002E+05</totfact>
</mgrwt>
</event>
<event>
 5    1  0.1595802E+000  0.7611194E+02  0.7546771E-02  0.1340462E+00
         21   -1    0    0  503  502  0.00000000000E+00  0.00000000000E+00  0.72798132736E+03  0.72798132736E+03  0.00000000000E+00 0.  1.
         21   -1    0    0  501  503 -0.00000000000E+00 -0.00000000000E+00 -0.17878454283E+02  0.17878454283E+02  0.00000000000E+00 0.  1.
         24    1    1    2    0    0  0.84322909499E+01 -0.36818425977E+01  0.11506265793E+03  0.14068152224E+03  0.80419002446E+02 0.  1.
          1    1    1    2  501    0  0.52585118515E+00 -0.33261823359E+02  0.58530098141E+02  0.67323085201E+02  0.00000000000E+00 0. -1.
         -2    1    1    2    0  502 -0.89581421351E+01  0.36943665956E+02  0.53651011701E+03  0.53785517421E+03  0.00000000000E+00 0.  1.
<mgrwt>
<rscale>  2 0.76111940E+02</rscale>
<asrwt>0</asrwt>
<pdfrwt beam="1">  1       21 0.11199710E+00 0.76111940E+02</pdfrwt>
<pdfrwt beam="2">  1       21 0.27505320E-02 0.76111940E+02</pdfrwt>
<totfact> 0.46711591E+05</totfact>
</mgrwt>
</event>
<event>
 5    1  0.1595802E+000  0.8385821E+02  0.7546771E-02  0.1318446E+00
         21   -1    0    0  501  502  0.00000000000E+00  0.00000000000E+00  0.38226425532E+02  0.38226425532E+02  0.00000000000E+00 0.  1.
         21   -1    0    0  502  503 -0.00000000000E+00 -0.00000000000E+00 -0.22739982372E+03  0.22739982372E+03  0.00000000000E+00 0. -1.
         24    1    1    2    0    0  0.33244314783E+02 -0.32084493326E+02 -0.48250046871E+02  0.10454607671E+03  0.80419002446E+02 0.  1.
          1    1    1    2  501    0  0.42895917836E+01  0.36882509851E+02 -0.47543682549E+02  0.60325134736E+02  0.00000000000E+00 0. -1.
         -2    1    1    2    0  503 -0.37533906567E+02 -0.47980165259E+01 -0.93379668773E+02  0.10075503781E+03  0.00000000000E+00 0.  1.
<mgrwt>
<rscale>  2 0.83858212E+02</rscale>
<asrwt>0</asrwt>
<pdfrwt beam="1">  1       21 0.58809886E-02 0.83858212E+02</pdfrwt>
<pdfrwt beam="2">  1       21 0.34984588E-01 0.83858212E+02</pdfrwt>
<totfact> 0.15842605E+06</totfact>
</mgrwt>
</event>
<event>
 5    1  0.1595802E+000  0.1482538E+03  0.7546771E-02  0.1202635E+00
         21   -1    0    0  501  502  0.00000000000E+00  0.00000000000E+00  0.17923153018E+03  0.17923153018E+03  0.00000000000E+00 0. -1.
         21   -1    0    0  502  503 -0.00000000000E+00 -0.00000000000E+00 -0.20642234962E+03  0.20642234962E+03  0.00000000000E+00 0.  1.
         24    1    1    2    0    0 -0.99341902914E+02  0.55081447420E+01  0.92386389130E+02  0.15780245304E+03  0.80419002446E+02 0. -1.
          1    1    1    2  501    0  0.33292745708E+02 -0.69217722623E+02  0.39092659200E+00  0.76809197792E+02  0.00000000000E+00 0. -1.
         -2    1    1    2    0  503  0.66049157206E+02  0.63709577881E+02 -0.11996813516E+03  0.15104222898E+03  0.00000000000E+00 0.  1.
<mgrwt>
<rscale>  2 0.14825375E+03</rscale>
<asrwt>0</asrwt>
<pdfrwt beam="1">  1       21 0.27574082E-01 0.14825375E+03</pdfrwt>
<pdfrwt beam="2">  1       21 0.31757285E-01 0.14825375E+03</pdfrwt>
<totfact> 0.12154071E+05</totfact>
</mgrwt>
</event>
<event>
 5    1  0.1595802E+000  0.8049363E+02  0.7546771E-02  0.1327656E+00
         21   -1    0    0  503  502  0.00000000000E+00  0.00000000000E+00  0.89602362151E+02  0.89602362151E+02  0.00000000000E+00 0.  1.
         21   -1    0    0  501  503 -0.00000000000E+00 -0.00000000000E+00 -0.11326102653E+03  0.11326102653E+03  0.00000000000E+00 0.  1.
         24    1    1    2    0    0  0.26038581285E+02 -0.81490588255E+01 -0.40552251971E+02  0.94106939007E+02  0.80419002446E+02 0.  1.
          1    1    1    2  501    0 -0.24275136729E+02  0.38581168814E+02 -0.28733604526E+02  0.53883289426E+02  0.00000000000E+00 0. -1.
         -2    1    1    2    0  502 -0.17634445565E+01 -0.30432109989E+02  0.45627192118E+02  0.54873160248E+02  0.00000000000E+00 0.  1.
<mgrwt>
<rscale>  2 0.80493625E+02</rscale>
<asrwt>0</asrwt>
<pdfrwt beam="1">  1       21 0.13784979E-01 0.80493625E+02</pdfrwt>
<pdfrwt beam="2">  1       21 0.17424773E-01 0.80493625E+02</pdfrwt>
<totfact> 0.13447275E+06</totfact>
</mgrwt>
</event>
<event>
 5    1  0.1595802E+000  0.1047057E+03  0.7546771E-02  0.1270701E+00
         21   -1    0    0  503  502  0.00000000000E+00  0.00000000000E+00  0.65505205383E+02  0.65505205383E+02  0.00000000000E+00 0.  1.
         21   -1    0    0  501  503 -0.00000000000E+00 -0.00000000000E+00 -0.51577373798E+03  0.51577373798E+03  0.00000000000E+00 0. -1.
         24    1    1    2    0    0  0.19549354718E+02 -0.78826509365E+02 -0.23274178753E+03  0.25929086267E+03  0.80419002446E+02 0. -1.
          1    1    1    2  501    0  0.69221987790E+01  0.64783169242E+02 -0.26109967252E+03  0.26910558308E+03  0.00000000000E+00 0. -1.
         -2    1    1    2    0  502 -0.26471553497E+02  0.14043340123E+02  0.43572927456E+02  0.52882497610E+02  0.00000000000E+00 0.  1.
<mgrwt>
<rscale>  2 0.10470572E+03</rscale>
<asrwt>0</asrwt>
<pdfrwt beam="1">  1       21 0.10077724E-01 0.10470572E+03</pdfrwt>
<pdfrwt beam="2">  1       21 0.79349803E-01 0.10470572E+03</pdfrwt>
<totfact> 0.11612419E+05</totfact>
</mgrwt>
</event>
<event>
 5    1  0.1595802E+000  0.1126596E+03  0.7546771E-02  0.1255722E+00
         21   -1    0    0  501  502  0.00000000000E+00  0.00000000000E+00  0.27876561972E+03  0.27876561972E+03  0.00000000000E+00 0. -1.
         21   -1    0    0  502  503 -0.00000000000E+00 -0.00000000000E+00 -0.71208798617E+02  0.71208798617E+02  0.00000000000E+00 0.  1.
         24    1    1    2    0    0 -0.32822272236E+02 -0.89352111224E+02  0.23962283640E+02  0.12689565921E+03  0.80419002446E+02 0.  1.
          1    1    1    2  501    0 -0.45242451544E+01  0.31659059382E+02  0.13543242976E+03  0.13915713372E+03  0.00000000000E+00 0. -1.
         -2    1    1    2    0  503  0.37346517390E+02  0.57693051842E+02  0.48162107702E+02  0.83921625404E+02  0.00000000000E+00 0.  1.
<mgrwt>
<rscale>  2 0.11265964E+03</rscale>
<asrwt>0</asrwt>
<pdfrwt beam="1">  1       21 0.42887018E-01 0.11265964E+03</pdfrwt>
<pdfrwt beam="2">  1       21 0.10955200E-01 0.11265964E+03</pdfrwt>
<totfact> 0.36602949E+05</totfact>
</mgrwt>
</event>
<event>
 5    1  0.1595802E+000  0.7994527E+02  0.7546771E-02  0.1329207E+00
         21   -1    0    0  503  502  0.00000000000E+00  0.00000000000E+00  0.15285813107E+03  0.15285813107E+03  0.00000000000E+00 0. -1.
         21   -1    0    0  501  503 -0.00000000000E+00 -0.00000000000E+00 -0.11753023823E+03  0.11753023823E+03  0.00000000000E+00 0.  1.
         24    1    1    2    0    0 -0.98596338289E+01  0.15932506697E+02 -0.86889512375E+00  0.82577406607E+02  0.80419002446E+02 0.  0.
          1    1    1    2  501    0 -0.15481326025E+02 -0.39677229293E+02 -0.66741281993E+02  0.79172929098E+02  0.00000000000E+00 0. -1.
         -2    1    1    2    0  502  0.25340959854E+02  0.23744722597E+02  0.10293806996E+03  0.10863803360E+03  0.00000000000E+00 0.  1.
<mgrwt>
<rscale>  2 0.79945270E+02</rscale>
<asrwt>0</asrwt>
<pdfrwt beam="1">  1       21 0.23516636E-01 0.79945270E+02</pdfrwt>
<pdfrwt beam="2">  1       21 0.18081575E-01 0.79945270E+02</pdfrwt>
<totfact> 0.47885214E+05</totfact>
</mgrwt>
</event>
<event>
 5    1  0.1595802E+000  0.1190297E+03  0.7546771E-02  0.1244706E+00
         21   -1    0    0  503  502  0.00000000000E+00  0.00000000000E+00  0.97715499353E+02  0.97715499353E+02  0.00000000000E+00 0.  1.
         21   -1    0    0  501  503 -0.00000000000E+00 -0.00000000000E+00 -0.16124576632E+03  0.16124576632E+03  0.00000000000E+00 0.  1.
         24    1    1    2    0    0  0.83696308731E+02  0.43626683464E+02 -0.52382068996E+02  0.13460853135E+03  0.80419002446E+02 0.  1.
          1    1    1    2  501    0 -0.54216019358E+02  0.78094599994E+01 -0.29600605680E+02  0.62262029176E+02  0.00000000000E+00 0. -1.
         -2    1    1    2    0  502 -0.29480289373E+02 -0.51436143463E+02  0.18452407706E+02  0.62090705150E+02  0.00000000000E+00 0.  1.
<mgrwt>
<rscale>  2 0.11902966E+03</rscale>
<asrwt>0</asrwt>
<pdfrwt beam="1">  1       21 0.15033154E-01 0.11902966E+03</pdfrwt>
<pdfrwt beam="2">  1       21 0.24807041E-01 0.11902966E+03</pdfrwt>
<totfact> 0.60442105E+05</totfact>
</mgrwt>
</event>
<event>
 5    1  0.1595802E+000  0.9093505E+02  0.7546771E-02  0.1300603E+00
         21   -1    0    0  501  502  0.00000000000E+00  0.00000000000E+00  0.35749956687E+03  0.35749956687E+03  0.00000000000E+00 0. -1.
         21   -1    0    0  502  503 -0.00000000000E+00 -0.00000000000E+00 -0.38547668460E+02  0.38547668460E+02  0.00000000000E+00 0. -1.
         24    1    1    2    0    0  0.24592146680E+00 -0.43063058176E+02  0.23808763151E+03  0.25496553432E+03  0.80419002446E+02 0. -1.
          1    1    1    2  501    0  0.38712462436E+02  0.31783343720E+02  0.86677205387E+02  0.10010880890E+03  0.00000000000E+00 0. -1.
         -2    1    1    2    0  503 -0.38958383903E+02  0.11279714456E+02 -0.58129384837E+01  0.40972892116E+02  0.00000000000E+00 0.  1.
<mgrwt>
<rscale>  2 0.90935049E+02</rscale>
<asrwt>0</asrwt>
<pdfrwt beam="1">  1       21 0.54999931E-01 0.90935049E+02</pdfrwt>
<pdfrwt beam="2">  1       21 0.59304108E-02 0.90935049E+02</pdfrwt>
<totfact> 0.63213193E+05</totfact>
</mgrwt>
</event>
<event>
 5    1  0.1595802E+000  0.7875461E+02  0.7546771E-02  0.1332623E+00
         21   -1    0    0  501  502  0.00000000000E+00  0.00000000000E+00  0.12774821108E+04  0.12774821108E+04  0.00000000000E+00 0. -1.
         21   -1    0    0  502  503 -0.00000000000E+00 -0.00000000000E+00 -0.13208070872E+02  0.13208070872E+02  0.00000000000E+00 0.  1.
         24    1    1    2    0    0 -0.15874761435E+00  0.42095599924E+02  0.34139577610E+03  0.35325678568E+03  0.80419002446E+02 0.  1.
          1    1    1    2  501    0  0.21875439352E+02 -0.39117671409E+02  0.91174916013E+03  0.91285007425E+03  0.00000000000E+00 0. -1.
         -2    1    1    2    0  503 -0.21716691737E+02 -0.29779285155E+01  0.11129103677E+02  0.24583321723E+02  0.00000000000E+00 0.  1.
<mgrwt>
<rscale>  2 0.78754613E+02</rscale>
<asrwt>0</asrwt>
<pdfrwt beam="1">  1       21 0.19653561E+00 0.78754613E+02</pdfrwt>
<pdfrwt beam="2">  1       21 0.20320119E-02 0.78754613E+02</pdfrwt>
<totfact> 0.18163038E+05</totfact>
</mgrwt>
</event>
<event>
 5    1  0.2342820E+000  0.1100347E+03  0.7546771E-02  0.1260506E+00
         21   -1    0    0  503  502  0.00000000000E+00  0.00000000000E+00  0.12925727605E+03  0.12925727605E+03  0.00000000000E+00 0.  1.
         21   -1    0    0  501  503 -0.00000000000E+00 -0.00000000000E+00 -0.11905148314E+04  0.11905148314E+04  0.00000000000E+00 0. -1.
         24    1    1    2    0    0 -0.30482696948E+02  0.38741167187E+02 -0.31476026471E+01  0.94377943425E+02  0.80419002446E+02 0. -1.
          1    1    1    2  501    0  0.17047869590E+02 -0.80288532205E+02 -0.11344676446E+04  0.11374329497E+04  0.00000000000E+00 0. -1.
         -2    1    1    2    0  502  0.13434827358E+02  0.41547365018E+02  0.76357691897E+02  0.87961214396E+02  0.00000000000E+00 0.  1.
<mgrwt>
<rscale>  2 0.11003473E+03</rscale>
<asrwt>0</asrwt>
<pdfrwt beam="1">  1       21 0.19885736E-01 0.11003473E+03</pdfrwt>
<pdfrwt beam="2">  1       21 0.18315612E+00 0.11003473E+03</pdfrwt>
<totfact> 0.44348371E+03</totfact>
</mgrwt>
</event>
<event>
 5    1  0.1595802E+000  0.8938787E+02  0.7546771E-02  0.1304341E+00
         21   -1    0    0  501  502  0.00000000000E+00  0.00000000000E+00  0.20126721440E+04  0.20126721440E+04  0.00000000000E+00 0. -1.
         21   -1    0    0  502  503 -0.00000000000E+00 -0.00000000000E+00 -0.68022385568E+01  0.68022385568E+01  0.00000000000E+00 0. -1.
         24    1    1    2    0    0 -0.67060749349E+02 -0.76390831833E+01  0.52228057497E+03  0.53272855625E+03  0.80419002446E+02 0. -1.
          1    1    1    2  501    0  0.34515603580E+02 -0.11069639856E+02  0.12155735589E+04  0.12161138684E+04  0.00000000000E+00 0. -1.
         -2    1    1    2    0  503  0.32545145769E+02  0.18708723040E+02  0.26801577162E+03  0.27063195795E+03  0.00000000000E+00 0.  1.
<mgrwt>
<rscale>  2 0.89387866E+02</rscale>
<asrwt>0</asrwt>
<pdfrwt beam="1">  1       21 0.30964139E+00 0.89387866E+02</pdfrwt>
<pdfrwt beam="2">  1       21 0.10464998E-02 0.89387866E+02</pdfrwt>
<totfact> 0.11745674E+05</totfact>
</mgrwt>
</event>
<event>
 5    1  0.1595802E+000  0.7706101E+02  0.7546771E-02  0.1337605E+00
         21   -1    0    0  503  502  0.00000000000E+00  0.00000000000E+00  0.43214880522E+02  0.43214880522E+02  0.00000000000E+00 0. -1.
         21   -1    0    0  501  503 -0.00000000000E+00 -0.00000000000E+00 -0.17116778483E+03  0.17116778483E+03  0.00000000000E+00 0. -1.
         24    1    1    2    0    0 -0.32685673149E+02  0.12736319748E+02 -0.35750617338E+02  0.94741171960E+02  0.80419002446E+02 0. -1.
          1    1    1    2  501    0 -0.95642409698E+01 -0.21234381658E+02 -0.64081697128E+02  0.68182384650E+02  0.00000000000E+00 0. -1.
         -2    1    1    2    0  502  0.42249914118E+02  0.84980619102E+01 -0.28120589838E+02  0.51459108738E+02  0.00000000000E+00 0.  1.
<mgrwt>
<rscale>  2 0.77061005E+02</rscale>
<asrwt>0</asrwt>
<pdfrwt beam="1">  1       21 0.66484434E-02 0.77061005E+02</pdfrwt>
<pdfrwt beam="2">  1       21 0.26333504E-01 0.77061005E+02</pdfrwt>
<totfact> 0.22084653E+06</totfact>
</mgrwt>
</event>
<event>
 5    1  0.1595802E+000  0.7146552E+02  0.7546771E-02  0.1355179E+00
         21   -1    0    0  501  502  0.00000000000E+00  0.00000000000E+00  0.99739417263E+02  0.99739417263E+02  0.00000000000E+00 0.  1.
         21   -1    0    0  502  503 -0.00000000000E+00 -0.00000000000E+00 -0.23512819184E+03  0.23512819184E+03  0.00000000000E+00 0.  1.
         24    1    1    2    0    0 -0.13454491993E+02  0.87086590323E+01 -0.15370099365E+03  0.17420699039E+03  0.80419002446E+02 0. -1.
          1    1    1    2  501    0  0.20634910224E+02  0.21547250451E+02  0.83373099972E+02  0.88550309547E+02  0.00000000000E+00 0. -1.
         -2    1    1    2    0  503 -0.71804182305E+01 -0.30255909483E+02 -0.65060880896E+02  0.72110309163E+02  0.00000000000E+00 0.  1.
<mgrwt>
<rscale>  2 0.71465517E+02</rscale>
<asrwt>0</asrwt>
<pdfrwt beam="1">  1       21 0.15344526E-01 0.71465517E+02</pdfrwt>
<pdfrwt beam="2">  1       21 0.36173568E-01 0.71465517E+02</pdfrwt>
<totfact> 0.28437089E+05</totfact>
</mgrwt>
</event>
<event>
 5    1  0.1595802E+000  0.7672541E+02  0.7546771E-02  0.1338610E+00
         21   -1    0    0  503  502  0.00000000000E+00  0.00000000000E+00  0.24788910810E+02  0.24788910810E+02  0.00000000000E+00 0.  1.
         21   -1    0    0  501  503 -0.00000000000E+00 -0.00000000000E+00 -0.31781684126E+03  0.31781684126E+03  0.00000000000E+00 0. -1.
         24    1    1    2    0    0 -0.41798458370E+02 -0.28391352569E+02 -0.25683030204E+03  0.27382877866E+03  0.80419002446E+02 0. -1.
          1    1    1    2  501    0  0.12197432993E+02  0.26071000297E+02 -0.18299265793E+02  0.34107734558E+02  0.00000000000E+00 0. -1.
         -2    1    1    2    0  502  0.29601025377E+02  0.23203522718E+01 -0.17898362615E+02  0.34669238849E+02  0.00000000000E+00 0.  1.
<mgrwt>
<rscale>  2 0.76725413E+02</rscale>
<asrwt>0</asrwt>
<pdfrwt beam="1">  1       21 0.38136787E-02 0.76725413E+02</pdfrwt>
<pdfrwt beam="2">  1       21 0.48894897E-01 0.76725413E+02</pdfrwt>
<totfact> 0.16661542E+06</totfact>
</mgrwt>
</event>
<event>
 5    1  0.1595802E+000  0.7835134E+02  0.7546771E-02  0.1333796E+00
         21   -1    0    0  503  502  0.00000000000E+00  0.00000000000E+00  0.15066376531E+03  0.15066376531E+03  0.00000000000E+00 0.  1.
         21   -1    0    0  501  503 -0.00000000000E+00 -0.00000000000E+00 -0.12084135922E+03  0.12084135922E+03  0.00000000000E+00 0.  1.
         24    1    1    2    0    0 -0.10926379095E+02 -0.36385120410E+02 -0.53616516990E+02  0.10385186371E+03  0.80419002446E+02 0.  1.
          1    1    1    2  501    0 -0.21708219981E+02  0.45674715213E+01 -0.34611087624E+02  0.41110047401E+02  0.00000000000E+00 0. -1.
         -2    1    1    2    0  502  0.32634599076E+02  0.31817648888E+02  0.11805001070E+03  0.12654321342E+03  0.00000000000E+00 0.  1.
<mgrwt>
<rscale>  2 0.78351338E+02</rscale>
<asrwt>0</asrwt>
<pdfrwt beam="1">  1       21 0.23179041E-01 0.78351338E+02</pdfrwt>
<pdfrwt beam="2">  1       21 0.18590978E-01 0.78351338E+02</pdfrwt>
<totfact> 0.46773394E+05</totfact>
</mgrwt>
</event>
<event>
 5    1  0.1595802E+000  0.8119197E+02  0.7546771E-02  0.1325702E+00
         21   -1    0    0  503  502  0.00000000000E+00  0.00000000000E+00  0.16327379560E+03  0.16327379560E+03  0.00000000000E+00 0.  1.
         21   -1    0    0  501  503 -0.00000000000E+00 -0.00000000000E+00 -0.76284546973E+02  0.76284546973E+02  0.00000000000E+00 0.  1.
         24    1    1    2    0    0 -0.50014285771E+02  0.13208145482E+02  0.43763705901E+02  0.10515874570E+03  0.80419002446E+02 0.  1.
          1    1    1    2  501    0  0.16828210673E+02 -0.26189226132E+02 -0.35961785909E+02  0.47563791750E+02  0.00000000000E+00 0. -1.
         -2    1    1    2    0  502  0.33186075098E+02  0.12981080650E+02  0.79187328631E+02  0.86835805121E+02  0.00000000000E+00 0.  1.
<mgrwt>
<rscale>  2 0.81191972E+02</rscale>
<asrwt>0</asrwt>
<pdfrwt beam="1">  1       21 0.25119045E-01 0.81191972E+02</pdfrwt>
<pdfrwt beam="2">  1       21 0.11736084E-01 0.81191972E+02</pdfrwt>
<totfact> 0.91277699E+05</totfact>
</mgrwt>
</event>
<event>
 5    1  0.1595802E+000  0.7685434E+02  0.7546771E-02  0.1338223E+00
         21   -1    0    0  501  502  0.00000000000E+00  0.00000000000E+00  0.47440113660E+03  0.47440113660E+03  0.00000000000E+00 0. -1.
         21   -1    0    0  502  503 -0.00000000000E+00 -0.00000000000E+00 -0.45988094124E+02  0.45988094124E+02  0.00000000000E+00 0. -1.
         24    1    1    2    0    0 -0.34815249626E+02  0.41789743363E+02  0.90670694102E+02  0.13284154087E+03  0.80419002446E+02 0. -1.
          1    1    1    2  501    0  0.10304504711E+02 -0.24640051002E+02  0.35297088991E+03  0.35397989217E+03  0.00000000000E+00 0. -1.
         -2    1    1    2    0  503  0.24510744915E+02 -0.17149692361E+02 -0.15228541540E+02  0.33567797691E+02  0.00000000000E+00 0.  1.
<mgrwt>
<rscale>  2 0.76854345E+02</rscale>
<asrwt>0</asrwt>
<pdfrwt beam="1">  1       21 0.72984787E-01 0.76854345E+02</pdfrwt>
<pdfrwt beam="2">  1       21 0.70750917E-02 0.76854345E+02</pdfrwt>
<totfact> 0.25840718E+05</totfact>
</mgrwt>
</event>
<event>
 5    1  0.1595802E+000  0.8078123E+02  0.7546771E-02  0.1326849E+00
         21   -1    0    0  501  502  0.00000000000E+00  0.00000000000E+00  0.25874101551E+03  0.25874101551E+03  0.00000000000E+00 0.  1.
         21   -1    0    0  502  503 -0.00000000000E+00 -0.00000000000E+00 -0.34680450160E+02  0.34680450160E+02  0.00000000000E+00 0. -1.
         24    1    1    2    0    0 -0.43740130647E+00 -0.80321852406E+01  0.82713790779E+02  0.11564382586E+03  0.80419002446E+02 0. -1.
          1    1    1    2  501    0 -0.27682463679E+02 -0.25042899875E+02  0.12650517845E+03  0.13189778544E+03  0.00000000000E+00 0. -1.
         -2    1    1    2    0  503  0.28119864985E+02  0.33075085116E+02  0.14841596129E+02  0.45879854379E+02  0.00000000000E+00 0.  1.
<mgrwt>
<rscale>  2 0.80781231E+02</rscale>
<asrwt>0</asrwt>
<pdfrwt beam="1">  1       21 0.39806309E-01 0.80781231E+02</pdfrwt>
<pdfrwt beam="2">  1       21 0.53354540E-02 0.80781231E+02</pdfrwt>
<totfact> 0.14463179E+06</totfact>
</mgrwt>
</event>
<event>
 5    1  0.1595802E+000  0.7846450E+02  0.7546771E-02  0.1333466E+00
         21   -1    0    0  501  502  0.00000000000E+00  0.00000000000E+00  0.61080382808E+03  0.61080382808E+03  0.00000000000E+00 0. -1.
         21   -1    0    0  502  503 -0.00000000000E+00 -0.00000000000E+00 -0.59279390665E+02  0.59279390665E+02  0.00000000000E+00 0.  1.
         24    1    1    2    0    0 -0.11268114656E+02  0.34828880448E+02  0.44064907911E+03  0.44942056940E+03  0.80419002446E+02 0. -1.
          1    1    1    2  501    0 -0.78253117896E+01 -0.45857737566E+02  0.16010172786E+03  0.16672351623E+03  0.00000000000E+00 0. -1.
         -2    1    1    2    0  503  0.19093426446E+02  0.11028857118E+02 -0.49226369553E+02  0.53939133124E+02  0.00000000000E+00 0.  1.
<mgrwt>
<rscale>  2 0.78464504E+02</rscale>
<asrwt>0</asrwt>
<pdfrwt beam="1">  1       21 0.93969815E-01 0.78464504E+02</pdfrwt>
<pdfrwt beam="2">  1       21 0.91199067E-02 0.78464504E+02</pdfrwt>
<totfact> 0.95814182E+04</totfact>
</mgrwt>
</event>
<event>
 5    1  0.1595802E+000  0.1080116E+03  0.7546771E-02  0.1264297E+00
         21   -1    0    0  501  502  0.00000000000E+00  0.00000000000E+00  0.18454999135E+03  0.18454999135E+03  0.00000000000E+00 0. -1.
         21   -1    0    0  502  503 -0.00000000000E+00 -0.00000000000E+00 -0.25510652523E+03  0.25510652523E+03  0.00000000000E+00 0.  1.
         24    1    1    2    0    0  0.92067459718E+02 -0.77293856866E+01 -0.10889906781E+03  0.16389747853E+03  0.80419002446E+02 0. -1.
          1    1    1    2  501    0 -0.60657165750E+02  0.12008530515E+02  0.14864414488E+03  0.16099247923E+03  0.00000000000E+00 0. -1.
         -2    1    1    2    0  503 -0.31410293968E+02 -0.42791448287E+01 -0.11030161094E+03  0.11476655882E+03  0.00000000000E+00 0.  1.
<mgrwt>
<rscale>  2 0.10801157E+03</rscale>
<asrwt>0</asrwt>
<pdfrwt beam="1">  1       21 0.28392306E-01 0.10801157E+03</pdfrwt>
<pdfrwt beam="2">  1       21 0.39247158E-01 0.10801157E+03</pdfrwt>
<totfact> 0.77088181E+04</totfact>
</mgrwt>
</event>
<event>
 5    1  0.1595802E+000  0.7186584E+02  0.7546771E-02  0.1353861E+00
         21   -1    0    0  503  502  0.00000000000E+00  0.00000000000E+00  0.11040743441E+04  0.11040743441E+04  0.00000000000E+00 0.  1.
         21   -1    0    0  501  503 -0.00000000000E+00 -0.00000000000E+00 -0.16249237456E+02  0.16249237456E+02  0.00000000000E+00 0.  1.
         24    1    1    2    0    0 -0.23859532733E+02  0.57831879840E+01  0.28154344790E+03  0.29383099152E+03  0.80419002446E+02 0.  1.
          1    1    1    2  501    0  0.13938394536E+02  0.24276943660E+02  0.10218711071E+02  0.29800518312E+02  0.00000000000E+00 0. -1.
         -2    1    1    2    0  502  0.99211381965E+01 -0.30060131643E+02  0.79606294770E+03  0.79669207176E+03  0.00000000000E+00 0.  1.
<mgrwt>
<rscale>  2 0.71865839E+02</rscale>
<asrwt>0</asrwt>
<pdfrwt beam="1">  1       21 0.16985753E+00 0.71865839E+02</pdfrwt>
<pdfrwt beam="2">  1       21 0.24998836E-02 0.71865839E+02</pdfrwt>
<totfact> 0.19451587E+05</totfact>
</mgrwt>
</event>
<event>
 5    1  0.1595802E+000  0.7678105E+02  0.7546771E-02  0.1338443E+00
         21   -1    0    0  501  502  0.00000000000E+00  0.00000000000E+00  0.29760095647E+03  0.29760095647E+03  0.00000000000E+00 0.  1.
         21   -1    0    0  502  503 -0.00000000000E+00 -0.00000000000E+00 -0.35410432235E+02  0.35410432235E+02  0.00000000000E+00 0. -1.
         24    1    1    2    0    0  0.12481884540E+02 -0.23154922380E+02  0.11337474049E+03  0.14146729519E+03  0.80419002446E+02 0.  0.
          1    1    1    2  501    0 -0.38061056302E+02  0.70075841452E+01  0.15576996311E+03  0.16050555021E+03  0.00000000000E+00 0. -1.
         -2    1    1    2    0  503  0.25579171762E+02  0.16147338235E+02 -0.69541793606E+01  0.31038543308E+02  0.00000000000E+00 0.  1.
<mgrwt>
<rscale>  2 0.76781046E+02</rscale>
<asrwt>0</asrwt>
<pdfrwt beam="1">  1       21 0.45784761E-01 0.76781046E+02</pdfrwt>
<pdfrwt beam="2">  1       21 0.54477590E-02 0.76781046E+02</pdfrwt>
<totfact> 0.10562904E+06</totfact>
</mgrwt>
</event>
<event>
 5    1  0.1595802E+000  0.7398627E+02  0.7546771E-02  0.1347039E+00
         21   -1    0    0  501  502  0.00000000000E+00  0.00000000000E+00  0.12663298330E+04  0.12663298330E+04  0.00000000000E+00 0. -1.
         21   -1    0    0  502  503 -0.00000000000E+00 -0.00000000000E+00 -0.20553785027E+02  0.20553785027E+02  0.00000000000E+00 0. -1.
         24    1    1    2    0    0  0.16340666238E+02 -0.72077537053E+01  0.17283114797E+03  0.19145963216E+03  0.80419002446E+02 0. -1.
          1    1    1    2  501    0  0.23804342788E+02  0.88996526842E+01  0.10476203323E+04  0.10479285334E+04  0.00000000000E+00 0. -1.
         -2    1    1    2    0  503 -0.40145009026E+02 -0.16918989789E+01  0.25324567722E+02  0.47495452437E+02  0.00000000000E+00 0.  1.
<mgrwt>
<rscale>  2 0.73986270E+02</rscale>
<asrwt>0</asrwt>
<pdfrwt beam="1">  1       21 0.19481991E+00 0.73986270E+02</pdfrwt>
<pdfrwt beam="2">  1       21 0.31621218E-02 0.73986270E+02</pdfrwt>
<totfact> 0.91846962E+04</totfact>
</mgrwt>
</event>
<event>
 5    1  0.1595802E+000  0.7104811E+02  0.7546771E-02  0.1356565E+00
         21   -1    0    0  503  502  0.00000000000E+00  0.00000000000E+00  0.12163703250E+04  0.12163703250E+04  0.00000000000E+00 0. -1.
         21   -1    0    0  501  503 -0.00000000000E+00 -0.00000000000E+00 -0.71790167376E+01  0.71790167376E+01  0.00000000000E+00 0. -1.
         24    1    1    2    0    0  0.39383663706E+02 -0.19836950850E+02  0.96743089905E+03  0.97176866485E+03  0.80419002446E+02 0. -1.
          1    1    1    2  501    0 -0.18629884609E+02  0.22770251217E+02  0.44105099386E+02  0.53017136220E+02  0.00000000000E+00 0. -1.
         -2    1    1    2    0  502 -0.20753779097E+02 -0.29333003670E+01  0.19765530981E+03  0.19876354066E+03  0.00000000000E+00 0.  1.
<mgrwt>
<rscale>  2 0.71048114E+02</rscale>
<asrwt>0</asrwt>
<pdfrwt beam="1">  1       21 0.18713373E+00 0.71048114E+02</pdfrwt>
<pdfrwt beam="2">  1       21 0.11044651E-02 0.71048114E+02</pdfrwt>
<totfact> 0.54617725E+05</totfact>
</mgrwt>
</event>
<event>
 5    1  0.1595802E+000  0.1179858E+03  0.7546771E-02  0.1246457E+00
         21   -1    0    0  503  502  0.00000000000E+00  0.00000000000E+00  0.22504362001E+03  0.22504362001E+03  0.00000000000E+00 0.  1.
         21   -1    0    0  501  503 -0.00000000000E+00 -0.00000000000E+00 -0.62455763961E+02  0.62455763961E+02  0.00000000000E+00 0. -1.
         24    1    1    2    0    0  0.63737857177E+02 -0.63835272973E+02  0.87624389166E+02  0.14927392955E+03  0.80419002446E+02 0.  0.
          1    1    1    2  501    0 -0.69074789537E+02  0.21344882125E+02  0.38110899852E+02  0.81727420307E+02  0.00000000000E+00 0. -1.
         -2    1    1    2    0  502  0.53369323602E+01  0.42490390849E+02  0.36852567027E+02  0.56498034107E+02  0.00000000000E+00 0.  1.
<mgrwt>
<rscale>  2 0.11798578E+03</rscale>
<asrwt>0</asrwt>
<pdfrwt beam="1">  1       21 0.34622095E-01 0.11798578E+03</pdfrwt>
<pdfrwt beam="2">  1       21 0.96085792E-02 0.11798578E+03</pdfrwt>
<totfact> 0.70346846E+05</totfact>
</mgrwt>
</event>
<event>
 5    1  0.1595802E+000  0.7180560E+02  0.7546771E-02  0.1354058E+00
         21   -1    0    0  503  502  0.00000000000E+00  0.00000000000E+00  0.10912581853E+03  0.10912581853E+03  0.00000000000E+00 0.  1.
         21   -1    0    0  501  503 -0.00000000000E+00 -0.00000000000E+00 -0.69174335315E+02  0.69174335315E+02  0.00000000000E+00 0.  1.
         24    1    1    2    0    0 -0.46668987988E+02  0.86732040071E+01 -0.51317862861E+01  0.93524168494E+02  0.80419002446E+02 0.  1.
          1    1    1    2  501    0  0.18064817226E+02 -0.11609176295E+02 -0.91889807748E+01  0.23356968197E+02  0.00000000000E+00 0. -1.
         -2    1    1    2    0  502  0.28604170763E+02  0.29359722880E+01  0.54272250278E+02  0.61419017157E+02  0.00000000000E+00 0.  1.
<mgrwt>
<rscale>  2 0.71805603E+02</rscale>
<asrwt>0</asrwt>
<pdfrwt beam="1">  1       21 0.16788588E-01 0.71805603E+02</pdfrwt>
<pdfrwt beam="2">  1       21 0.10642205E-01 0.71805603E+02</pdfrwt>
<totfact> 0.22487029E+06</totfact>
</mgrwt>
</event>
<event>
 5    1  0.1595802E+000  0.8128920E+02  0.7546771E-02  0.1325432E+00
         21   -1    0    0  501  502  0.00000000000E+00  0.00000000000E+00  0.10648840990E+04  0.10648840990E+04  0.00000000000E+00 0. -1.
         21   -1    0    0  502  503 -0.00000000000E+00 -0.00000000000E+00 -0.86232334026E+01  0.86232334026E+01  0.00000000000E+00 0.  1.
         24    1    1    2    0    0  0.52171102019E+02  0.68102675282E+01  0.33779968482E+03  0.35120371104E+03  0.80419002446E+02 0.  1.
          1    1    1    2  501    0 -0.42429361748E+02  0.13021087712E+02  0.61013454051E+03  0.61174664444E+03  0.00000000000E+00 0. -1.
         -2    1    1    2    0  503 -0.97417402711E+01 -0.19831355240E+02  0.10832664030E+03  0.11055697696E+03  0.00000000000E+00 0.  1.
<mgrwt>
<rscale>  2 0.81289202E+02</rscale>
<asrwt>0</asrwt>
<pdfrwt beam="1">  1       21 0.16382822E+00 0.81289202E+02</pdfrwt>
<pdfrwt beam="2">  1       21 0.13266521E-02 0.81289202E+02</pdfrwt>
<totfact> 0.58209911E+05</totfact>
</mgrwt>
</event>
<event>
 5    1  0.1595802E+000  0.9041360E+02  0.7546771E-02  0.1301853E+00
         21   -1    0    0  503  502  0.00000000000E+00  0.00000000000E+00  0.10594856425E+04  0.10594856425E+04  0.00000000000E+00 0.  1.
         21   -1    0    0  501  503 -0.00000000000E+00 -0.00000000000E+00 -0.91293782980E+01  0.91293782980E+01  0.00000000000E+00 0. -1.
         24    1    1    2    0    0 -0.10665101847E+02 -0.24535322392E+02  0.68156706507E+03  0.68681628299E+03  0.80419002446E+02 0.  1.
          1    1    1    2  501    0  0.49112148022E+02  0.29527581597E+02  0.17415600783E+03  0.18334174707E+03  0.00000000000E+00 0. -1.
         -2    1    1    2    0  502 -0.38447046176E+02 -0.49922592050E+01  0.19463319128E+03  0.19845699070E+03  0.00000000000E+00 0.  1.
<mgrwt>
<rscale>  2 0.90413604E+02</rscale>
<asrwt>0</asrwt>
<pdfrwt beam="1">  1       21 0.16299769E+00 0.90413604E+02</pdfrwt>
<pdfrwt beam="2">  1       21 0.14045206E-02 0.90413604E+02</pdfrwt>
<totfact> 0.53771385E+05</totfact>
</mgrwt>
</event>
<event>
 5    1  0.1595802E+000  0.6547905E+02  0.7546771E-02  0.1376179E+00
         21   -1    0    0  503  502  0.00000000000E+00  0.00000000000E+00  0.61807329258E+01  0.61807329258E+01  0.00000000000E+00 0. -1.
         21   -1    0    0  501  503 -0.00000000000E+00 -0.00000000000E+00 -0.13621324814E+04  0.13621324814E+04  0.00000000000E+00 0. -1.
         24    1    1    2    0    0 -0.47033781276E+01 -0.48236397403E+01 -0.41792200160E+03  0.42564234357E+03  0.80419002446E+02 0. -1.
          1    1    1    2  501    0  0.14341322044E+02  0.24476468368E+02 -0.88288608330E+03  0.88334172725E+03  0.00000000000E+00 0. -1.
         -2    1    1    2    0  502 -0.96379439165E+01 -0.19652828628E+02 -0.55143663567E+02  0.59329143493E+02  0.00000000000E+00 0.  1.
<mgrwt>
<rscale>  2 0.65479047E+02</rscale>
<asrwt>0</asrwt>
<pdfrwt beam="1">  1       21 0.95088031E-03 0.65479047E+02</pdfrwt>
<pdfrwt beam="2">  1       21 0.20955921E+00 0.65479047E+02</pdfrwt>
<totfact> 0.50474561E+05</totfact>
</mgrwt>
</event>
<event>
 5    1  0.1595802E+000  0.9010848E+02  0.7546771E-02  0.1302589E+00
         21   -1    0    0  501  502  0.00000000000E+00  0.00000000000E+00  0.15527613425E+03  0.15527613425E+03  0.00000000000E+00 0.  1.
         21   -1    0    0  502  503 -0.00000000000E+00 -0.00000000000E+00 -0.63535058606E+02  0.63535058606E+02  0.00000000000E+00 0. -1.
         24    1    1    2    0    0 -0.60713272318E+02  0.24828387665E+02  0.30347668202E+02  0.10812375867E+03  0.80419002446E+02 0. -1.
          1    1    1    2  501    0  0.26371896612E+02 -0.31887776784E+02  0.63244752324E+02  0.75579136907E+02  0.00000000000E+00 0. -1.
         -2    1    1    2    0  503  0.34341375706E+02  0.70593891193E+01 -0.18513448778E+01  0.35108297281E+02  0.00000000000E+00 0.  1.
<mgrwt>
<rscale>  2 0.90108484E+02</rscale>
<asrwt>0</asrwt>
<pdfrwt beam="1">  1       21 0.23888636E-01 0.90108484E+02</pdfrwt>
<pdfrwt beam="2">  1       21 0.97746245E-02 0.90108484E+02</pdfrwt>
<totfact> 0.13811035E+06</totfact>
</mgrwt>
</event>
<event>
 5    1  0.1595802E+000  0.8404499E+02  0.7546771E-02  0.1317949E+00
         21   -1    0    0  503  502  0.00000000000E+00  0.00000000000E+00  0.10390041094E+04  0.10390041094E+04  0.00000000000E+00 0.  1.
         21   -1    0    0  501  503 -0.00000000000E+00 -0.00000000000E+00 -0.20000025367E+02  0.20000025367E+02  0.00000000000E+00 0.  1.
         24    1    1    2    0    0 -0.57677150080E+02 -0.29413441069E+02  0.14943026151E+03  0.18162715427E+03  0.80419002446E+02 0.  1.
          1    1    1    2  501    0  0.22119892904E+02  0.13290672837E+02  0.44960361742E+02  0.51839808781E+02  0.00000000000E+00 0. -1.
         -2    1    1    2    0  502  0.35557257177E+02  0.16122768232E+02  0.82461346082E+03  0.82553717176E+03  0.00000000000E+00 0.  1.
<mgrwt>
<rscale>  2 0.84044991E+02</rscale>
<asrwt>0</asrwt>
<pdfrwt beam="1">  1       21 0.15984674E+00 0.84044991E+02</pdfrwt>
<pdfrwt beam="2">  1       21 0.30769278E-02 0.84044991E+02</pdfrwt>
<totfact> 0.16168010E+05</totfact>
</mgrwt>
</event>
<event>
 5    1  0.1595802E+000  0.1100157E+03  0.7546771E-02  0.1260541E+00
         21   -1    0    0  503  502  0.00000000000E+00  0.00000000000E+00  0.83549254943E+03  0.83549254943E+03  0.00000000000E+00 0.  1.
         21   -1    0    0  501  503 -0.00000000000E+00 -0.00000000000E+00 -0.15503052875E+02  0.15503052875E+02  0.00000000000E+00 0.  1.
         24    1    1    2    0    0 -0.43547412565E+02 -0.84476824873E+02  0.54408608240E+03  0.55814836029E+03  0.80419002446E+02 0.  1.
          1    1    1    2  501    0  0.20054210959E+02  0.28721625789E+02  0.70575621079E+02  0.78790998572E+02  0.00000000000E+00 0. -1.
         -2    1    1    2    0  502  0.23493201606E+02  0.55755199084E+02  0.20532779308E+03  0.21405624345E+03  0.00000000000E+00 0.  1.
<mgrwt>
<rscale>  2 0.11001570E+03</rscale>
<asrwt>0</asrwt>
<pdfrwt beam="1">  1       21 0.12853728E+00 0.11001570E+03</pdfrwt>
<pdfrwt beam="2">  1       21 0.23850857E-02 0.11001570E+03</pdfrwt>
<totfact> 0.41922788E+05</totfact>
</mgrwt>
</event>
<event>
 5    1  0.1595802E+000  0.8874084E+02  0.7546771E-02  0.1305930E+00
         21   -1    0    0  501  502  0.00000000000E+00  0.00000000000E+00  0.69977666860E+02  0.69977666860E+02  0.00000000000E+00 0.  1.
         21   -1    0    0  502  503 -0.00000000000E+00 -0.00000000000E+00 -0.12321048493E+03  0.12321048493E+03  0.00000000000E+00 0. -1.
         24    1    1    2    0    0  0.19991947840E+02 -0.64850763291E+02 -0.99159292502E+01  0.10569219974E+03  0.80419002446E+02 0.  0.
          1    1    1    2  501    0 -0.23169820289E+02  0.33428789261E+02 -0.10620213568E+02  0.42037048659E+02  0.00000000000E+00 0. -1.
         -2    1    1    2    0  503  0.31778724492E+01  0.31421974029E+02 -0.32696675248E+02  0.45458903390E+02  0.00000000000E+00 0.  1.
<mgrwt>
<rscale>  2 0.88740836E+02</rscale>
<asrwt>0</asrwt>
<pdfrwt beam="1">  1       21 0.10765795E-01 0.88740836E+02</pdfrwt>
<pdfrwt beam="2">  1       21 0.18955459E-01 0.88740836E+02</pdfrwt>
<totfact> 0.17871868E+06</totfact>
</mgrwt>
</event>
<event>
 5    1  0.1595802E+000  0.1933662E+03  0.7546771E-02  0.1155460E+00
         21   -1    0    0  503  502  0.00000000000E+00  0.00000000000E+00  0.60462365643E+03  0.60462365643E+03  0.00000000000E+00 0.  1.
         21   -1    0    0  501  503 -0.00000000000E+00 -0.00000000000E+00 -0.37096811148E+03  0.37096811148E+03  0.00000000000E+00 0. -1.
         24    1    1    2    0    0  0.36277714192E+02  0.63861164142E+02  0.37453175249E+02  0.11517064350E+03  0.80419002446E+02 0.  1.
          1    1    1    2  501    0  0.11663989750E+03 -0.38404541400E+02 -0.30871491703E+03  0.33224189153E+03  0.00000000000E+00 0. -1.
         -2    1    1    2    0  502 -0.15291761169E+03 -0.25456622742E+02  0.50491728674E+03  0.52817923289E+03  0.00000000000E+00 0.  1.
<mgrwt>
<rscale>  2 0.19336623E+03</rscale>
<asrwt>0</asrwt>
<pdfrwt beam="1">  1       21 0.93019024E-01 0.19336623E+03</pdfrwt>
<pdfrwt beam="2">  1       21 0.57072017E-01 0.19336623E+03</pdfrwt>
<totfact> 0.28046177E+03</totfact>
</mgrwt>
</event>
<event>
 5    1  0.1595802E+000  0.6420705E+02  0.7546771E-02  0.1380979E+00
         21   -1    0    0  501  502  0.00000000000E+00  0.00000000000E+00  0.71220561617E+03  0.71220561617E+03  0.00000000000E+00 0. -1.
         21   -1    0    0  502  503 -0.00000000000E+00 -0.00000000000E+00 -0.62044558900E+01  0.62044558900E+01  0.00000000000E+00 0. -1.
         24    1    1    2    0    0 -0.12543547299E+02  0.22165424307E+02  0.39042975005E+03  0.39943867150E+03  0.80419002446E+02 0. -1.
          1    1    1    2  501    0  0.21601551991E+02 -0.16882555803E+01  0.20594466378E+03  0.20708134101E+03  0.00000000000E+00 0. -1.
         -2    1    1    2    0  503 -0.90580046919E+01 -0.20477168727E+02  0.10962674644E+03  0.11189005954E+03  0.00000000000E+00 0.  1.
<mgrwt>
<rscale>  2 0.64207054E+02</rscale>
<asrwt>0</asrwt>
<pdfrwt beam="1">  1       21 0.10957003E+00 0.64207054E+02</pdfrwt>
<pdfrwt beam="2">  1       21 0.95453224E-03 0.64207054E+02</pdfrwt>
<totfact> 0.26049747E+06</totfact>
</mgrwt>
</event>
<event>
 5    1  0.1595802E+000  0.6248569E+02  0.7546771E-02  0.1387687E+00
         21   -1    0    0  503  502  0.00000000000E+00  0.00000000000E+00  0.46590134606E+02  0.46590134606E+02  0.00000000000E+00 0. -1.
         21   -1    0    0  501  503 -0.00000000000E+00 -0.00000000000E+00 -0.10408615755E+03  0.10408615755E+03  0.00000000000E+00 0. -1.
         24    1    1    2    0    0 -0.26868996319E+01 -0.72539744711E+01 -0.65797516950E+02  0.10419389985E+03  0.80419002446E+02 0. -1.
          1    1    1    2  501    0  0.23099031591E+02  0.51033183104E+01 -0.15674304123E+01  0.23707930241E+02  0.00000000000E+00 0. -1.
         -2    1    1    2    0  502 -0.20412131959E+02  0.21506561607E+01  0.98689244192E+01  0.22774462062E+02  0.00000000000E+00 0.  1.
<mgrwt>
<rscale>  2 0.62485685E+02</rscale>
<asrwt>0</asrwt>
<pdfrwt beam="1">  1       21 0.71677131E-02 0.62485685E+02</pdfrwt>
<pdfrwt beam="2">  1       21 0.16013255E-01 0.62485685E+02</pdfrwt>
<totfact> 0.47525095E+06</totfact>
</mgrwt>
</event>
<event>
 5    1  0.1595802E+000  0.1248198E+03  0.7546771E-02  0.1235351E+00
         21   -1    0    0  501  502  0.00000000000E+00  0.00000000000E+00  0.16530028046E+04  0.16530028046E+04  0.00000000000E+00 0. -1.
         21   -1    0    0  502  503 -0.00000000000E+00 -0.00000000000E+00 -0.26400333013E+02  0.26400333013E+02  0.00000000000E+00 0.  1.
         24    1    1    2    0    0 -0.49240706616E+02  0.68255536591E+02  0.22936330932E+03  0.25721238127E+03  0.80419002446E+02 0.  1.
          1    1    1    2  501    0 -0.14345113773E+02  0.19903713651E+02  0.11703584626E+04  0.11706155949E+04  0.00000000000E+00 0. -1.
         -2    1    1    2    0  503  0.63585820389E+02 -0.88159250243E+02  0.22688069966E+03  0.25157516140E+03  0.00000000000E+00 0.  1.
<mgrwt>
<rscale>  2 0.12481983E+03</rscale>
<asrwt>0</asrwt>
<pdfrwt beam="1">  1       21 0.25430804E+00 0.12481983E+03</pdfrwt>
<pdfrwt beam="2">  1       21 0.40615910E-02 0.12481983E+03</pdfrwt>
<totfact> 0.25626989E+04</totfact>
</mgrwt>
</event>
<event>
 5    1  0.1595802E+000  0.1148020E+03  0.7546771E-02  0.1251927E+00
         21   -1    0    0  503  502  0.00000000000E+00  0.00000000000E+00  0.90707183911E+03  0.90707183911E+03  0.00000000000E+00 0. -1.
         21   -1    0    0  501  503 -0.00000000000E+00 -0.00000000000E+00 -0.38694424584E+03  0.38694424584E+03  0.00000000000E+00 0. -1.
         24    1    1    2    0    0 -0.43845170224E+01  0.48311963756E+02 -0.12041521413E+03  0.15270988698E+03  0.80419002446E+02 0.  0.
          1    1    1    2  501    0 -0.45457957998E+01 -0.91485856642E+02 -0.24143508053E+03  0.25822707902E+03  0.00000000000E+00 0. -1.
         -2    1    1    2    0  502  0.89303128221E+01  0.43173892886E+02  0.88197788794E+03  0.88307911895E+03  0.00000000000E+00 0.  1.
<mgrwt>
<rscale>  2 0.11480199E+03</rscale>
<asrwt>0</asrwt>
<pdfrwt beam="1">  1       21 0.13954951E+00 0.11480199E+03</pdfrwt>
<pdfrwt beam="2">  1       21 0.59529884E-01 0.11480199E+03</pdfrwt>
<totfact> 0.10499513E+03</totfact>
</mgrwt>
</event>
<event>
 5    1  0.1595802E+000  0.8530959E+02  0.7546771E-02  0.1314625E+00
         21   -1    0    0  503  502  0.00000000000E+00  0.00000000000E+00  0.80448462039E+03  0.80448462039E+03  0.00000000000E+00 0.  1.
         21   -1    0    0  501  503 -0.00000000000E+00 -0.00000000000E+00 -0.16032851657E+02  0.16032851657E+02  0.00000000000E+00 0.  1.
         24    1    1    2    0    0  0.17881377007E+02 -0.39427953188E+02  0.17233101765E+03  0.19503718295E+03  0.80419002446E+02 0.  1.
          1    1    1    2  501    0  0.12724817139E+02  0.46217314724E+02  0.13355901690E+03  0.14190127606E+03  0.00000000000E+00 0. -1.
         -2    1    1    2    0  502 -0.30606194146E+02 -0.67893615355E+01  0.48256173418E+03  0.48357901303E+03  0.00000000000E+00 0.  1.
<mgrwt>
<rscale>  2 0.85309593E+02</rscale>
<asrwt>0</asrwt>
<pdfrwt beam="1">  1       21 0.12376683E+00 0.85309593E+02</pdfrwt>
<pdfrwt beam="2">  1       21 0.24665932E-02 0.85309593E+02</pdfrwt>
<totfact> 0.43803466E+05</totfact>
</mgrwt>
</event>
<event>
 5    1  0.1595802E+000  0.8442157E+02  0.7546771E-02  0.1316952E+00
         21   -1    0    0  503  502  0.00000000000E+00  0.00000000000E+00  0.15813038800E+02  0.15813038800E+02  0.00000000000E+00 0.  1.
         21   -1    0    0  501  503 -0.00000000000E+00 -0.00000000000E+00 -0.62361981671E+03  0.62361981671E+03  0.00000000000E+00 0. -1.
         24    1    1    2    0    0 -0.20291310755E+02 -0.43298810433E+02 -0.39327013177E+03  0.40424638127E+03  0.80419002446E+02 0.  1.
          1    1    1    2  501    0  0.40134550502E+02  0.20533742867E+02 -0.19274130874E+03  0.19794349910E+03  0.00000000000E+00 0. -1.
         -2    1    1    2    0  502 -0.19843239747E+02  0.22765067565E+02 -0.21795337405E+02  0.37242975143E+02  0.00000000000E+00 0.  1.
<mgrwt>
<rscale>  2 0.84421568E+02</rscale>
<asrwt>0</asrwt>
<pdfrwt beam="1">  1       21 0.24327747E-02 0.84421568E+02</pdfrwt>
<pdfrwt beam="2">  1       21 0.95941529E-01 0.84421568E+02</pdfrwt>
<totfact> 0.81508426E+05</totfact>
</mgrwt>
</event>
<event>
 5    1  0.1595802E+000  0.7196465E+02  0.7546771E-02  0.1353537E+00
         21   -1    0    0  503  502  0.00000000000E+00  0.00000000000E+00  0.80022977250E+01  0.80022977250E+01  0.00000000000E+00 0. -1.
         21   -1    0    0  501  503 -0.00000000000E+00 -0.00000000000E+00 -0.66100232639E+03  0.66100232639E+03  0.00000000000E+00 0.  1.
         24    1    1    2    0    0 -0.79042359241E+01 -0.12729966864E+02 -0.38786137114E+03  0.39639398101E+03  0.80419002446E+02 0. -1.
          1    1    1    2  501    0 -0.24647777942E+02  0.16038390248E+02 -0.15280346718E+03  0.15560733434E+03  0.00000000000E+00 0. -1.
         -2    1    1    2    0  502  0.32552013866E+02 -0.33084233843E+01 -0.11233519035E+03  0.11700330877E+03  0.00000000000E+00 0.  1.
<mgrwt>
<rscale>  2 0.71964653E+02</rscale>
<asrwt>0</asrwt>
<pdfrwt beam="1">  1       21 0.12311226E-02 0.71964653E+02</pdfrwt>
<pdfrwt beam="2">  1       21 0.10169268E+00 0.71964653E+02</pdfrwt>
<totfact> 0.20936557E+06</totfact>
</mgrwt>
</event>
<event>
 5    1  0.1595802E+000  0.9332942E+02  0.7546771E-02  0.1294984E+00
         21   -1    0    0  501  502  0.00000000000E+00  0.00000000000E+00  0.79333966632E+03  0.79333966632E+03  0.00000000000E+00 0. -1.
         21   -1    0    0  502  503 -0.00000000000E+00 -0.00000000000E+00 -0.31766972946E+02  0.31766972946E+02  0.00000000000E+00 0. -1.
         24    1    1    2    0    0  0.43674594388E+02 -0.34459478250E+02  0.12950340886E+03  0.16227530526E+03  0.80419002446E+02 0. -1.
          1    1    1    2  501    0 -0.21606111313E+01  0.45789393522E+02  0.61473044283E+03  0.61643722644E+03  0.00000000000E+00 0. -1.
         -2    1    1    2    0  503 -0.41513983256E+02 -0.11329915272E+02  0.17338841684E+02  0.46394107566E+02  0.00000000000E+00 0.  1.
<mgrwt>
<rscale>  2 0.93329416E+02</rscale>
<asrwt>0</asrwt>
<pdfrwt beam="1">  1       21 0.12205224E+00 0.93329416E+02</pdfrwt>
<pdfrwt beam="2">  1       21 0.48872272E-02 0.93329416E+02</pdfrwt>
<totfact> 0.14761059E+05</totfact>
</mgrwt>
</event>
<event>
 5    1  0.1595802E+000  0.7927816E+02  0.7546771E-02  0.1331112E+00
         21   -1    0    0  503  502  0.00000000000E+00  0.00000000000E+00  0.47664469489E+02  0.47664469489E+02  0.00000000000E+00 0. -1.
         21   -1    0    0  501  503 -0.00000000000E+00 -0.00000000000E+00 -0.19622070606E+03  0.19622070606E+03  0.00000000000E+00 0. -1.
         24    1    1    2    0    0  0.43772191920E+02 -0.38643517350E+02 -0.10828888804E+03  0.14697967698E+03  0.80419002446E+02 0. -1.
          1    1    1    2  501    0 -0.26396101044E+02  0.16903102845E+02 -0.56553873114E+02  0.64659180325E+02  0.00000000000E+00 0. -1.
         -2    1    1    2    0  502 -0.17376090876E+02  0.21740414506E+02  0.16286524584E+02  0.32246318240E+02  0.00000000000E+00 0.  1.
<mgrwt>
<rscale>  2 0.79278164E+02</rscale>
<asrwt>0</asrwt>
<pdfrwt beam="1">  1       21 0.73329952E-02 0.79278164E+02</pdfrwt>
<pdfrwt beam="2">  1       21 0.30187802E-01 0.79278164E+02</pdfrwt>
<totfact> 0.14478351E+06</totfact>
</mgrwt>
</event>
<event>
 5    1  0.1595802E+000  0.7928163E+02  0.7546771E-02  0.1331103E+00
         21   -1    0    0  503  502  0.00000000000E+00  0.00000000000E+00  0.99528706800E+03  0.99528706800E+03  0.00000000000E+00 0.  1.
         21   -1    0    0  501  503 -0.00000000000E+00 -0.00000000000E+00 -0.68841971019E+01  0.68841971019E+01  0.00000000000E+00 0. -1.
         24    1    1    2    0    0 -0.22315910376E+02 -0.64715240857E+00  0.65954281855E+03  0.66480250009E+03  0.80419002446E+02 0.  1.
          1    1    1    2  501    0  0.46007274012E+02 -0.12939321067E+02  0.22051870777E+03  0.22563819661E+03  0.00000000000E+00 0. -1.
         -2    1    1    2    0  502 -0.23691363636E+02  0.13586473475E+02  0.10834134458E+03  0.11173056841E+03  0.00000000000E+00 0.  1.
<mgrwt>
<rscale>  2 0.79281631E+02</rscale>
<asrwt>0</asrwt>
<pdfrwt beam="1">  1       21 0.15312097E+00 0.79281631E+02</pdfrwt>
<pdfrwt beam="2">  1       21 0.10591080E-02 0.79281631E+02</pdfrwt>
<totfact> 0.98668660E+05</totfact>
</mgrwt>
</event>
<event>
 5    1  0.1595802E+000  0.8932768E+02  0.7546771E-02  0.1304488E+00
         21   -1    0    0  503  502  0.00000000000E+00  0.00000000000E+00  0.89596876974E+03  0.89596876974E+03  0.00000000000E+00 0. -1.
         21   -1    0    0  501  503 -0.00000000000E+00 -0.00000000000E+00 -0.12057751405E+02  0.12057751405E+02  0.00000000000E+00 0. -1.
         24    1    1    2    0    0 -0.27590438330E+02  0.62761517822E+02  0.44905362365E+03  0.46132051036E+03  0.80419002446E+02 0. -1.
          1    1    1    2  501    0  0.23042256785E+01 -0.36320024264E+02  0.60771041721E+02  0.70834829924E+02  0.00000000000E+00 0. -1.
         -2    1    1    2    0  502  0.25286212651E+02 -0.26441493558E+02  0.37408635296E+03  0.37587118086E+03  0.00000000000E+00 0.  1.
<mgrwt>
<rscale>  2 0.89327681E+02</rscale>
<asrwt>0</asrwt>
<pdfrwt beam="1">  1       21 0.13784130E+00 0.89327681E+02</pdfrwt>
<pdfrwt beam="2">  1       21 0.18550394E-02 0.89327681E+02</pdfrwt>
<totfact> 0.53057318E+05</totfact>
</mgrwt>
</event>
<event>
 5    1  0.1595802E+000  0.9371042E+02  0.7546771E-02  0.1294107E+00
         21   -1    0    0  503  502  0.00000000000E+00  0.00000000000E+00  0.95380918313E+02  0.95380918313E+02  0.00000000000E+00 0. -1.
         21   -1    0    0  501  503 -0.00000000000E+00 -0.00000000000E+00 -0.10711739916E+03  0.10711739916E+03  0.00000000000E+00 0.  1.
         24    1    1    2    0    0 -0.19763167500E+02  0.46332847658E+01  0.14085612581E+02  0.84128892501E+02  0.80419002446E+02 0.  0.
          1    1    1    2  501    0  0.58162472909E+02  0.16751942365E+02 -0.39573607358E+02  0.72315774401E+02  0.00000000000E+00 0. -1.
         -2    1    1    2    0  502 -0.38399305408E+02 -0.21385227131E+02  0.13751513933E+02  0.46053650569E+02  0.00000000000E+00 0.  1.
<mgrwt>
<rscale>  2 0.93710421E+02</rscale>
<asrwt>0</asrwt>
<pdfrwt beam="1">  1       21 0.14673988E-01 0.93710421E+02</pdfrwt>
<pdfrwt beam="2">  1       21 0.16479600E-01 0.93710421E+02</pdfrwt>
<totfact> 0.13366573E+06</totfact>
</mgrwt>
</event>
<event>
 5    1  0.1595802E+000  0.1051872E+03  0.7546771E-02  0.1269751E+00
         21   -1    0    0  503  502  0.00000000000E+00  0.00000000000E+00  0.16966206034E+03  0.16966206034E+03  0.00000000000E+00 0. -1.
         21   -1    0    0  501  503 -0.00000000000E+00 -0.00000000000E+00 -0.80376740350E+02  0.80376740350E+02  0.00000000000E+00 0. -1.
         24    1    1    2    0    0  0.86301186713E+02 -0.23250567108E+01  0.98154097246E+02  0.15347554684E+03  0.80419002446E+02 0. -1.
          1    1    1    2  501    0 -0.66856071206E+02  0.15842281838E+02 -0.18251766401E+02  0.71090358894E+02  0.00000000000E+00 0. -1.
         -2    1    1    2    0  502 -0.19445115507E+02 -0.13517225127E+02  0.93829891430E+01  0.25472894957E+02  0.00000000000E+00 0.  1.
<mgrwt>
<rscale>  2 0.10518724E+03</rscale>
<asrwt>0</asrwt>
<pdfrwt beam="1">  1       21 0.26101855E-01 0.10518724E+03</pdfrwt>
<pdfrwt beam="2">  1       21 0.12365652E-01 0.10518724E+03</pdfrwt>
<totfact> 0.77762764E+05</totfact>
</mgrwt>
</event>
<event>
 5    1  0.1595802E+000  0.6733129E+02  0.7546771E-02  0.1369411E+00
         21   -1    0    0  503  502  0.00000000000E+00  0.00000000000E+00  0.22841327493E+02  0.22841327493E+02  0.00000000000E+00 0.  1.
         21   -1    0    0  501  503 -0.00000000000E+00 -0.00000000000E+00 -0.61086628952E+03  0.61086628952E+03  0.00000000000E+00 0.  1.
         24    1    1    2    0    0 -0.15321621815E+02 -0.30354065641E+02 -0.50265033145E+03  0.51017711930E+03  0.80419002446E+02 0.  0.
          1    1    1    2  501    0  0.21312139404E+02  0.58150658797E+01 -0.94213680574E+02  0.96769002705E+02  0.00000000000E+00 0. -1.
         -2    1    1    2    0  502 -0.59905175888E+01  0.24538999762E+02  0.88390499958E+01  0.26761495009E+02  0.00000000000E+00 0.  1.
<mgrwt>
<rscale>  2 0.67331290E+02</rscale>
<asrwt>0</asrwt>
<pdfrwt beam="1">  1       21 0.35140511E-02 0.67331290E+02</pdfrwt>
<pdfrwt beam="2">  1       21 0.93979411E-01 0.67331290E+02</pdfrwt>
<totfact> 0.47126524E+05</totfact>
</mgrwt>
</event>
<event>
 5    1  0.1595802E+000  0.1291241E+03  0.7546771E-02  0.1228761E+00
         21   -1    0    0  503  502  0.00000000000E+00  0.00000000000E+00  0.12869594547E+04  0.12869594547E+04  0.00000000000E+00 0.  1.
         21   -1    0    0  501  503 -0.00000000000E+00 -0.00000000000E+00 -0.24291192934E+02  0.24291192934E+02  0.00000000000E+00 0. -1.
         24    1    1    2    0    0  0.68098379577E+02  0.60072194217E+01  0.50766366731E+03  0.51852009705E+03  0.80419002446E+02 0.  0.
          1    1    1    2  501    0 -0.10808770624E+03 -0.20781551969E+02  0.14908813520E+03  0.18531620868E+03  0.00000000000E+00 0. -1.
         -2    1    1    2    0  502  0.39989326663E+02  0.14774332548E+02  0.60591645930E+03  0.60741434194E+03  0.00000000000E+00 0.  1.
<mgrwt>
<rscale>  2 0.12912407E+03</rscale>
<asrwt>0</asrwt>
<pdfrwt beam="1">  1       21 0.19799371E+00 0.12912407E+03</pdfrwt>
<pdfrwt beam="2">  1       21 0.37371076E-02 0.12912407E+03</pdfrwt>
<totfact> 0.63409237E+04</totfact>
</mgrwt>
</event>
<event>
 5    1  0.1595802E+000  0.7417936E+02  0.7546771E-02  0.1346431E+00
         21   -1    0    0  501  502  0.00000000000E+00  0.00000000000E+00  0.17107505342E+03  0.17107505342E+03  0.00000000000E+00 0. -1.
         21   -1    0    0  502  503 -0.00000000000E+00 -0.00000000000E+00 -0.16516491597E+03  0.16516491597E+03  0.00000000000E+00 0.  1.
         24    1    1    2    0    0  0.12960880480E+02  0.49557960271E+02  0.88783273064E+02  0.13028300495E+03  0.80419002446E+02 0.  0.
          1    1    1    2  501    0 -0.12842886043E+02 -0.22158855816E+02  0.57494061010E+02  0.62940620147E+02  0.00000000000E+00 0. -1.
         -2    1    1    2    0  503 -0.11799443690E+00 -0.27399104455E+02 -0.14036719662E+03  0.14301634429E+03  0.00000000000E+00 0.  1.
<mgrwt>
<rscale>  2 0.74179355E+02</rscale>
<asrwt>0</asrwt>
<pdfrwt beam="1">  1       21 0.26319239E-01 0.74179355E+02</pdfrwt>
<pdfrwt beam="2">  1       21 0.25409987E-01 0.74179355E+02</pdfrwt>
<totfact> 0.20817659E+05</totfact>
</mgrwt>
</event>
<event>
 5    1  0.1595802E+000  0.7202548E+02  0.7546771E-02  0.1353338E+00
         21   -1    0    0  503  502  0.00000000000E+00  0.00000000000E+00  0.99685573781E+01  0.99685573781E+01  0.00000000000E+00 0. -1.
         21   -1    0    0  501  503 -0.00000000000E+00 -0.00000000000E+00 -0.90658295129E+03  0.90658295129E+03  0.00000000000E+00 0. -1.
         24    1    1    2    0    0  0.38611122777E+01  0.25029547525E+02 -0.21929297441E+03  0.23494256962E+03  0.80419002446E+02 0.  0.
          1    1    1    2  501    0 -0.22065634472E+02  0.67836631548E+01 -0.50031719350E+03  0.50084948280E+03  0.00000000000E+00 0. -1.
         -2    1    1    2    0  502  0.18204522194E+02 -0.31813210680E+02 -0.17700422600E+03  0.18075945625E+03  0.00000000000E+00 0.  1.
<mgrwt>
<rscale>  2 0.72025480E+02</rscale>
<asrwt>0</asrwt>
<pdfrwt beam="1">  1       21 0.15336246E-02 0.72025480E+02</pdfrwt>
<pdfrwt beam="2">  1       21 0.13947426E+00 0.72025480E+02</pdfrwt>
<totfact> 0.69841364E+05</totfact>
</mgrwt>
</event>
<event>
 5    1  0.1595802E+000  0.1106259E+03  0.7546771E-02  0.1259415E+00
         21   -1    0    0  503  502  0.00000000000E+00  0.00000000000E+00  0.19123352575E+03  0.19123352575E+03  0.00000000000E+00 0.  1.
         21   -1    0    0  501  503 -0.00000000000E+00 -0.00000000000E+00 -0.71550021576E+02  0.71550021576E+02  0.00000000000E+00 0. -1.
         24    1    1    2    0    0  0.69743209531E+02 -0.13284841620E+02  0.73272864197E+02  0.12991047254E+03  0.80419002446E+02 0.  1.
          1    1    1    2  501    0  0.18194083000E+02 -0.12808471554E+02 -0.10835349743E+02  0.24748462656E+02  0.00000000000E+00 0. -1.
         -2    1    1    2    0  502 -0.87937292531E+02  0.26093313173E+02  0.57245989717E+02  0.10812461213E+03  0.00000000000E+00 0.  1.
<mgrwt>
<rscale>  2 0.11062593E+03</rscale>
<asrwt>0</asrwt>
<pdfrwt beam="1">  1       21 0.29420542E-01 0.11062593E+03</pdfrwt>
<pdfrwt beam="2">  1       21 0.11007696E-01 0.11062593E+03</pdfrwt>
<totfact> 0.76026677E+05</totfact>
</mgrwt>
</event>
<event>
 5    1  0.1595802E+000  0.8839037E+02  0.7546771E-02  0.1306797E+00
         21   -1    0    0  503  502  0.00000000000E+00  0.00000000000E+00  0.12030579889E+03  0.12030579889E+03  0.00000000000E+00 0. -1.
         21   -1    0    0  501  503 -0.00000000000E+00 -0.00000000000E+00 -0.10468380127E+03  0.10468380127E+03  0.00000000000E+00 0.  1.
         24    1    1    2    0    0 -0.27710770850E+02 -0.19429638515E+02 -0.54468335599E+02  0.10285627454E+03  0.80419002446E+02 0.  1.
          1    1    1    2  501    0  0.36886699078E+02  0.47418321968E+02  0.18732705140E+02  0.62928849258E+02  0.00000000000E+00 0. -1.
         -2    1    1    2    0  502 -0.91759282281E+01 -0.27988683452E+02  0.51357628074E+02  0.59204476365E+02  0.00000000000E+00 0.  1.
<mgrwt>
<rscale>  2 0.88390367E+02</rscale>
<asrwt>0</asrwt>
<pdfrwt beam="1">  1       21 0.18508585E-01 0.88390367E+02</pdfrwt>
<pdfrwt beam="2">  1       21 0.16105200E-01 0.88390367E+02</pdfrwt>
<totfact> 0.91611889E+05</totfact>
</mgrwt>
</event>
<event>
 5    1  0.1595802E+000  0.7706676E+02  0.7546771E-02  0.1337588E+00
         21   -1    0    0  503  502  0.00000000000E+00  0.00000000000E+00  0.64300392132E+02  0.64300392132E+02  0.00000000000E+00 0. -1.
         21   -1    0    0  501  503 -0.00000000000E+00 -0.00000000000E+00 -0.10349545301E+03  0.10349545301E+03  0.00000000000E+00 0. -1.
         24    1    1    2    0    0 -0.94163874547E+01 -0.50657924568E+01 -0.21560134510E+00  0.81127017967E+02  0.80419002446E+02 0. -1.
          1    1    1    2  501    0  0.32399151983E+02 -0.20725620342E+02 -0.34805752569E+02  0.51871926894E+02  0.00000000000E+00 0. -1.
         -2    1    1    2    0  502 -0.22982764529E+02  0.25791412799E+02 -0.41737069685E+01  0.34796900285E+02  0.00000000000E+00 0.  1.
<mgrwt>
<rscale>  2 0.77066760E+02</rscale>
<asrwt>0</asrwt>
<pdfrwt beam="1">  1       21 0.98923681E-02 0.77066760E+02</pdfrwt>
<pdfrwt beam="2">  1       21 0.15922377E-01 0.77066760E+02</pdfrwt>
<totfact> 0.28152708E+06</totfact>
</mgrwt>
</event>
<event>
 5    1  0.1595802E+000  0.6932151E+02  0.7546771E-02  0.1362416E+00
         21   -1    0    0  501  502  0.00000000000E+00  0.00000000000E+00  0.36501776673E+02  0.36501776673E+02  0.00000000000E+00 0.  1.
         21   -1    0    0  502  503 -0.00000000000E+00 -0.00000000000E+00 -0.13521837495E+03  0.13521837495E+03  0.00000000000E+00 0.  1.
         24    1    1    2    0    0  0.44031460945E+02 -0.41031830058E+01 -0.54637724597E+02  0.10680871953E+03  0.80419002446E+02 0.  1.
          1    1    1    2  501    0 -0.23080361270E+02  0.99224307568E+01 -0.17731073184E+02  0.30749775036E+02  0.00000000000E+00 0. -1.
         -2    1    1    2    0  503 -0.20951099675E+02 -0.58192477510E+01 -0.26347800495E+02  0.34161657057E+02  0.00000000000E+00 0.  1.
<mgrwt>
<rscale>  2 0.69321515E+02</rscale>
<asrwt>0</asrwt>
<pdfrwt beam="1">  1       21 0.56156580E-02 0.69321515E+02</pdfrwt>
<pdfrwt beam="2">  1       21 0.20802827E-01 0.69321515E+02</pdfrwt>
<totfact> 0.44977034E+06</totfact>
</mgrwt>
</event>
<event>
 5    1  0.1595802E+000  0.6971833E+02  0.7546771E-02  0.1361053E+00
         21   -1    0    0  501  502  0.00000000000E+00  0.00000000000E+00  0.19766423098E+02  0.19766423098E+02  0.00000000000E+00 0. -1.
         21   -1    0    0  502  503 -0.00000000000E+00 -0.00000000000E+00 -0.32944733871E+03  0.32944733871E+03  0.00000000000E+00 0.  1.
         24    1    1    2    0    0 -0.16778322791E+02  0.33504611935E+02 -0.20443485706E+03  0.22285622691E+03  0.80419002446E+02 0.  1.
          1    1    1    2  501    0 -0.51336987327E+01 -0.27529830316E+02 -0.12142076833E+02  0.30523375464E+02  0.00000000000E+00 0. -1.
         -2    1    1    2    0  503  0.21912021523E+02 -0.59747816192E+01 -0.93103981715E+02  0.95834159431E+02  0.00000000000E+00 0.  1.
<mgrwt>
<rscale>  2 0.69718335E+02</rscale>
<asrwt>0</asrwt>
<pdfrwt beam="1">  1       21 0.30409884E-02 0.69718335E+02</pdfrwt>
<pdfrwt beam="2">  1       21 0.50684203E-01 0.69718335E+02</pdfrwt>
<totfact> 0.22289464E+06</totfact>
</mgrwt>
</event>
<event>
 5    1  0.1595802E+000  0.6154772E+02  0.7546771E-02  0.1391449E+00
         21   -1    0    0  503  502  0.00000000000E+00  0.00000000000E+00  0.11734987728E+03  0.11734987728E+03  0.00000000000E+00 0.  1.
         21   -1    0    0  501  503 -0.00000000000E+00 -0.00000000000E+00 -0.15413525148E+03  0.15413525148E+03  0.00000000000E+00 0.  1.
         24    1    1    2    0    0 -0.20003900505E+01  0.19971979212E+01 -0.74073534626E+02  0.10937136209E+03  0.80419002446E+02 0.  1.
          1    1    1    2  501    0 -0.19764088436E+02 -0.56547252908E+01 -0.59442810228E+02  0.62897080994E+02  0.00000000000E+00 0. -1.
         -2    1    1    2    0  502  0.21764478486E+02  0.36575273696E+01  0.96730970658E+02  0.99216685667E+02  0.00000000000E+00 0.  1.
<mgrwt>
<rscale>  2 0.61547724E+02</rscale>
<asrwt>0</asrwt>
<pdfrwt beam="1">  1       21 0.18053827E-01 0.61547724E+02</pdfrwt>
<pdfrwt beam="2">  1       21 0.23713116E-01 0.61547724E+02</pdfrwt>
<totfact> 0.47215281E+05</totfact>
</mgrwt>
</event>
<event>
 5    1  0.1595802E+000  0.4020455E+03  0.7546771E-02  0.1043074E+00
         21   -1    0    0  501  502  0.00000000000E+00  0.00000000000E+00  0.80868568721E+03  0.80868568721E+03  0.00000000000E+00 0.  1.
         21   -1    0    0  502  503 -0.00000000000E+00 -0.00000000000E+00 -0.26019562441E+03  0.26019562441E+03  0.00000000000E+00 0.  1.
         24    1    1    2    0    0  0.21265735471E+03  0.28900413602E+03  0.45076775676E+03  0.58172616207E+03  0.80419002446E+02 0.  1.
          1    1    1    2  501    0  0.48337051183E+02 -0.10926407733E+03  0.12017636395E+03  0.16946228950E+03  0.00000000000E+00 0. -1.
         -2    1    1    2    0  503 -0.26099440589E+03 -0.17974005870E+03 -0.22454057898E+02  0.31769286005E+03  0.00000000000E+00 0.  1.
<mgrwt>
<rscale>  2 0.40204554E+03</rscale>
<asrwt>0</asrwt>
<pdfrwt beam="1">  1       21 0.12441318E+00 0.40204554E+03</pdfrwt>
<pdfrwt beam="2">  1       21 0.40030097E-01 0.40204554E+03</pdfrwt>
<totfact> 0.25557570E+03</totfact>
</mgrwt>
</event>
<event>
 5    1  0.1595802E+000  0.9977851E+02  0.7546771E-02  0.1280762E+00
         21   -1    0    0  501  502  0.00000000000E+00  0.00000000000E+00  0.13203825986E+04  0.13203825986E+04  0.00000000000E+00 0.  1.
         21   -1    0    0  502  503 -0.00000000000E+00 -0.00000000000E+00 -0.99843378301E+01  0.99843378301E+01  0.00000000000E+00 0.  1.
         24    1    1    2    0    0 -0.64088416323E+02  0.27082982345E+02  0.66399982013E+03  0.67246099524E+03  0.80419002446E+02 0.  1.
          1    1    1    2  501    0  0.58087823125E+01 -0.34033064536E+02  0.48394741874E+03  0.48517738564E+03  0.00000000000E+00 0. -1.
         -2    1    1    2    0  503  0.58279634010E+02  0.69500821900E+01  0.16245102187E+03  0.17272855551E+03  0.00000000000E+00 0.  1.
<mgrwt>
<rscale>  2 0.99778515E+02</rscale>
<asrwt>0</asrwt>
<pdfrwt beam="1">  1       21 0.20313565E+00 0.99778515E+02</pdfrwt>
<pdfrwt beam="2">  1       21 0.15360530E-02 0.99778515E+02</pdfrwt>
<totfact> 0.25422541E+05</totfact>
</mgrwt>
</event>
<event>
 5    1  0.1595802E+000  0.1973721E+03  0.7546771E-02  0.1151975E+00
         21   -1    0    0  501  502  0.00000000000E+00  0.00000000000E+00  0.42541474268E+03  0.42541474268E+03  0.00000000000E+00 0.  1.
         21   -1    0    0  502  503 -0.00000000000E+00 -0.00000000000E+00 -0.15587675238E+03  0.15587675238E+03  0.00000000000E+00 0.  1.
         24    1    1    2    0    0  0.83665978579E+02 -0.16963117081E+03  0.20414687504E+03  0.28968585161E+03  0.80419002446E+02 0.  1.
          1    1    1    2  501    0 -0.29687569324E+02  0.54583645805E+02  0.13362493302E+03  0.14736467991E+03  0.00000000000E+00 0. -1.
         -2    1    1    2    0  503 -0.53978409255E+02  0.11504752501E+03 -0.68233817762E+02  0.14424096354E+03  0.00000000000E+00 0.  1.
<mgrwt>
<rscale>  2 0.19737214E+03</rscale>
<asrwt>0</asrwt>
<pdfrwt beam="1">  1       21 0.65448422E-01 0.19737214E+03</pdfrwt>
<pdfrwt beam="2">  1       21 0.23981039E-01 0.19737214E+03</pdfrwt>
<totfact> 0.35116252E+04</totfact>
</mgrwt>
</event>
<event>
 5    1  0.1595802E+000  0.1260960E+03  0.7546771E-02  0.1233366E+00
         21   -1    0    0  503  502  0.00000000000E+00  0.00000000000E+00  0.27420252044E+03  0.27420252044E+03  0.00000000000E+00 0.  1.
         21   -1    0    0  501  503 -0.00000000000E+00 -0.00000000000E+00 -0.65739195565E+03  0.65739195565E+03  0.00000000000E+00 0. -1.
         24    1    1    2    0    0 -0.20068509671E+02 -0.28354120546E+02 -0.20694604412E+03  0.22472334628E+03  0.80419002446E+02 0.  0.
          1    1    1    2  501    0 -0.28135012075E+02 -0.58693275958E+02 -0.42969005437E+03  0.43459178820E+03  0.00000000000E+00 0. -1.
         -2    1    1    2    0  502  0.48203521746E+02  0.87047396503E+02  0.25344666327E+03  0.27227934161E+03  0.00000000000E+00 0.  1.
<mgrwt>
<rscale>  2 0.12609602E+03</rscale>
<asrwt>0</asrwt>
<pdfrwt beam="1">  1       21 0.42185004E-01 0.12609602E+03</pdfrwt>
<pdfrwt beam="2">  1       21 0.10113722E+00 0.12609602E+03</pdfrwt>
<totfact> 0.45964602E+03</totfact>
</mgrwt>
</event>
<event>
 5    1  0.1595802E+000  0.8296922E+02  0.7546771E-02  0.1320830E+00
         21   -1    0    0  503  502  0.00000000000E+00  0.00000000000E+00  0.28387470562E+03  0.28387470562E+03  0.00000000000E+00 0.  1.
         21   -1    0    0  501  503 -0.00000000000E+00 -0.00000000000E+00 -0.56101894307E+02  0.56101894307E+02  0.00000000000E+00 0. -1.
         24    1    1    2    0    0 -0.11133312507E+02  0.30824508222E+02  0.29753469847E+02  0.91796437168E+02  0.80419002446E+02 0.  1.
          1    1    1    2  501    0 -0.68444564990E+01  0.22135484063E+02 -0.15224635643E+02  0.27723920537E+02  0.00000000000E+00 0. -1.
         -2    1    1    2    0  502  0.17977769006E+02 -0.52959992285E+02  0.21324397711E+03  0.22045624222E+03  0.00000000000E+00 0.  1.
<mgrwt>
<rscale>  2 0.82969222E+02</rscale>
<asrwt>0</asrwt>
<pdfrwt beam="1">  1       21 0.43673031E-01 0.82969222E+02</pdfrwt>
<pdfrwt beam="2">  1       21 0.86310608E-02 0.82969222E+02</pdfrwt>
<totfact> 0.53462838E+05</totfact>
</mgrwt>
</event>
<event>
 5    1  0.1595802E+000  0.1043043E+03  0.7546771E-02  0.1271496E+00
         21   -1    0    0  501  502  0.00000000000E+00  0.00000000000E+00  0.12732047962E+04  0.12732047962E+04  0.00000000000E+00 0. -1.
         21   -1    0    0  502  503 -0.00000000000E+00 -0.00000000000E+00 -0.25375937009E+03  0.25375937009E+03  0.00000000000E+00 0.  1.
         24    1    1    2    0    0  0.54181592439E+02  0.28485942502E+01  0.12230971919E+03  0.15611099517E+03  0.80419002446E+02 0.  1.
          1    1    1    2  501    0 -0.38729311255E+01  0.43214160809E+02  0.11286580868E+04  0.11294917177E+04  0.00000000000E+00 0. -1.
         -2    1    1    2    0  503 -0.50308661314E+02 -0.46062755059E+02 -0.23152237992E+03  0.24136145345E+03  0.00000000000E+00 0.  1.
<mgrwt>
<rscale>  2 0.10430427E+03</rscale>
<asrwt>0</asrwt>
<pdfrwt beam="1">  1       21 0.19587766E+00 0.10430427E+03</pdfrwt>
<pdfrwt beam="2">  1       21 0.39039904E-01 0.10430427E+03</pdfrwt>
<totfact> 0.10268639E+03</totfact>
</mgrwt>
</event>
<event>
 5    1  0.1595802E+000  0.6841985E+02  0.7546771E-02  0.1365550E+00
         21   -1    0    0  503  502  0.00000000000E+00  0.00000000000E+00  0.17364669604E+03  0.17364669604E+03  0.00000000000E+00 0. -1.
         21   -1    0    0  501  503 -0.00000000000E+00 -0.00000000000E+00 -0.32659299430E+02  0.32659299430E+02  0.00000000000E+00 0.  1.
         24    1    1    2    0    0 -0.16978627683E+02 -0.26179894738E+02  0.44658099285E+02  0.97135073339E+02  0.80419002446E+02 0.  1.
          1    1    1    2  501    0 -0.94571269240E+01  0.21826650853E+02  0.35861821418E+02  0.43033825910E+02  0.00000000000E+00 0. -1.
         -2    1    1    2    0  502  0.26435754607E+02  0.43532438851E+01  0.60467475910E+02  0.66137096224E+02  0.00000000000E+00 0.  1.
<mgrwt>
<rscale>  2 0.68419847E+02</rscale>
<asrwt>0</asrwt>
<pdfrwt beam="1">  1       21 0.26714876E-01 0.68419847E+02</pdfrwt>
<pdfrwt beam="2">  1       21 0.50245077E-02 0.68419847E+02</pdfrwt>
<totfact> 0.34055724E+06</totfact>
</mgrwt>
</event>
<event>
 5    1  0.1595802E+000  0.1372010E+03  0.7546771E-02  0.1217146E+00
         21   -1    0    0  501  502  0.00000000000E+00  0.00000000000E+00  0.13109738564E+03  0.13109738564E+03  0.00000000000E+00 0. -1.
         21   -1    0    0  502  503 -0.00000000000E+00 -0.00000000000E+00 -0.95325297912E+03  0.95325297912E+03  0.00000000000E+00 0.  1.
         24    1    1    2    0    0 -0.11281048642E+03  0.30289111661E+01  0.50180550134E+02  0.14737938701E+03  0.80419002446E+02 0. -1.
          1    1    1    2  501    0  0.11395752956E+03  0.17477541733E+02 -0.71056687985E+02  0.13542834237E+03  0.00000000000E+00 0. -1.
         -2    1    1    2    0  503 -0.11470431416E+01 -0.20506452899E+02 -0.80127945563E+03  0.80154263538E+03  0.00000000000E+00 0.  1.
<mgrwt>
<rscale>  2 0.13720097E+03</rscale>
<asrwt>0</asrwt>
<pdfrwt beam="1">  1       21 0.20168828E-01 0.13720097E+03</pdfrwt>
<pdfrwt beam="2">  1       21 0.14665431E+00 0.13720097E+03</pdfrwt>
<totfact> 0.75636787E+03</totfact>
</mgrwt>
</event>
<event>
 5    1  0.1595802E+000  0.9504312E+02  0.7546771E-02  0.1291079E+00
         21   -1    0    0  503  502  0.00000000000E+00  0.00000000000E+00  0.15631957085E+03  0.15631957085E+03  0.00000000000E+00 0.  1.
         21   -1    0    0  501  503 -0.00000000000E+00 -0.00000000000E+00 -0.83309894947E+02  0.83309894947E+02  0.00000000000E+00 0. -1.
         24    1    1    2    0    0 -0.62979060237E+01 -0.59222762306E+02  0.10388256597E+03  0.14424216673E+03  0.80419002446E+02 0.  1.
          1    1    1    2  501    0 -0.19535004861E+02  0.61068033327E+02 -0.25090126819E+02  0.68850821151E+02  0.00000000000E+00 0. -1.
         -2    1    1    2    0  502  0.25832910884E+02 -0.18452710218E+01 -0.57827632424E+01  0.26536477924E+02  0.00000000000E+00 0.  1.
<mgrwt>
<rscale>  2 0.95043124E+02</rscale>
<asrwt>0</asrwt>
<pdfrwt beam="1">  1       21 0.24049165E-01 0.95043124E+02</pdfrwt>
<pdfrwt beam="2">  1       21 0.12816907E-01 0.95043124E+02</pdfrwt>
<totfact> 0.85037032E+05</totfact>
</mgrwt>
</event>
<event>
 5    1  0.1595802E+000  0.6837268E+02  0.7546771E-02  0.1365716E+00
         21   -1    0    0  503  502  0.00000000000E+00  0.00000000000E+00  0.12430126915E+02  0.12430126915E+02  0.00000000000E+00 0. -1.
         21   -1    0    0  501  503 -0.00000000000E+00 -0.00000000000E+00 -0.13835267865E+04  0.13835267865E+04  0.00000000000E+00 0. -1.
         24    1    1    2    0    0  0.11169901977E+02 -0.35916935799E+02 -0.16366567473E+03  0.18619468850E+03  0.80419002446E+02 0. -1.
          1    1    1    2  501    0  0.86555664658E+01  0.22279213110E+02 -0.10681832426E+04  0.10684506174E+04  0.00000000000E+00 0. -1.
         -2    1    1    2    0  502 -0.19825468443E+02  0.13637722689E+02 -0.13924774226E+03  0.14131160747E+03  0.00000000000E+00 0.  1.
<mgrwt>
<rscale>  2 0.68372685E+02</rscale>
<asrwt>0</asrwt>
<pdfrwt beam="1">  1       21 0.19123287E-02 0.68372685E+02</pdfrwt>
<pdfrwt beam="2">  1       21 0.21285011E+00 0.68372685E+02</pdfrwt>
<totfact> 0.16122715E+05</totfact>
</mgrwt>
</event>
<event>
 5    1  0.1595802E+000  0.1645535E+03  0.7546771E-02  0.1183650E+00
         21   -1    0    0  503  502  0.00000000000E+00  0.00000000000E+00  0.40534792916E+03  0.40534792916E+03  0.00000000000E+00 0. -1.
         21   -1    0    0  501  503 -0.00000000000E+00 -0.00000000000E+00 -0.17507666191E+03  0.17507666191E+03  0.00000000000E+00 0. -1.
         24    1    1    2    0    0 -0.68343227396E+02 -0.27739248155E+02 -0.92046692646E+02  0.14275879027E+03  0.80419002446E+02 0. -1.
          1    1    1    2  501    0  0.60006048668E+02  0.11638770160E+03  0.33117599245E+02  0.13506886518E+03  0.00000000000E+00 0. -1.
         -2    1    1    2    0  502  0.83371787276E+01 -0.88648453446E+02  0.28920036065E+03  0.30259693562E+03  0.00000000000E+00 0.  1.
<mgrwt>
<rscale>  2 0.16455345E+03</rscale>
<asrwt>0</asrwt>
<pdfrwt beam="1">  1       21 0.62361220E-01 0.16455345E+03</pdfrwt>
<pdfrwt beam="2">  1       21 0.26934871E-01 0.16455345E+03</pdfrwt>
<totfact> 0.31801766E+04</totfact>
</mgrwt>
</event>
<event>
 5    1  0.1595802E+000  0.8680654E+02  0.7546771E-02  0.1310775E+00
         21   -1    0    0  501  502  0.00000000000E+00  0.00000000000E+00  0.30436060401E+03  0.30436060401E+03  0.00000000000E+00 0. -1.
         21   -1    0    0  502  503 -0.00000000000E+00 -0.00000000000E+00 -0.10471208436E+03  0.10471208436E+03  0.00000000000E+00 0.  1.
         24    1    1    2    0    0 -0.35981326062E+02 -0.32754141005E+01  0.13249521170E+03  0.15914641448E+03  0.80419002446E+02 0.  0.
          1    1    1    2  501    0 -0.20035660306E+02 -0.16593052287E+02  0.14761655904E+03  0.14989131252E+03  0.00000000000E+00 0. -1.
         -2    1    1    2    0  503  0.56016986368E+02  0.19868466388E+02 -0.80463251094E+02  0.10003496136E+03  0.00000000000E+00 0.  1.
<mgrwt>
<rscale>  2 0.86806540E+02</rscale>
<asrwt>0</asrwt>
<pdfrwt beam="1">  1       21 0.46824708E-01 0.86806540E+02</pdfrwt>
<pdfrwt beam="2">  1       21 0.16109552E-01 0.86806540E+02</pdfrwt>
<totfact> 0.15577113E+05</totfact>
</mgrwt>
</event>
<event>
 5    1  0.1595802E+000  0.1020371E+03  0.7546771E-02  0.1276070E+00
         21   -1    0    0  501  502  0.00000000000E+00  0.00000000000E+00  0.31610772101E+02  0.31610772101E+02  0.00000000000E+00 0. -1.
         21   -1    0    0  502  503 -0.00000000000E+00 -0.00000000000E+00 -0.57314477855E+03  0.57314477855E+03  0.00000000000E+00 0. -1.
         24    1    1    2    0    0  0.82743433540E+02  0.23380470992E+02 -0.11945719416E+03  0.16772107622E+03  0.80419002446E+02 0. -1.
          1    1    1    2  501    0 -0.51729638406E+02 -0.10623106414E+02 -0.98843912127E+02  0.11206660896E+03  0.00000000000E+00 0. -1.
         -2    1    1    2    0  503 -0.31013795135E+02 -0.12757364578E+02 -0.32323290016E+03  0.32496786547E+03  0.00000000000E+00 0.  1.
<mgrwt>
<rscale>  2 0.10203711E+03</rscale>
<asrwt>0</asrwt>
<pdfrwt beam="1">  1       21 0.48631960E-02 0.10203711E+03</pdfrwt>
<pdfrwt beam="2">  1       21 0.88176115E-01 0.10203711E+03</pdfrwt>
<totfact> 0.31720942E+05</totfact>
</mgrwt>
</event>
<event>
 5    1  0.2217812E+000  0.8020426E+02  0.7546771E-02  0.1328473E+00
         21   -1    0    0  503  502  0.00000000000E+00  0.00000000000E+00  0.97118199399E+02  0.97118199399E+02  0.00000000000E+00 0.  1.
         21   -1    0    0  501  503 -0.00000000000E+00 -0.00000000000E+00 -0.76794084639E+03  0.76794084639E+03  0.00000000000E+00 0. -1.
         24    1    1    2    0    0  0.12229374403E+02  0.14687122220E+02 -0.32314103113E+02  0.88750697866E+02  0.80419002446E+02 0. -1.
          1    1    1    2  501    0 -0.91466286338E+01  0.30814710744E+02 -0.69945181171E+03  0.70019000572E+03  0.00000000000E+00 0. -1.
         -2    1    1    2    0  502 -0.30827457692E+01 -0.45501832964E+02  0.60943267833E+02  0.76118342196E+02  0.00000000000E+00 0.  1.
<mgrwt>
<rscale>  2 0.80204265E+02</rscale>
<asrwt>0</asrwt>
<pdfrwt beam="1">  1       21 0.14941261E-01 0.80204265E+02</pdfrwt>
<pdfrwt beam="2">  1       21 0.11814475E+00 0.80204265E+02</pdfrwt>
<totfact> 0.23720960E+04</totfact>
</mgrwt>
</event>
<event>
 5    1  0.1595802E+000  0.7221348E+02  0.7546771E-02  0.1352724E+00
         21   -1    0    0  501  502  0.00000000000E+00  0.00000000000E+00  0.25807808555E+01  0.25807808555E+01  0.00000000000E+00 0. -1.
         21   -1    0    0  502  503 -0.00000000000E+00 -0.00000000000E+00 -0.20746519114E+04  0.20746519114E+04  0.00000000000E+00 0. -1.
         24    1    1    2    0    0  0.19175862453E+02  0.42381231217E+02 -0.12248374283E+04  0.12283557400E+04  0.80419002446E+02 0. -1.
          1    1    1    2  501    0 -0.21512328551E+02 -0.21163839566E+02 -0.40154584248E+03  0.40267822390E+03  0.00000000000E+00 0. -1.
         -2    1    1    2    0  503  0.23364660979E+01 -0.21217391650E+02 -0.44568785980E+03  0.44619872833E+03  0.00000000000E+00 0.  1.
<mgrwt>
<rscale>  2 0.72213485E+02</rscale>
<asrwt>0</asrwt>
<pdfrwt beam="1">  1       21 0.39704412E-03 0.72213485E+02</pdfrwt>
<pdfrwt beam="2">  1       21 0.31917648E+00 0.72213485E+02</pdfrwt>
<totfact> 0.47623317E+05</totfact>
</mgrwt>
</event>
<event>
 5    1  0.1595802E+000  0.7797487E+02  0.7546771E-02  0.1334899E+00
         21   -1    0    0  501  502  0.00000000000E+00  0.00000000000E+00  0.56583522766E+02  0.56583522766E+02  0.00000000000E+00 0.  1.
         21   -1    0    0  502  503 -0.00000000000E+00 -0.00000000000E+00 -0.11844927433E+03  0.11844927433E+03  0.00000000000E+00 0. -1.
         24    1    1    2    0    0 -0.19018323400E+02 -0.48978377933E+02 -0.53039456465E+02  0.10973139034E+03  0.80419002446E+02 0. -1.
          1    1    1    2  501    0  0.19547722425E+02  0.12065177342E+02  0.85351963447E+01  0.24505744897E+02  0.00000000000E+00 0. -1.
         -2    1    1    2    0  503 -0.52939902441E+00  0.36913200591E+02 -0.17361491445E+02  0.40795661858E+02  0.00000000000E+00 0.  1.
<mgrwt>
<rscale>  2 0.77974867E+02</rscale>
<asrwt>0</asrwt>
<pdfrwt beam="1">  1       21 0.87051575E-02 0.77974867E+02</pdfrwt>
<pdfrwt beam="2">  1       21 0.18222965E-01 0.77974867E+02</pdfrwt>
<totfact> 0.27532362E+06</totfact>
</mgrwt>
</event>
<event>
 5    1  0.1595802E+000  0.8222505E+02  0.7546771E-02  0.1322853E+00
         21   -1    0    0  503  502  0.00000000000E+00  0.00000000000E+00  0.89651540155E+02  0.89651540155E+02  0.00000000000E+00 0. -1.
         21   -1    0    0  501  503 -0.00000000000E+00 -0.00000000000E+00 -0.13881047032E+03  0.13881047032E+03  0.00000000000E+00 0. -1.
         24    1    1    2    0    0  0.40461044049E+02  0.36757829610E+02 -0.16027996483E+01  0.97252347243E+02  0.80419002446E+02 0.  0.
          1    1    1    2  501    0 -0.14314476838E+01 -0.26923387395E+02 -0.76841074822E+02  0.81433829647E+02  0.00000000000E+00 0. -1.
         -2    1    1    2    0  502 -0.39029596365E+02 -0.98344422152E+01  0.29284944305E+02  0.49775833585E+02  0.00000000000E+00 0.  1.
<mgrwt>
<rscale>  2 0.82225047E+02</rscale>
<asrwt>0</asrwt>
<pdfrwt beam="1">  1       21 0.13792545E-01 0.82225047E+02</pdfrwt>
<pdfrwt beam="2">  1       21 0.21355457E-01 0.82225047E+02</pdfrwt>
<totfact> 0.92843359E+05</totfact>
</mgrwt>
</event>
<event>
 5    1  0.1595802E+000  0.1186000E+03  0.7546771E-02  0.1245425E+00
         21   -1    0    0  501  502  0.00000000000E+00  0.00000000000E+00  0.18718087040E+03  0.18718087040E+03  0.00000000000E+00 0. -1.
         21   -1    0    0  502  503 -0.00000000000E+00 -0.00000000000E+00 -0.80809602387E+02  0.80809602387E+02  0.00000000000E+00 0.  1.
         24    1    1    2    0    0  0.15775803343E+02  0.34397849736E+02  0.15101440179E+02  0.90151857925E+02  0.80419002446E+02 0.  0.
          1    1    1    2  501    0  0.71007183263E+01 -0.88915780834E+02  0.74942645503E+02  0.11650251670E+03  0.00000000000E+00 0. -1.
         -2    1    1    2    0  503 -0.22876521669E+02  0.54517931098E+02  0.16327182330E+02  0.61336098162E+02  0.00000000000E+00 0.  1.
<mgrwt>
<rscale>  2 0.11859999E+03</rscale>
<asrwt>0</asrwt>
<pdfrwt beam="1">  1       21 0.28797057E-01 0.11859999E+03</pdfrwt>
<pdfrwt beam="2">  1       21 0.12432247E-01 0.11859999E+03</pdfrwt>
<totfact> 0.63919675E+05</totfact>
</mgrwt>
</event>
<event>
 5    1  0.1595802E+000  0.1112720E+03  0.7546771E-02  0.1258232E+00
         21   -1    0    0  503  502  0.00000000000E+00  0.00000000000E+00  0.94698974312E+02  0.94698974312E+02  0.00000000000E+00 0.  1.
         21   -1    0    0  501  503 -0.00000000000E+00 -0.00000000000E+00 -0.25616184210E+03  0.25616184210E+03  0.00000000000E+00 0.  1.
         24    1    1    2    0    0 -0.45133164695E+02  0.62035084542E+02 -0.14108731019E+03  0.17960567731E+03  0.80419002446E+02 0.  1.
          1    1    1    2  501    0 -0.23523230679E+02 -0.11710521214E+02 -0.68571123062E+02  0.73433491042E+02  0.00000000000E+00 0. -1.
         -2    1    1    2    0  502  0.68656395374E+02 -0.50324563327E+02  0.48195565463E+02  0.97821648065E+02  0.00000000000E+00 0.  1.
<mgrwt>
<rscale>  2 0.11127203E+03</rscale>
<asrwt>0</asrwt>
<pdfrwt beam="1">  1       21 0.14569073E-01 0.11127203E+03</pdfrwt>
<pdfrwt beam="2">  1       21 0.39409514E-01 0.11127203E+03</pdfrwt>
<totfact> 0.26159428E+05</totfact>
</mgrwt>
</event>
<event>
 5    1  0.1595802E+000  0.8546287E+02  0.7546771E-02  0.1314226E+00
         21   -1    0    0  501  502  0.00000000000E+00  0.00000000000E+00  0.73231997703E+01  0.73231997703E+01  0.00000000000E+00 0.  1.
         21   -1    0    0  502  503 -0.00000000000E+00 -0.00000000000E+00 -0.12339564694E+04  0.12339564694E+04  0.00000000000E+00 0. -1.
         24    1    1    2    0    0 -0.16227358090E+02  0.34303625152E+02 -0.78135700458E+03  0.78640069329E+03  0.80419002446E+02 0. -1.
          1    1    1    2  501    0  0.31523984461E+02 -0.50622550940E+02 -0.20316400920E+03  0.21173572890E+03  0.00000000000E+00 0. -1.
         -2    1    1    2    0  503 -0.15296626371E+02  0.16318925788E+02 -0.24211225590E+03  0.24314324703E+03  0.00000000000E+00 0.  1.
<mgrwt>
<rscale>  2 0.85462875E+02</rscale>
<asrwt>0</asrwt>
<pdfrwt beam="1">  1       21 0.11266460E-02 0.85462875E+02</pdfrwt>
<pdfrwt beam="2">  1       21 0.18983948E+00 0.85462875E+02</pdfrwt>
<totfact> 0.50577948E+05</totfact>
</mgrwt>
</event>
<event>
 5    1  0.1595802E+000  0.1043288E+03  0.7546771E-02  0.1271448E+00
         21   -1    0    0  501  502  0.00000000000E+00  0.00000000000E+00  0.10389180844E+03  0.10389180844E+03  0.00000000000E+00 0. -1.
         21   -1    0    0  502  503 -0.00000000000E+00 -0.00000000000E+00 -0.11301555229E+03  0.11301555229E+03  0.00000000000E+00 0.  1.
         24    1    1    2    0    0 -0.19990873993E+02 -0.52237438106E+00 -0.32110996912E+02  0.88872042820E+02  0.80419002446E+02 0.  1.
          1    1    1    2  501    0 -0.52097110423E+02 -0.96623067600E+01  0.12926677273E+02  0.54539600949E+02  0.00000000000E+00 0. -1.
         -2    1    1    2    0  503  0.72087984415E+02  0.10184681141E+02  0.10060575787E+02  0.73495716965E+02  0.00000000000E+00 0.  1.
<mgrwt>
<rscale>  2 0.10432877E+03</rscale>
<asrwt>0</asrwt>
<pdfrwt beam="1">  1       21 0.15983355E-01 0.10432877E+03</pdfrwt>
<pdfrwt beam="2">  1       21 0.17387008E-01 0.10432877E+03</pdfrwt>
<totfact> 0.10431793E+06</totfact>
</mgrwt>
</event>
<event>
 5    1  0.1595802E+000  0.1073498E+03  0.7546771E-02  0.1265558E+00
         21   -1    0    0  503  502  0.00000000000E+00  0.00000000000E+00  0.76947442658E+02  0.76947442658E+02  0.00000000000E+00 0.  1.
         21   -1    0    0  501  503 -0.00000000000E+00 -0.00000000000E+00 -0.22448964827E+03  0.22448964827E+03  0.00000000000E+00 0. -1.
         24    1    1    2    0    0  0.51918626378E+02  0.15702301471E+02  0.16786963612E+02  0.98443507344E+02  0.80419002446E+02 0.  1.
          1    1    1    2  501    0  0.13427275814E+02  0.33375026957E+02 -0.65716256449E+02  0.74918692740E+02  0.00000000000E+00 0. -1.
         -2    1    1    2    0  502 -0.65345902192E+02 -0.49077328428E+02 -0.98612912777E+02  0.12807489085E+03  0.00000000000E+00 0.  1.
<mgrwt>
<rscale>  2 0.10734978E+03</rscale>
<asrwt>0</asrwt>
<pdfrwt beam="1">  1       21 0.11838068E-01 0.10734978E+03</pdfrwt>
<pdfrwt beam="2">  1       21 0.34536869E-01 0.10734978E+03</pdfrwt>
<totfact> 0.49068929E+05</totfact>
</mgrwt>
</event>
<event>
 5    1  0.1595802E+000  0.6798640E+02  0.7546771E-02  0.1367077E+00
         21   -1    0    0  503  502  0.00000000000E+00  0.00000000000E+00  0.47698308488E+02  0.47698308488E+02  0.00000000000E+00 0.  1.
         21   -1    0    0  501  503 -0.00000000000E+00 -0.00000000000E+00 -0.10770014624E+03  0.10770014624E+03  0.00000000000E+00 0. -1.
         24    1    1    2    0    0  0.18070360879E+02 -0.11871479597E+02 -0.44114272386E+02  0.94237757574E+02  0.80419002446E+02 0.  1.
          1    1    1    2  501    0  0.13989771194E+02  0.14968971954E+02 -0.20070073284E+02  0.28680858792E+02  0.00000000000E+00 0. -1.
         -2    1    1    2    0  502 -0.32060132073E+02 -0.30974923572E+01  0.41825079177E+01  0.32479838361E+02  0.00000000000E+00 0.  1.
<mgrwt>
<rscale>  2 0.67986402E+02</rscale>
<asrwt>0</asrwt>
<pdfrwt beam="1">  1       21 0.73382014E-02 0.67986402E+02</pdfrwt>
<pdfrwt beam="2">  1       21 0.16569253E-01 0.67986402E+02</pdfrwt>
<totfact> 0.43263703E+06</totfact>
</mgrwt>
</event>
<event>
 5    1  0.1595802E+000  0.1197049E+03  0.7546771E-02  0.1243585E+00
         21   -1    0    0  501  502  0.00000000000E+00  0.00000000000E+00  0.55506492033E+03  0.55506492033E+03  0.00000000000E+00 0.  1.
         21   -1    0    0  502  503 -0.00000000000E+00 -0.00000000000E+00 -0.29905064227E+02  0.29905064227E+02  0.00000000000E+00 0. -1.
         24    1    1    2    0    0 -0.61261971020E+02  0.30339172826E+02  0.15524815068E+03  0.18773038845E+03  0.80419002446E+02 0.  0.
          1    1    1    2  501    0  0.90467444126E+02  0.17316185878E+01  0.31217812866E+03  0.32502698498E+03  0.00000000000E+00 0. -1.
         -2    1    1    2    0  503 -0.29205473107E+02 -0.32070791414E+02  0.57733576760E+02  0.72212611134E+02  0.00000000000E+00 0.  1.
<mgrwt>
<rscale>  2 0.11970489E+03</rscale>
<asrwt>0</asrwt>
<pdfrwt beam="1">  1       21 0.85394595E-01 0.11970489E+03</pdfrwt>
<pdfrwt beam="2">  1       21 0.46007795E-02 0.11970489E+03</pdfrwt>
<totfact> 0.37275494E+05</totfact>
</mgrwt>
</event>
<event>
 5    1  0.1595802E+000  0.7300675E+02  0.7546771E-02  0.1350157E+00
         21   -1    0    0  501  502  0.00000000000E+00  0.00000000000E+00  0.85805296767E+02  0.85805296767E+02  0.00000000000E+00 0. -1.
         21   -1    0    0  502  503 -0.00000000000E+00 -0.00000000000E+00 -0.81179975684E+02  0.81179975684E+02  0.00000000000E+00 0. -1.
         24    1    1    2    0    0 -0.12210934103E+02 -0.16753614294E+02  0.38191351893E+02  0.91408893536E+02  0.80419002446E+02 0. -1.
          1    1    1    2  501    0  0.29662986070E+02  0.29126542137E+02 -0.81643666392E+01  0.42366320138E+02  0.00000000000E+00 0. -1.
         -2    1    1    2    0  503 -0.17452051967E+02 -0.12372927843E+02 -0.25401664171E+02  0.33210058777E+02  0.00000000000E+00 0.  1.
<mgrwt>
<rscale>  2 0.73006746E+02</rscale>
<asrwt>0</asrwt>
<pdfrwt beam="1">  1       21 0.13200815E-01 0.73006746E+02</pdfrwt>
<pdfrwt beam="2">  1       21 0.12489227E-01 0.73006746E+02</pdfrwt>
<totfact> 0.26098531E+06</totfact>
</mgrwt>
</event>
<event>
 5    1  0.1595802E+000  0.7088655E+02  0.7546771E-02  0.1357104E+00
         21   -1    0    0  501  502  0.00000000000E+00  0.00000000000E+00  0.17282923663E+03  0.17282923663E+03  0.00000000000E+00 0. -1.
         21   -1    0    0  502  503 -0.00000000000E+00 -0.00000000000E+00 -0.82066485831E+02  0.82066485831E+02  0.00000000000E+00 0.  1.
         24    1    1    2    0    0  0.18592363722E+02 -0.61667356047E+01  0.67753741352E+00  0.82773061005E+02  0.80419002446E+02 0. -1.
          1    1    1    2  501    0  0.15690467136E+02  0.16917693342E+02  0.12194116625E+03  0.12410498432E+03  0.00000000000E+00 0. -1.
         -2    1    1    2    0  503 -0.34282830858E+02 -0.10750957737E+02 -0.31855952869E+02  0.48017677131E+02  0.00000000000E+00 0.  1.
<mgrwt>
<rscale>  2 0.70886549E+02</rscale>
<asrwt>0</asrwt>
<pdfrwt beam="1">  1       21 0.26589113E-01 0.70886549E+02</pdfrwt>
<pdfrwt beam="2">  1       21 0.12625613E-01 0.70886549E+02</pdfrwt>
<totfact> 0.72052963E+05</totfact>
</mgrwt>
</event>
<event>
 5    1  0.1595802E+000  0.8681629E+02  0.7546771E-02  0.1310750E+00
         21   -1    0    0  503  502  0.00000000000E+00  0.00000000000E+00  0.77188685683E+03  0.77188685683E+03  0.00000000000E+00 0.  1.
         21   -1    0    0  501  503 -0.00000000000E+00 -0.00000000000E+00 -0.99274662632E+02  0.99274662632E+02  0.00000000000E+00 0. -1.
         24    1    1    2    0    0  0.41427547559E+02  0.23912371815E+02  0.13068480987E+03  0.16072889817E+03  0.80419002446E+02 0. -1.
          1    1    1    2  501    0 -0.58153574611E+02 -0.11613264139E+02 -0.73620883547E+02  0.94534335763E+02  0.00000000000E+00 0. -1.
         -2    1    1    2    0  502  0.16726027052E+02 -0.12299107676E+02  0.61554826787E+03  0.61589828553E+03  0.00000000000E+00 0.  1.
<mgrwt>
<rscale>  2 0.86816289E+02</rscale>
<asrwt>0</asrwt>
<pdfrwt beam="1">  1       21 0.11875182E+00 0.86816289E+02</pdfrwt>
<pdfrwt beam="2">  1       21 0.15273026E-01 0.86816289E+02</pdfrwt>
<totfact> 0.22359757E+04</totfact>
</mgrwt>
</event>
<event>
 5    1  0.1595802E+000  0.8117404E+02  0.7546771E-02  0.1325752E+00
         21   -1    0    0  503  502  0.00000000000E+00  0.00000000000E+00  0.29607643950E+03  0.29607643950E+03  0.00000000000E+00 0. -1.
         21   -1    0    0  501  503 -0.00000000000E+00 -0.00000000000E+00 -0.24139701212E+02  0.24139701212E+02  0.00000000000E+00 0.  1.
         24    1    1    2    0    0  0.10620464419E+02 -0.34256534420E+02  0.16845801120E+03  0.19008319732E+03  0.80419002446E+02 0.  0.
          1    1    1    2  501    0 -0.36581126940E+02  0.31339544352E+02  0.44295025312E+02  0.65440011888E+02  0.00000000000E+00 0. -1.
         -2    1    1    2    0  502  0.25960662521E+02  0.29169900675E+01  0.59183701780E+02  0.64692931499E+02  0.00000000000E+00 0.  1.
<mgrwt>
<rscale>  2 0.81174036E+02</rscale>
<asrwt>0</asrwt>
<pdfrwt beam="1">  1       21 0.45550219E-01 0.81174036E+02</pdfrwt>
<pdfrwt beam="2">  1       21 0.37138004E-02 0.81174036E+02</pdfrwt>
<totfact> 0.20114866E+06</totfact>
</mgrwt>
</event>
<event>
 5    1  0.1595802E+000  0.8783673E+02  0.7546771E-02  0.1308177E+00
         21   -1    0    0  501  502  0.00000000000E+00  0.00000000000E+00  0.41576224772E+03  0.41576224772E+03  0.00000000000E+00 0. -1.
         21   -1    0    0  502  503 -0.00000000000E+00 -0.00000000000E+00 -0.27773878940E+02  0.27773878940E+02  0.00000000000E+00 0. -1.
         24    1    1    2    0    0 -0.61357504054E+02 -0.13717454532E+01  0.32862369058E+03  0.34384207270E+03  0.80419002446E+02 0. -1.
          1    1    1    2  501    0  0.46601359265E+02  0.20029379022E+02  0.56186023094E+02  0.75694992572E+02  0.00000000000E+00 0. -1.
         -2    1    1    2    0  503  0.14756144789E+02 -0.18657633568E+02  0.31786551024E+01  0.23999061391E+02  0.00000000000E+00 0.  1.
<mgrwt>
<rscale>  2 0.87836734E+02</rscale>
<asrwt>0</asrwt>
<pdfrwt beam="1">  1       21 0.63963418E-01 0.87836734E+02</pdfrwt>
<pdfrwt beam="2">  1       21 0.42729048E-02 0.87836734E+02</pdfrwt>
<totfact> 0.79462242E+05</totfact>
</mgrwt>
</event>
<event>
 5    1  0.1595802E+000  0.8016341E+02  0.7546771E-02  0.1328588E+00
         21   -1    0    0  503  502  0.00000000000E+00  0.00000000000E+00  0.77742001935E+02  0.77742001935E+02  0.00000000000E+00 0. -1.
         21   -1    0    0  501  503 -0.00000000000E+00 -0.00000000000E+00 -0.12733216590E+03  0.12733216590E+03  0.00000000000E+00 0. -1.
         24    1    1    2    0    0  0.17827288381E+02 -0.25818915856E+02  0.10333508562E+02  0.86939208534E+02  0.80419002446E+02 0. -1.
          1    1    1    2  501    0 -0.43063636963E+02  0.22387604952E+02 -0.74406143077E+02  0.88836680552E+02  0.00000000000E+00 0. -1.
         -2    1    1    2    0  502  0.25236348582E+02  0.34313109037E+01  0.14482470551E+02  0.29298278747E+02  0.00000000000E+00 0.  1.
<mgrwt>
<rscale>  2 0.80163413E+02</rscale>
<asrwt>0</asrwt>
<pdfrwt beam="1">  1       21 0.11960308E-01 0.80163413E+02</pdfrwt>
<pdfrwt beam="2">  1       21 0.19589564E-01 0.80163413E+02</pdfrwt>
<totfact> 0.13959412E+06</totfact>
</mgrwt>
</event>
<event>
 5    1  0.1595802E+000  0.7840594E+02  0.7546771E-02  0.1333637E+00
         21   -1    0    0  503  502  0.00000000000E+00  0.00000000000E+00  0.15787945785E+03  0.15787945785E+03  0.00000000000E+00 0.  1.
         21   -1    0    0  501  503 -0.00000000000E+00 -0.00000000000E+00 -0.41281751235E+02  0.41281751235E+02  0.00000000000E+00 0. -1.
         24    1    1    2    0    0  0.24183199945E+02 -0.30030268633E+02  0.89304925291E+02  0.12621105272E+03  0.80419002446E+02 0.  1.
          1    1    1    2  501    0  0.63915999015E+01  0.35925389135E+02  0.13741011617E+02  0.38991044280E+02  0.00000000000E+00 0. -1.
         -2    1    1    2    0  502 -0.30574799847E+02 -0.58951205018E+01  0.13551769710E+02  0.33959112086E+02  0.00000000000E+00 0.  1.
<mgrwt>
<rscale>  2 0.78405942E+02</rscale>
<asrwt>0</asrwt>
<pdfrwt beam="1">  1       21 0.24289147E-01 0.78405942E+02</pdfrwt>
<pdfrwt beam="2">  1       21 0.63510387E-02 0.78405942E+02</pdfrwt>
<totfact> 0.27753224E+06</totfact>
</mgrwt>
</event>
<event>
 5    1  0.1595802E+000  0.7094260E+02  0.7546771E-02  0.1356917E+00
         21   -1    0    0  503  502  0.00000000000E+00  0.00000000000E+00  0.65261512148E+01  0.65261512148E+01  0.00000000000E+00 0.  1.
         21   -1    0    0  501  503 -0.00000000000E+00 -0.00000000000E+00 -0.22669534423E+04  0.22669534423E+04  0.00000000000E+00 0. -1.
         24    1    1    2    0    0  0.24799348309E+02 -0.13138864505E+02 -0.57365519091E+03  0.57994407614E+03  0.80419002446E+02 0. -1.
          1    1    1    2  501    0 -0.63000941746E+01  0.30617716628E+02 -0.16399135655E+04  0.16402114614E+04  0.00000000000E+00 0. -1.
         -2    1    1    2    0  502 -0.18499254134E+02 -0.17478852123E+02 -0.46858534679E+02  0.53324055991E+02  0.00000000000E+00 0.  1.
<mgrwt>
<rscale>  2 0.70942595E+02</rscale>
<asrwt>0</asrwt>
<pdfrwt beam="1">  1       21 0.10040232E-02 0.70942595E+02</pdfrwt>
<pdfrwt beam="2">  1       21 0.34876208E+00 0.70942595E+02</pdfrwt>
<totfact> 0.79264374E+04</totfact>
</mgrwt>
</event>
<event>
 5    1  0.1595802E+000  0.1065619E+03  0.7546771E-02  0.1267073E+00
         21   -1    0    0  503  502  0.00000000000E+00  0.00000000000E+00  0.11711197094E+02  0.11711197094E+02  0.00000000000E+00 0.  1.
         21   -1    0    0  501  503 -0.00000000000E+00 -0.00000000000E+00 -0.11890971914E+04  0.11890971914E+04  0.00000000000E+00 0. -1.
         24    1    1    2    0    0  0.44517201568E+02  0.12691545251E+02 -0.35253707687E+03  0.36454418536E+03  0.80419002446E+02 0.  1.
          1    1    1    2  501    0  0.71077146934E+01  0.43471144010E+02 -0.52569023679E+03  0.52753244926E+03  0.00000000000E+00 0. -1.
         -2    1    1    2    0  502 -0.51624916262E+02 -0.56162689260E+02 -0.29915868069E+03  0.30873175391E+03  0.00000000000E+00 0.  1.
<mgrwt>
<rscale>  2 0.10656186E+03</rscale>
<asrwt>0</asrwt>
<pdfrwt beam="1">  1       21 0.18017230E-02 0.10656186E+03</pdfrwt>
<pdfrwt beam="2">  1       21 0.18293800E+00 0.10656186E+03</pdfrwt>
<totfact> 0.26360220E+05</totfact>
</mgrwt>
</event>
<event>
 5    1  0.1595802E+000  0.8887867E+02  0.7546771E-02  0.1305590E+00
         21   -1    0    0  503  502  0.00000000000E+00  0.00000000000E+00  0.27846070155E+03  0.27846070155E+03  0.00000000000E+00 0.  1.
         21   -1    0    0  501  503 -0.00000000000E+00 -0.00000000000E+00 -0.66223271491E+02  0.66223271491E+02  0.00000000000E+00 0. -1.
         24    1    1    2    0    0  0.37009221051E+02  0.23282664704E+02 -0.22789155024E+02  0.94330941157E+02  0.80419002446E+02 0. -1.
          1    1    1    2  501    0  0.70113617216E+01  0.21986274679E+02  0.65862786833E+02  0.69788696484E+02  0.00000000000E+00 0. -1.
         -2    1    1    2    0  502 -0.44020582773E+02 -0.45268939383E+02  0.16916379825E+03  0.18056433540E+03  0.00000000000E+00 0.  1.
<mgrwt>
<rscale>  2 0.88878667E+02</rscale>
<asrwt>0</asrwt>
<pdfrwt beam="1">  1       21 0.42840107E-01 0.88878667E+02</pdfrwt>
<pdfrwt beam="2">  1       21 0.10188196E-01 0.88878667E+02</pdfrwt>
<totfact> 0.41745104E+05</totfact>
</mgrwt>
</event>
<event>
 5    1  0.1595802E+000  0.8426829E+02  0.7546771E-02  0.1317357E+00
         21   -1    0    0  501  502  0.00000000000E+00  0.00000000000E+00  0.52309048405E+02  0.52309048405E+02  0.00000000000E+00 0.  1.
         21   -1    0    0  502  503 -0.00000000000E+00 -0.00000000000E+00 -0.15047405827E+03  0.15047405827E+03  0.00000000000E+00 0. -1.
         24    1    1    2    0    0 -0.59099268286E+02  0.11281426732E+02 -0.26462700111E+02  0.10386281603E+03  0.80419002446E+02 0.  1.
          1    1    1    2  501    0  0.42433256228E+02 -0.22482363183E+02 -0.52187731020E+02  0.70919652829E+02  0.00000000000E+00 0. -1.
         -2    1    1    2    0  503  0.16666012058E+02  0.11200936451E+02 -0.19514578738E+02  0.28000637825E+02  0.00000000000E+00 0.  1.
<mgrwt>
<rscale>  2 0.84268295E+02</rscale>
<asrwt>0</asrwt>
<pdfrwt beam="1">  1       21 0.80475461E-02 0.84268295E+02</pdfrwt>
<pdfrwt beam="2">  1       21 0.23149855E-01 0.84268295E+02</pdfrwt>
<totfact> 0.20394767E+06</totfact>
</mgrwt>
</event>
<event>
 5    1  0.1595802E+000  0.1234363E+03  0.7546771E-02  0.1237534E+00
         21   -1    0    0  503  502  0.00000000000E+00  0.00000000000E+00  0.15110936155E+03  0.15110936155E+03  0.00000000000E+00 0.  1.
         21   -1    0    0  501  503 -0.00000000000E+00 -0.00000000000E+00 -0.51189405939E+03  0.51189405939E+03  0.00000000000E+00 0. -1.
         24    1    1    2    0    0  0.65690369635E+02  0.49130071874E+02 -0.24630244323E+03  0.27177398352E+03  0.80419002446E+02 0. -1.
          1    1    1    2  501    0 -0.52325229946E+02 -0.81571282529E+02 -0.24109588364E+03  0.25984423975E+03  0.00000000000E+00 0. -1.
         -2    1    1    2    0  502 -0.13365139689E+02  0.32441210656E+02  0.12661362903E+03  0.13138519766E+03  0.00000000000E+00 0.  1.
<mgrwt>
<rscale>  2 0.12343625E+03</rscale>
<asrwt>0</asrwt>
<pdfrwt beam="1">  1       21 0.23247594E-01 0.12343625E+03</pdfrwt>
<pdfrwt beam="2">  1       21 0.78752932E-01 0.12343625E+03</pdfrwt>
<totfact> 0.25884665E+04</totfact>
</mgrwt>
</event>
<event>
 5    1  0.1595802E+000  0.1071818E+03  0.7546771E-02  0.1265880E+00
         21   -1    0    0  501  502  0.00000000000E+00  0.00000000000E+00  0.10512373834E+03  0.10512373834E+03  0.00000000000E+00 0. -1.
         21   -1    0    0  502  503 -0.00000000000E+00 -0.00000000000E+00 -0.12608202239E+03  0.12608202239E+03  0.00000000000E+00 0. -1.
         24    1    1    2    0    0 -0.31505508548E+02  0.36328131608E+02 -0.23093518644E+02  0.96503143849E+02  0.80419002446E+02 0. -1.
          1    1    1    2  501    0  0.73066698538E+02 -0.18061043659E+02  0.30456588686E+02  0.81194504295E+02  0.00000000000E+00 0. -1.
         -2    1    1    2    0  503 -0.41561189989E+02 -0.18267087949E+02 -0.28321354086E+02  0.53508112588E+02  0.00000000000E+00 0.  1.
<mgrwt>
<rscale>  2 0.10718175E+03</rscale>
<asrwt>0</asrwt>
<pdfrwt beam="1">  1       21 0.16172883E-01 0.10718175E+03</pdfrwt>
<pdfrwt beam="2">  1       21 0.19397234E-01 0.10718175E+03</pdfrwt>
<totfact> 0.83678860E+05</totfact>
</mgrwt>
</event>
<event>
 5    1  0.1595802E+000  0.6888258E+02  0.7546771E-02  0.1363935E+00
         21   -1    0    0  503  502  0.00000000000E+00  0.00000000000E+00  0.71665327067E+02  0.71665327067E+02  0.00000000000E+00 0. -1.
         21   -1    0    0  501  503 -0.00000000000E+00 -0.00000000000E+00 -0.94549157575E+02  0.94549157575E+02  0.00000000000E+00 0.  1.
         24    1    1    2    0    0  0.20690443775E+02 -0.56517649690E+01  0.36962398824E+01  0.83312154302E+02  0.80419002446E+02 0.  1.
          1    1    1    2  501    0 -0.20541805647E+02  0.26587641367E+02 -0.44212408149E+02  0.55530221384E+02  0.00000000000E+00 0. -1.
         -2    1    1    2    0  502 -0.14863812784E+00 -0.20935876398E+02  0.17632337758E+02  0.27372108955E+02  0.00000000000E+00 0.  1.
<mgrwt>
<rscale>  2 0.68882581E+02</rscale>
<asrwt>0</asrwt>
<pdfrwt beam="1">  1       21 0.11025435E-01 0.68882581E+02</pdfrwt>
<pdfrwt beam="2">  1       21 0.14546024E-01 0.68882581E+02</pdfrwt>
<totfact> 0.27230304E+06</totfact>
</mgrwt>
</event>
<event>
 5    1  0.1595802E+000  0.7031553E+02  0.7546771E-02  0.1359023E+00
         21   -1    0    0  503  502  0.00000000000E+00  0.00000000000E+00  0.17666051625E+04  0.17666051625E+04  0.00000000000E+00 0. -1.
         21   -1    0    0  501  503 -0.00000000000E+00 -0.00000000000E+00 -0.97553916832E+01  0.97553916832E+01  0.00000000000E+00 0. -1.
         24    1    1    2    0    0  0.15554699884E+01  0.31447346558E+02  0.50610715950E+03  0.51342285491E+03  0.80419002446E+02 0. -1.
          1    1    1    2  501    0  0.20583416572E+02 -0.22204108224E+02  0.32347587765E+02  0.44306499456E+02  0.00000000000E+00 0. -1.
         -2    1    1    2    0  502 -0.22138886560E+02 -0.92432383343E+01  0.12183950235E+04  0.12186311998E+04  0.00000000000E+00 0.  1.
<mgrwt>
<rscale>  2 0.70315529E+02</rscale>
<asrwt>0</asrwt>
<pdfrwt beam="1">  1       21 0.27178516E+00 0.70315529E+02</pdfrwt>
<pdfrwt beam="2">  1       21 0.15008309E-02 0.70315529E+02</pdfrwt>
<totfact> 0.11061829E+05</totfact>
</mgrwt>
</event>
<event>
 5    1  0.1595802E+000  0.9559682E+02  0.7546771E-02  0.1289838E+00
         21   -1    0    0  503  502  0.00000000000E+00  0.00000000000E+00  0.47184149144E+02  0.47184149144E+02  0.00000000000E+00 0. -1.
         21   -1    0    0  501  503 -0.00000000000E+00 -0.00000000000E+00 -0.20160573430E+03  0.20160573430E+03  0.00000000000E+00 0. -1.
         24    1    1    2    0    0  0.70297012528E+02  0.20504374211E+02 -0.88031427724E+02  0.13992443516E+03  0.80419002446E+02 0. -1.
          1    1    1    2  501    0 -0.48090781188E+02 -0.31663424530E+02 -0.60097814848E+02  0.83228859404E+02  0.00000000000E+00 0. -1.
         -2    1    1    2    0  502 -0.22206231340E+02  0.11159050319E+02 -0.62923425823E+01  0.25636588882E+02  0.00000000000E+00 0.  1.
<mgrwt>
<rscale>  2 0.95596823E+02</rscale>
<asrwt>0</asrwt>
<pdfrwt beam="1">  1       21 0.72590999E-02 0.95596823E+02</pdfrwt>
<pdfrwt beam="2">  1       21 0.31016267E-01 0.95596823E+02</pdfrwt>
<totfact> 0.14064473E+06</totfact>
</mgrwt>
</event>
<event>
 5    1  0.1595802E+000  0.7060477E+02  0.7546771E-02  0.1358048E+00
         21   -1    0    0  503  502  0.00000000000E+00  0.00000000000E+00  0.16741137945E+02  0.16741137945E+02  0.00000000000E+00 0. -1.
         21   -1    0    0  501  503 -0.00000000000E+00 -0.00000000000E+00 -0.68475537766E+03  0.68475537766E+03  0.00000000000E+00 0.  1.
         24    1    1    2    0    0 -0.23004972013E+02 -0.17067600247E+02 -0.10336778992E+03  0.13406210375E+03  0.80419002446E+02 0.  1.
          1    1    1    2  501    0  0.69485397617E+01  0.32701037599E+02 -0.36788124047E+03  0.36939714016E+03  0.00000000000E+00 0. -1.
         -2    1    1    2    0  502  0.16056432251E+02 -0.15633437353E+02 -0.19676520932E+03  0.19803727169E+03  0.00000000000E+00 0.  1.
<mgrwt>
<rscale>  2 0.70604774E+02</rscale>
<asrwt>0</asrwt>
<pdfrwt beam="1">  1       21 0.25755600E-02 0.70604774E+02</pdfrwt>
<pdfrwt beam="2">  1       21 0.10534697E+00 0.70604774E+02</pdfrwt>
<totfact> 0.59918415E+05</totfact>
</mgrwt>
</event>
<event>
 5    1  0.1595802E+000  0.6681709E+02  0.7546771E-02  0.1371264E+00
         21   -1    0    0  503  502  0.00000000000E+00  0.00000000000E+00  0.29036546073E+03  0.29036546073E+03  0.00000000000E+00 0.  1.
         21   -1    0    0  501  503 -0.00000000000E+00 -0.00000000000E+00 -0.29238200777E+02  0.29238200777E+02  0.00000000000E+00 0. -1.
         24    1    1    2    0    0  0.82678304509E+01 -0.83335108032E+01  0.42303754200E+02  0.91622202530E+02  0.80419002446E+02 0. -1.
          1    1    1    2  501    0  0.19172557053E+02  0.14740970916E+02  0.38473014141E+02  0.45442887063E+02  0.00000000000E+00 0. -1.
         -2    1    1    2    0  502 -0.27440387504E+02 -0.64074601130E+01  0.18035049162E+03  0.18253857192E+03  0.00000000000E+00 0.  1.
<mgrwt>
<rscale>  2 0.66817090E+02</rscale>
<asrwt>0</asrwt>
<pdfrwt beam="1">  1       21 0.44671607E-01 0.66817090E+02</pdfrwt>
<pdfrwt beam="2">  1       21 0.44981849E-02 0.66817090E+02</pdfrwt>
<totfact> 0.15159145E+06</totfact>
</mgrwt>
</event>
<event>
 5    1  0.1595802E+000  0.9123728E+02  0.7546771E-02  0.1299883E+00
         21   -1    0    0  503  502  0.00000000000E+00  0.00000000000E+00  0.10913443421E+04  0.10913443421E+04  0.00000000000E+00 0.  1.
         21   -1    0    0  501  503 -0.00000000000E+00 -0.00000000000E+00 -0.59787056699E+02  0.59787056699E+02  0.00000000000E+00 0. -1.
         24    1    1    2    0    0 -0.29274758096E+02  0.94115823568E+01  0.41353606366E+02  0.95514009747E+02  0.80419002446E+02 0.  0.
          1    1    1    2  501    0 -0.31878911164E+02 -0.14480395898E+02 -0.22133137656E+02  0.41422489361E+02  0.00000000000E+00 0. -1.
         -2    1    1    2    0  502  0.61153669260E+02  0.50688135417E+01  0.10123368167E+04  0.10141948997E+04  0.00000000000E+00 0.  1.
<mgrwt>
<rscale>  2 0.91237276E+02</rscale>
<asrwt>0</asrwt>
<pdfrwt beam="1">  1       21 0.16789911E+00 0.91237276E+02</pdfrwt>
<pdfrwt beam="2">  1       21 0.91980095E-02 0.91237276E+02</pdfrwt>
<totfact> 0.22671151E+04</totfact>
</mgrwt>
</event>
<event>
 5    1  0.1595802E+000  0.9328225E+02  0.7546771E-02  0.1295092E+00
         21   -1    0    0  503  502  0.00000000000E+00  0.00000000000E+00  0.74234003179E+02  0.74234003179E+02  0.00000000000E+00 0.  1.
         21   -1    0    0  501  503 -0.00000000000E+00 -0.00000000000E+00 -0.16668471711E+03  0.16668471711E+03  0.00000000000E+00 0.  1.
         24    1    1    2    0    0  0.46831707375E+02  0.18581187472E+02 -0.88347014078E+02  0.12965677844E+03  0.80419002446E+02 0.  1.
          1    1    1    2  501    0  0.20461124744E+02  0.36747261175E+01 -0.29398366426E+02  0.36005904881E+02  0.00000000000E+00 0. -1.
         -2    1    1    2    0  502 -0.67292832119E+02 -0.22255913590E+02  0.25294666569E+02  0.75256036974E+02  0.00000000000E+00 0.  1.
<mgrwt>
<rscale>  2 0.93282248E+02</rscale>
<asrwt>0</asrwt>
<pdfrwt beam="1">  1       21 0.11420616E-01 0.93282248E+02</pdfrwt>
<pdfrwt beam="2">  1       21 0.25643803E-01 0.93282248E+02</pdfrwt>
<totfact> 0.92333385E+05</totfact>
</mgrwt>
</event>
<event>
 5    1  0.1595802E+000  0.7095661E+02  0.7546771E-02  0.1356870E+00
         21   -1    0    0  501  502  0.00000000000E+00  0.00000000000E+00  0.97898592988E+01  0.97898592988E+01  0.00000000000E+00 0. -1.
         21   -1    0    0  502  503 -0.00000000000E+00 -0.00000000000E+00 -0.12652621288E+04  0.12652621288E+04  0.00000000000E+00 0. -1.
         24    1    1    2    0    0  0.17199337682E+02  0.48591945748E+01 -0.73231729729E+03  0.73693640761E+03  0.80419002446E+02 0. -1.
          1    1    1    2  501    0 -0.18748900121E+02 -0.29439625768E+02 -0.35308486701E+02  0.49647779953E+02  0.00000000000E+00 0. -1.
         -2    1    1    2    0  503  0.15495624394E+01  0.24580431193E+02 -0.48784648550E+03  0.48846780053E+03  0.00000000000E+00 0.  1.
<mgrwt>
<rscale>  2 0.70956613E+02</rscale>
<asrwt>0</asrwt>
<pdfrwt beam="1">  1       21 0.15061322E-02 0.70956613E+02</pdfrwt>
<pdfrwt beam="2">  1       21 0.19465572E+00 0.70956613E+02</pdfrwt>
<totfact> 0.30164044E+05</totfact>
</mgrwt>
</event>
<event>
 5    1  0.1595802E+000  0.7759118E+02  0.7546771E-02  0.1336030E+00
         21   -1    0    0  503  502  0.00000000000E+00  0.00000000000E+00  0.30559767132E+02  0.30559767132E+02  0.00000000000E+00 0. -1.
         21   -1    0    0  501  503 -0.00000000000E+00 -0.00000000000E+00 -0.22332332988E+03  0.22332332988E+03  0.00000000000E+00 0.  1.
         24    1    1    2    0    0  0.26187724546E+02  0.16615383300E+02 -0.10821387610E+03  0.13834495587E+03  0.80419002446E+02 0.  1.
          1    1    1    2  501    0  0.20130134853E+02 -0.90001933369E+01 -0.56986969329E+02  0.61104340948E+02  0.00000000000E+00 0. -1.
         -2    1    1    2    0  502 -0.46317859400E+02 -0.76151899628E+01 -0.27562717314E+02  0.54433800191E+02  0.00000000000E+00 0.  1.
<mgrwt>
<rscale>  2 0.77591180E+02</rscale>
<asrwt>0</asrwt>
<pdfrwt beam="1">  1       21 0.47015027E-02 0.77591180E+02</pdfrwt>
<pdfrwt beam="2">  1       21 0.34357435E-01 0.77591180E+02</pdfrwt>
<totfact> 0.23736041E+06</totfact>
</mgrwt>
</event>
<event>
 5    1  0.1595802E+000  0.9777730E+02  0.7546771E-02  0.1285041E+00
         21   -1    0    0  503  502  0.00000000000E+00  0.00000000000E+00  0.66835844072E+02  0.66835844072E+02  0.00000000000E+00 0.  1.
         21   -1    0    0  501  503 -0.00000000000E+00 -0.00000000000E+00 -0.26571528903E+03  0.26571528903E+03  0.00000000000E+00 0. -1.
         24    1    1    2    0    0  0.37873789812E+01 -0.27629975212E+02 -0.44160388431E+02  0.95891165550E+02  0.80419002446E+02 0.  1.
          1    1    1    2  501    0  0.17842969565E+02 -0.37651544000E+02 -0.16221541195E+03  0.16748089504E+03  0.00000000000E+00 0. -1.
         -2    1    1    2    0  502 -0.21630348546E+02  0.65281519212E+02  0.74963554254E+01  0.69179072511E+02  0.00000000000E+00 0.  1.
<mgrwt>
<rscale>  2 0.97777298E+02</rscale>
<asrwt>0</asrwt>
<pdfrwt beam="1">  1       21 0.10282438E-01 0.97777298E+02</pdfrwt>
<pdfrwt beam="2">  1       21 0.40879275E-01 0.97777298E+02</pdfrwt>
<totfact> 0.45073790E+05</totfact>
</mgrwt>
</event>
<event>
 5    1  0.1595802E+000  0.6566924E+02  0.7546771E-02  0.1375472E+00
         21   -1    0    0  503  502  0.00000000000E+00  0.00000000000E+00  0.43346892320E+02  0.43346892320E+02  0.00000000000E+00 0. -1.
         21   -1    0    0  501  503 -0.00000000000E+00 -0.00000000000E+00 -0.11541528471E+03  0.11541528471E+03  0.00000000000E+00 0.  1.
         24    1    1    2    0    0 -0.11685716303E+02  0.16180656974E+02 -0.36222852338E+02  0.90430529201E+02  0.80419002446E+02 0. -1.
          1    1    1    2  501    0  0.17488431075E+02  0.11017380463E+02 -0.34831989121E+02  0.40503029021E+02  0.00000000000E+00 0. -1.
         -2    1    1    2    0  502 -0.58027147715E+01 -0.27198037437E+02 -0.10135509268E+01  0.27828618805E+02  0.00000000000E+00 0.  1.
<mgrwt>
<rscale>  2 0.65669238E+02</rscale>
<asrwt>0</asrwt>
<pdfrwt beam="1">  1       21 0.66687527E-02 0.65669238E+02</pdfrwt>
<pdfrwt beam="2">  1       21 0.17756198E-01 0.65669238E+02</pdfrwt>
<totfact> 0.44777755E+06</totfact>
</mgrwt>
</event>
<event>
 5    1  0.1595802E+000  0.6567040E+02  0.7546771E-02  0.1375467E+00
         21   -1    0    0  503  502  0.00000000000E+00  0.00000000000E+00  0.82601754838E+02  0.82601754838E+02  0.00000000000E+00 0.  1.
         21   -1    0    0  501  503 -0.00000000000E+00 -0.00000000000E+00 -0.14870647758E+03  0.14870647758E+03  0.00000000000E+00 0. -1.
         24    1    1    2    0    0  0.12413735109E+02  0.34078983100E+01 -0.76962054070E+02  0.11205395268E+03  0.80419002446E+02 0.  1.
          1    1    1    2  501    0  0.26685201235E+01 -0.24125126326E+02 -0.48702417669E+02  0.54415698164E+02  0.00000000000E+00 0. -1.
         -2    1    1    2    0  502 -0.15082255232E+02  0.20717228016E+02  0.59559748998E+02  0.64838581572E+02  0.00000000000E+00 0.  1.
<mgrwt>
<rscale>  2 0.65670398E+02</rscale>
<asrwt>0</asrwt>
<pdfrwt beam="1">  1       21 0.12707962E-01 0.65670398E+02</pdfrwt>
<pdfrwt beam="2">  1       21 0.22877919E-01 0.65670398E+02</pdfrwt>
<totfact> 0.93953598E+05</totfact>
</mgrwt>
</event>
<event>
 5    1  0.1595802E+000  0.8234917E+02  0.7546771E-02  0.1322514E+00
         21   -1    0    0  503  502  0.00000000000E+00  0.00000000000E+00  0.16842737936E+02  0.16842737936E+02  0.00000000000E+00 0. -1.
         21   -1    0    0  501  503 -0.00000000000E+00 -0.00000000000E+00 -0.10514401291E+04  0.10514401291E+04  0.00000000000E+00 0. -1.
         24    1    1    2    0    0  0.10119173078E+02  0.38978440675E+01 -0.21746846305E+03  0.23211492677E+03  0.80419002446E+02 0. -1.
          1    1    1    2  501    0  0.20265217580E+02 -0.34764021053E+02 -0.77399834466E+03  0.77504364635E+03  0.00000000000E+00 0. -1.
         -2    1    1    2    0  502 -0.30384390659E+02  0.30866176985E+02 -0.43130583415E+02  0.61124293886E+02  0.00000000000E+00 0.  1.
<mgrwt>
<rscale>  2 0.82349170E+02</rscale>
<asrwt>0</asrwt>
<pdfrwt beam="1">  1       21 0.25911905E-02 0.82349170E+02</pdfrwt>
<pdfrwt beam="2">  1       21 0.16176002E+00 0.82349170E+02</pdfrwt>
<totfact> 0.20720952E+05</totfact>
</mgrwt>
</event>
<event>
 5    1  0.1595802E+000  0.8846916E+02  0.7546771E-02  0.1306602E+00
         21   -1    0    0  501  502  0.00000000000E+00  0.00000000000E+00  0.34879557625E+02  0.34879557625E+02  0.00000000000E+00 0.  1.
         21   -1    0    0  502  503 -0.00000000000E+00 -0.00000000000E+00 -0.27150405482E+03  0.27150405482E+03  0.00000000000E+00 0. -1.
         24    1    1    2    0    0 -0.40129089440E+02 -0.28298768540E+01 -0.10586964035E+03  0.13890265917E+03  0.80419002446E+02 0.  0.
          1    1    1    2  501    0  0.34988894782E+02 -0.34617597620E+02 -0.25063400073E+02  0.55233819769E+02  0.00000000000E+00 0. -1.
         -2    1    1    2    0  503  0.51401946573E+01  0.37447474474E+02 -0.10569145678E+03  0.11224713351E+03  0.00000000000E+00 0.  1.
<mgrwt>
<rscale>  2 0.88469160E+02</rscale>
<asrwt>0</asrwt>
<pdfrwt beam="1">  1       21 0.53660858E-02 0.88469160E+02</pdfrwt>
<pdfrwt beam="2">  1       21 0.41769855E-01 0.88469160E+02</pdfrwt>
<totfact> 0.13057254E+06</totfact>
</mgrwt>
</event>
<event>
 5    1  0.1595802E+000  0.6968482E+02  0.7546771E-02  0.1361168E+00
         21   -1    0    0  501  502  0.00000000000E+00  0.00000000000E+00  0.98597376290E+02  0.98597376290E+02  0.00000000000E+00 0. -1.
         21   -1    0    0  502  503 -0.00000000000E+00 -0.00000000000E+00 -0.52122663374E+02  0.52122663374E+02  0.00000000000E+00 0.  1.
         24    1    1    2    0    0  0.19120977630E+02  0.12497554782E+02  0.36535376634E+02  0.91235137755E+02  0.80419002446E+02 0.  0.
          1    1    1    2  501    0 -0.11995328231E+02 -0.32442828745E+02  0.15011095143E+02  0.37706206568E+02  0.00000000000E+00 0. -1.
         -2    1    1    2    0  503 -0.71256493986E+01  0.19945273963E+02 -0.50717588616E+01  0.21778695341E+02  0.00000000000E+00 0.  1.
<mgrwt>
<rscale>  2 0.69684816E+02</rscale>
<asrwt>0</asrwt>
<pdfrwt beam="1">  1       21 0.15168827E-01 0.69684816E+02</pdfrwt>
<pdfrwt beam="2">  1       21 0.80188713E-02 0.69684816E+02</pdfrwt>
<totfact> 0.43652517E+06</totfact>
</mgrwt>
</event>
<event>
 5    1  0.1595802E+000  0.1512472E+03  0.7546771E-02  0.1198949E+00
         21   -1    0    0  501  502  0.00000000000E+00  0.00000000000E+00  0.33527087706E+03  0.33527087706E+03  0.00000000000E+00 0. -1.
         21   -1    0    0  502  503 -0.00000000000E+00 -0.00000000000E+00 -0.11435166223E+03  0.11435166223E+03  0.00000000000E+00 0.  1.
         24    1    1    2    0    0  0.16888921242E+02 -0.10210950120E+03  0.19900990978E+02  0.13257017497E+03  0.80419002446E+02 0.  1.
          1    1    1    2  501    0 -0.30606774056E+02 -0.27467896958E+02  0.18052393887E+03  0.18514900077E+03  0.00000000000E+00 0. -1.
         -2    1    1    2    0  503  0.13717852814E+02  0.12957739816E+03  0.20494284986E+02  0.13190336355E+03  0.00000000000E+00 0.  1.
<mgrwt>
<rscale>  2 0.15124718E+03</rscale>
<asrwt>0</asrwt>
<pdfrwt beam="1">  1       21 0.51580134E-01 0.15124718E+03</pdfrwt>
<pdfrwt beam="2">  1       21 0.17592564E-01 0.15124718E+03</pdfrwt>
<totfact> 0.10623499E+05</totfact>
</mgrwt>
</event>
<event>
 5    1  0.1595802E+000  0.8725539E+02  0.7546771E-02  0.1309638E+00
         21   -1    0    0  501  502  0.00000000000E+00  0.00000000000E+00  0.57763327480E+03  0.57763327480E+03  0.00000000000E+00 0.  1.
         21   -1    0    0  502  503 -0.00000000000E+00 -0.00000000000E+00 -0.19595556976E+02  0.19595556976E+02  0.00000000000E+00 0. -1.
         24    1    1    2    0    0 -0.89191355925E+01  0.49260526154E+02  0.12469347624E+03  0.15659447432E+03  0.80419002446E+02 0.  0.
          1    1    1    2  501    0 -0.14317469096E+02 -0.54172713112E+02  0.29803120301E+03  0.30325281654E+03  0.00000000000E+00 0. -1.
         -2    1    1    2    0  503  0.23236604688E+02  0.49121869584E+01  0.13531303858E+03  0.13738154092E+03  0.00000000000E+00 0.  1.
<mgrwt>
<rscale>  2 0.87255391E+02</rscale>
<asrwt>0</asrwt>
<pdfrwt beam="1">  1       21 0.88866644E-01 0.87255391E+02</pdfrwt>
<pdfrwt beam="2">  1       21 0.30147015E-02 0.87255391E+02</pdfrwt>
<totfact> 0.68571064E+05</totfact>
</mgrwt>
</event>
<event>
 5    1  0.1595802E+000  0.1201664E+03  0.7546771E-02  0.1242823E+00
         21   -1    0    0  501  502  0.00000000000E+00  0.00000000000E+00  0.72240676987E+02  0.72240676987E+02  0.00000000000E+00 0.  1.
         21   -1    0    0  502  503 -0.00000000000E+00 -0.00000000000E+00 -0.22802873652E+03  0.22802873652E+03  0.00000000000E+00 0. -1.
         24    1    1    2    0    0  0.81752429557E+02 -0.63277824454E+02 -0.88950691974E+02  0.15832556446E+03  0.80419002446E+02 0.  0.
          1    1    1    2  501    0 -0.82146982916E+01  0.25281552356E+02  0.10577610414E+02  0.28609858434E+02  0.00000000000E+00 0. -1.
         -2    1    1    2    0  503 -0.73537731265E+02  0.37996272098E+02 -0.77414977975E+02  0.11333399061E+03  0.00000000000E+00 0.  1.
<mgrwt>
<rscale>  2 0.12016636E+03</rscale>
<asrwt>0</asrwt>
<pdfrwt beam="1">  1       21 0.11113950E-01 0.12016636E+03</pdfrwt>
<pdfrwt beam="2">  1       21 0.35081344E-01 0.12016636E+03</pdfrwt>
<totfact> 0.53139006E+05</totfact>
</mgrwt>
</event>
<event>
 5    1  0.1595802E+000  0.1103026E+03  0.7546771E-02  0.1260011E+00
         21   -1    0    0  501  502  0.00000000000E+00  0.00000000000E+00  0.86300645918E+02  0.86300645918E+02  0.00000000000E+00 0.  1.
         21   -1    0    0  502  503 -0.00000000000E+00 -0.00000000000E+00 -0.17017086828E+03  0.17017086828E+03  0.00000000000E+00 0. -1.
         24    1    1    2    0    0 -0.30199963874E+02  0.12766755560E+02 -0.45508832759E+02  0.98047425662E+02  0.80419002446E+02 0. -1.
          1    1    1    2  501    0  0.81529794359E+01 -0.71013250157E+02  0.18776876463E+02  0.73904829756E+02  0.00000000000E+00 0. -1.
         -2    1    1    2    0  503  0.22046984438E+02  0.58246494597E+02 -0.57138266068E+02  0.84519258781E+02  0.00000000000E+00 0.  1.
<mgrwt>
<rscale>  2 0.11030261E+03</rscale>
<asrwt>0</asrwt>
<pdfrwt beam="1">  1       21 0.13277022E-01 0.11030261E+03</pdfrwt>
<pdfrwt beam="2">  1       21 0.26180134E-01 0.11030261E+03</pdfrwt>
<totfact> 0.68190851E+05</totfact>
</mgrwt>
</event>
<event>
 5    1  0.1595802E+000  0.7188352E+02  0.7546771E-02  0.1353803E+00
         21   -1    0    0  501  502  0.00000000000E+00  0.00000000000E+00  0.45750467518E+03  0.45750467518E+03  0.00000000000E+00 0.  1.
         21   -1    0    0  502  503 -0.00000000000E+00 -0.00000000000E+00 -0.19370233454E+02  0.19370233454E+02  0.00000000000E+00 0. -1.
         24    1    1    2    0    0  0.88732154021E+01  0.25947690708E+02  0.13088008010E+03  0.15604110973E+03  0.80419002446E+02 0. -1.
          1    1    1    2  501    0  0.89145239922E+01 -0.36866760216E+02  0.29326471122E+03  0.29570731745E+03  0.00000000000E+00 0. -1.
         -2    1    1    2    0  503 -0.17787739394E+02  0.10919069509E+02  0.13989650408E+02  0.25126481453E+02  0.00000000000E+00 0.  1.
<mgrwt>
<rscale>  2 0.71883523E+02</rscale>
<asrwt>0</asrwt>
<pdfrwt beam="1">  1       21 0.70385326E-01 0.71883523E+02</pdfrwt>
<pdfrwt beam="2">  1       21 0.29800363E-02 0.71883523E+02</pdfrwt>
<totfact> 0.11628461E+06</totfact>
</mgrwt>
</event>
<event>
 5    1  0.1595802E+000  0.6238674E+02  0.7546771E-02  0.1388080E+00
         21   -1    0    0  503  502  0.00000000000E+00  0.00000000000E+00  0.46482540587E+02  0.46482540587E+02  0.00000000000E+00 0.  1.
         21   -1    0    0  501  503 -0.00000000000E+00 -0.00000000000E+00 -0.13084720363E+03  0.13084720363E+03  0.00000000000E+00 0.  1.
         24    1    1    2    0    0 -0.67321052787E+01  0.85596770515E+01 -0.33451766155E+02  0.87777137832E+02  0.80419002446E+02 0.  0.
          1    1    1    2  501    0  0.16687590080E+02  0.12150043210E+02 -0.61044248839E+02  0.64439890821E+02  0.00000000000E+00 0. -1.
         -2    1    1    2    0  502 -0.99554848017E+01 -0.20709720261E+02  0.10131351947E+02  0.25112715568E+02  0.00000000000E+00 0.  1.
<mgrwt>
<rscale>  2 0.62386743E+02</rscale>
<asrwt>0</asrwt>
<pdfrwt beam="1">  1       21 0.71511602E-02 0.62386743E+02</pdfrwt>
<pdfrwt beam="2">  1       21 0.20130339E-01 0.62386743E+02</pdfrwt>
<totfact> 0.31652327E+06</totfact>
</mgrwt>
</event>
<event>
 5    1  0.1595802E+000  0.8287949E+02  0.7546771E-02  0.1321073E+00
         21   -1    0    0  503  502  0.00000000000E+00  0.00000000000E+00  0.20401743592E+03  0.20401743592E+03  0.00000000000E+00 0.  1.
         21   -1    0    0  501  503 -0.00000000000E+00 -0.00000000000E+00 -0.14616130239E+03  0.14616130239E+03  0.00000000000E+00 0. -1.
         24    1    1    2    0    0 -0.59319436720E+02 -0.22144442062E+02  0.27761801954E+02  0.10605237145E+03  0.80419002446E+02 0.  1.
          1    1    1    2  501    0  0.21877779237E+02  0.98834808428E+01 -0.10277365643E+03  0.10554025239E+03  0.00000000000E+00 0. -1.
         -2    1    1    2    0  502  0.37441657483E+02  0.12260961219E+02  0.13286798801E+03  0.13858611447E+03  0.00000000000E+00 0.  1.
<mgrwt>
<rscale>  2 0.82879492E+02</rscale>
<asrwt>0</asrwt>
<pdfrwt beam="1">  1       21 0.31387298E-01 0.82879492E+02</pdfrwt>
<pdfrwt beam="2">  1       21 0.22486354E-01 0.82879492E+02</pdfrwt>
<totfact> 0.18662547E+05</totfact>
</mgrwt>
</event>
<event>
 5    1  0.1595802E+000  0.9618386E+02  0.7546771E-02  0.1288532E+00
         21   -1    0    0  501  502  0.00000000000E+00  0.00000000000E+00  0.13032296525E+02  0.13032296525E+02  0.00000000000E+00 0. -1.
         21   -1    0    0  502  503 -0.00000000000E+00 -0.00000000000E+00 -0.15096178385E+04  0.15096178385E+04  0.00000000000E+00 0.  1.
         24    1    1    2    0    0  0.34804571079E+02  0.11708688960E+02 -0.18265814747E+03  0.20292773679E+03  0.80419002446E+02 0. -1.
          1    1    1    2  501    0 -0.18378212291E+02  0.43041098537E+02 -0.25538607652E+03  0.25963887023E+03  0.00000000000E+00 0. -1.
         -2    1    1    2    0  503 -0.16426358788E+02 -0.54749787497E+02 -0.10585413180E+04  0.10600835280E+04  0.00000000000E+00 0.  1.
<mgrwt>
<rscale>  2 0.96183858E+02</rscale>
<asrwt>0</asrwt>
<pdfrwt beam="1">  1       21 0.20049676E-02 0.96183858E+02</pdfrwt>
<pdfrwt beam="2">  1       21 0.23224902E+00 0.96183858E+02</pdfrwt>
<totfact> 0.11196935E+05</totfact>
</mgrwt>
</event>
<event>
 5    1  0.1595802E+000  0.9122351E+02  0.7546771E-02  0.1299916E+00
         21   -1    0    0  501  502  0.00000000000E+00  0.00000000000E+00  0.47379505239E+03  0.47379505239E+03  0.00000000000E+00 0. -1.
         21   -1    0    0  502  503 -0.00000000000E+00 -0.00000000000E+00 -0.27040988534E+02  0.27040988534E+02  0.00000000000E+00 0. -1.
         24    1    1    2    0    0  0.67947202502E+02 -0.14977515412E+02  0.14058125110E+03  0.17627096304E+03  0.80419002446E+02 0. -1.
          1    1    1    2  501    0 -0.41921092027E+02 -0.64244357313E+01  0.27629441220E+03  0.27953041614E+03  0.00000000000E+00 0. -1.
         -2    1    1    2    0  503 -0.26026110474E+02  0.21401951144E+02  0.29878400561E+02  0.45034661754E+02  0.00000000000E+00 0.  1.
<mgrwt>
<rscale>  2 0.91223514E+02</rscale>
<asrwt>0</asrwt>
<pdfrwt beam="1">  1       21 0.72891540E-01 0.91223514E+02</pdfrwt>
<pdfrwt beam="2">  1       21 0.41601524E-02 0.91223514E+02</pdfrwt>
<totfact> 0.62743996E+05</totfact>
</mgrwt>
</event>
<event>
 5    1  0.1595802E+000  0.8985351E+02  0.7546771E-02  0.1303207E+00
         21   -1    0    0  501  502  0.00000000000E+00  0.00000000000E+00  0.23013799461E+03  0.23013799461E+03  0.00000000000E+00 0. -1.
         21   -1    0    0  502  503 -0.00000000000E+00 -0.00000000000E+00 -0.42988482694E+02  0.42988482694E+02  0.00000000000E+00 0.  1.
         24    1    1    2    0    0  0.68811629909E+01  0.55318503075E+02  0.90098702097E+02  0.13301307928E+03  0.80419002446E+02 0.  1.
          1    1    1    2  501    0 -0.19622695430E+02  0.49651635442E+01  0.69917017002E+02  0.72787995518E+02  0.00000000000E+00 0. -1.
         -2    1    1    2    0  503  0.12741532439E+02 -0.60283666619E+02  0.27133792819E+02  0.67325402507E+02  0.00000000000E+00 0.  1.
<mgrwt>
<rscale>  2 0.89853506E+02</rscale>
<asrwt>0</asrwt>
<pdfrwt beam="1">  1       21 0.35405845E-01 0.89853506E+02</pdfrwt>
<pdfrwt beam="2">  1       21 0.66136129E-02 0.89853506E+02</pdfrwt>
<totfact> 0.12731424E+06</totfact>
</mgrwt>
</event>
<event>
 5    1  0.1595802E+000  0.7322780E+02  0.7546771E-02  0.1349448E+00
         21   -1    0    0  503  502  0.00000000000E+00  0.00000000000E+00  0.99959840295E+01  0.99959840295E+01  0.00000000000E+00 0. -1.
         21   -1    0    0  501  503 -0.00000000000E+00 -0.00000000000E+00 -0.64387092603E+03  0.64387092603E+03  0.00000000000E+00 0.  1.
         24    1    1    2    0    0 -0.52085904260E+01 -0.17395989901E+02 -0.48151772849E+03  0.48852460397E+03  0.80419002446E+02 0.  1.
          1    1    1    2  501    0  0.24422596770E+02 -0.13291780337E+02 -0.72980430744E+02  0.78097874037E+02  0.00000000000E+00 0. -1.
         -2    1    1    2    0  502 -0.19214006344E+02  0.30687770238E+02 -0.79376782770E+02  0.87244432057E+02  0.00000000000E+00 0.  1.
<mgrwt>
<rscale>  2 0.73227802E+02</rscale>
<asrwt>0</asrwt>
<pdfrwt beam="1">  1       21 0.15378431E-02 0.73227802E+02</pdfrwt>
<pdfrwt beam="2">  1       21 0.99057103E-01 0.73227802E+02</pdfrwt>
<totfact> 0.15691561E+06</totfact>
</mgrwt>
</event>
<event>
 5    1  0.1595802E+000  0.1425478E+03  0.7546771E-02  0.1209941E+00
         21   -1    0    0  501  502  0.00000000000E+00  0.00000000000E+00  0.64085921314E+02  0.64085921314E+02  0.00000000000E+00 0.  1.
         21   -1    0    0  502  503 -0.00000000000E+00 -0.00000000000E+00 -0.66708143867E+03  0.66708143867E+03  0.00000000000E+00 0.  1.
         24    1    1    2    0    0 -0.12456154897E+03 -0.25319583141E+02 -0.10549863760E+03  0.18372217956E+03  0.80419002446E+02 0.  1.
          1    1    1    2  501    0  0.48033075322E+02 -0.12045029490E+02 -0.74789872630E+01  0.50081876071E+02  0.00000000000E+00 0. -1.
         -2    1    1    2    0  503  0.76528473647E+02  0.37364612631E+02 -0.49001789249E+03  0.49736330435E+03  0.00000000000E+00 0.  1.
<mgrwt>
<rscale>  2 0.14254778E+03</rscale>
<asrwt>0</asrwt>
<pdfrwt beam="1">  1       21 0.98593720E-02 0.14254778E+03</pdfrwt>
<pdfrwt beam="2">  1       21 0.10262792E+00 0.14254778E+03</pdfrwt>
<totfact> 0.65785142E+04</totfact>
</mgrwt>
</event>
<event>
 5    1  0.1595802E+000  0.8878137E+02  0.7546771E-02  0.1305830E+00
         21   -1    0    0  503  502  0.00000000000E+00  0.00000000000E+00  0.53122007799E+02  0.53122007799E+02  0.00000000000E+00 0.  1.
         21   -1    0    0  501  503 -0.00000000000E+00 -0.00000000000E+00 -0.15169903488E+03  0.15169903488E+03  0.00000000000E+00 0. -1.
         24    1    1    2    0    0 -0.68329699457E+02  0.17641234330E+02 -0.51935919485E+02  0.11893156294E+03  0.80419002446E+02 0.  0.
          1    1    1    2  501    0  0.46073503728E+02 -0.11846533176E+02 -0.39426007054E+02  0.61786067412E+02  0.00000000000E+00 0. -1.
         -2    1    1    2    0  502  0.22256195729E+02 -0.57947011533E+01 -0.72151005390E+01  0.24103412322E+02  0.00000000000E+00 0.  1.
<mgrwt>
<rscale>  2 0.88781371E+02</rscale>
<asrwt>0</asrwt>
<pdfrwt beam="1">  1       21 0.81726165E-02 0.88781371E+02</pdfrwt>
<pdfrwt beam="2">  1       21 0.23338313E-01 0.88781371E+02</pdfrwt>
<totfact> 0.19610913E+06</totfact>
</mgrwt>
</event>
<event>
 5    1  0.1595802E+000  0.9458801E+02  0.7546771E-02  0.1292107E+00
         21   -1    0    0  501  502  0.00000000000E+00  0.00000000000E+00  0.95500020203E+02  0.95500020203E+02  0.00000000000E+00 0. -1.
         21   -1    0    0  502  503 -0.00000000000E+00 -0.00000000000E+00 -0.11718875139E+03  0.11718875139E+03  0.00000000000E+00 0.  1.
         24    1    1    2    0    0 -0.20194211525E+01 -0.46523452525E+02 -0.39439113518E+02  0.10095132157E+03  0.80419002446E+02 0.  1.
          1    1    1    2  501    0  0.17991814277E+02 -0.20541456636E+02  0.31237137038E+02  0.41489945193E+02  0.00000000000E+00 0. -1.
         -2    1    1    2    0  503 -0.15972393125E+02  0.67064909161E+02 -0.13486754709E+02  0.70247504835E+02  0.00000000000E+00 0.  1.
<mgrwt>
<rscale>  2 0.94588009E+02</rscale>
<asrwt>0</asrwt>
<pdfrwt beam="1">  1       21 0.14692311E-01 0.94588009E+02</pdfrwt>
<pdfrwt beam="2">  1       21 0.18029039E-01 0.94588009E+02</pdfrwt>
<totfact> 0.11339214E+06</totfact>
</mgrwt>
</event>
<event>
 5    1  0.1595802E+000  0.7418052E+02  0.7546771E-02  0.1346428E+00
         21   -1    0    0  501  502  0.00000000000E+00  0.00000000000E+00  0.42459644424E+03  0.42459644424E+03  0.00000000000E+00 0. -1.
         21   -1    0    0  502  503 -0.00000000000E+00 -0.00000000000E+00 -0.19608832205E+02  0.19608832205E+02  0.00000000000E+00 0. -1.
         24    1    1    2    0    0 -0.40592676465E+02 -0.33083137731E+02  0.13017398933E+03  0.16172428030E+03  0.80419002446E+02 0. -1.
          1    1    1    2  501    0  0.19221576443E+02  0.14555588185E+02  0.21465683547E+03  0.21600669240E+03  0.00000000000E+00 0. -1.
         -2    1    1    2    0  503  0.21371100022E+02  0.18527549546E+02  0.60156787228E+02  0.66474303742E+02  0.00000000000E+00 0.  1.
<mgrwt>
<rscale>  2 0.74180524E+02</rscale>
<asrwt>0</asrwt>
<pdfrwt beam="1">  1       21 0.65322523E-01 0.74180524E+02</pdfrwt>
<pdfrwt beam="2">  1       21 0.30167437E-02 0.74180524E+02</pdfrwt>
<totfact> 0.13378127E+06</totfact>
</mgrwt>
</event>
<event>
 5    1  0.1595802E+000  0.7643147E+02  0.7546771E-02  0.1339495E+00
         21   -1    0    0  501  502  0.00000000000E+00  0.00000000000E+00  0.26292339213E+03  0.26292339213E+03  0.00000000000E+00 0.  1.
         21   -1    0    0  502  503 -0.00000000000E+00 -0.00000000000E+00 -0.22635856073E+02  0.22635856073E+02  0.00000000000E+00 0. -1.
         24    1    1    2    0    0 -0.11485782340E+02 -0.93281817308E+01  0.12287631425E+03  0.14759655392E+03  0.80419002446E+02 0. -1.
          1    1    1    2  501    0  0.79511109623E+01 -0.30291164019E+02  0.65148398559E+02  0.72284774454E+02  0.00000000000E+00 0. -1.
         -2    1    1    2    0  503  0.35346713774E+01  0.39619345749E+02  0.52262823246E+02  0.65677919828E+02  0.00000000000E+00 0.  1.
<mgrwt>
<rscale>  2 0.76431469E+02</rscale>
<asrwt>0</asrwt>
<pdfrwt beam="1">  1       21 0.40449751E-01 0.76431469E+02</pdfrwt>
<pdfrwt beam="2">  1       21 0.34824396E-02 0.76431469E+02</pdfrwt>
<totfact> 0.28222647E+06</totfact>
</mgrwt>
</event>
<event>
 5    1  0.1595802E+000  0.1286385E+03  0.7546771E-02  0.1229490E+00
         21   -1    0    0  501  502  0.00000000000E+00  0.00000000000E+00  0.24144917445E+03  0.24144917445E+03  0.00000000000E+00 0.  1.
         21   -1    0    0  502  503 -0.00000000000E+00 -0.00000000000E+00 -0.41309191119E+03  0.41309191119E+03  0.00000000000E+00 0.  1.
         24    1    1    2    0    0 -0.10978404408E+03 -0.33893053715E+02  0.68542497346E+02  0.15609793503E+03  0.80419002446E+02 0.  1.
          1    1    1    2  501    0  0.32439336876E+02 -0.36271896432E+00  0.12213967264E+03  0.12637460890E+03  0.00000000000E+00 0. -1.
         -2    1    1    2    0  503  0.77344707202E+02  0.34255772680E+02 -0.36232490672E+03  0.37206854170E+03  0.00000000000E+00 0.  1.
<mgrwt>
<rscale>  2 0.12863845E+03</rscale>
<asrwt>0</asrwt>
<pdfrwt beam="1">  1       21 0.37146027E-01 0.12863845E+03</pdfrwt>
<pdfrwt beam="2">  1       21 0.63552602E-01 0.12863845E+03</pdfrwt>
<totfact> 0.16713927E+04</totfact>
</mgrwt>
</event>
<event>
 5    1  0.1595802E+000  0.8709449E+02  0.7546771E-02  0.1310044E+00
         21   -1    0    0  503  502  0.00000000000E+00  0.00000000000E+00  0.14758323773E+03  0.14758323773E+03  0.00000000000E+00 0. -1.
         21   -1    0    0  501  503 -0.00000000000E+00 -0.00000000000E+00 -0.70410674062E+02  0.70410674062E+02  0.00000000000E+00 0. -1.
         24    1    1    2    0    0  0.54605069619E+02  0.32514833960E+02  0.50016195125E+02  0.11405158388E+03  0.80419002446E+02 0. -1.
          1    1    1    2  501    0 -0.35114687096E+02 -0.37700996050E+02 -0.17929015313E+02  0.54551406427E+02  0.00000000000E+00 0. -1.
         -2    1    1    2    0  502 -0.19490382523E+02  0.51861620897E+01  0.45085383852E+02  0.49390921486E+02  0.00000000000E+00 0.  1.
<mgrwt>
<rscale>  2 0.87094493E+02</rscale>
<asrwt>0</asrwt>
<pdfrwt beam="1">  1       21 0.22705113E-01 0.87094493E+02</pdfrwt>
<pdfrwt beam="2">  1       21 0.10832411E-01 0.87094493E+02</pdfrwt>
<totfact> 0.12685914E+06</totfact>
</mgrwt>
</event>
<event>
 5    1  0.1595802E+000  0.6332543E+02  0.7546771E-02  0.1384384E+00
         21   -1    0    0  503  502  0.00000000000E+00  0.00000000000E+00  0.10026567190E+03  0.10026567190E+03  0.00000000000E+00 0. -1.
         21   -1    0    0  501  503 -0.00000000000E+00 -0.00000000000E+00 -0.14265434034E+03  0.14265434034E+03  0.00000000000E+00 0. -1.
         24    1    1    2    0    0 -0.14924112171E+02 -0.11590572708E+02  0.77374462909E+02  0.11318610323E+03  0.80419002446E+02 0. -1.
          1    1    1    2  501    0  0.19576136016E+02 -0.99812721651E+01 -0.90227434665E+02  0.92864637303E+02  0.00000000000E+00 0. -1.
         -2    1    1    2    0  502 -0.46520238450E+01  0.21571844873E+02 -0.29535696691E+02  0.36869271706E+02  0.00000000000E+00 0.  1.
<mgrwt>
<rscale>  2 0.63325432E+02</rscale>
<asrwt>0</asrwt>
<pdfrwt beam="1">  1       21 0.15425488E-01 0.63325432E+02</pdfrwt>
<pdfrwt beam="2">  1       21 0.21946821E-01 0.63325432E+02</pdfrwt>
<totfact> 0.72049636E+05</totfact>
</mgrwt>
</event>
<event>
 5    1  0.1595802E+000  0.1081401E+03  0.7546771E-02  0.1264053E+00
         21   -1    0    0  501  502  0.00000000000E+00  0.00000000000E+00  0.47968606052E+02  0.47968606052E+02  0.00000000000E+00 0. -1.
         21   -1    0    0  502  503 -0.00000000000E+00 -0.00000000000E+00 -0.24704587908E+03  0.24704587908E+03  0.00000000000E+00 0. -1.
         24    1    1    2    0    0  0.26537700462E+02 -0.78886866097E+02 -0.11116841393E+03  0.16047747318E+03  0.80419002446E+02 0. -1.
          1    1    1    2  501    0  0.11521054879E+02  0.53664640801E+02 -0.37221312676E+02  0.66317829391E+02  0.00000000000E+00 0. -1.
         -2    1    1    2    0  503 -0.38058755341E+02  0.25222225296E+02 -0.50687546425E+02  0.68219182563E+02  0.00000000000E+00 0.  1.
<mgrwt>
<rscale>  2 0.10814011E+03</rscale>
<asrwt>0</asrwt>
<pdfrwt beam="1">  1       21 0.73797856E-02 0.10814011E+03</pdfrwt>
<pdfrwt beam="2">  1       21 0.38007058E-01 0.10814011E+03</pdfrwt>
<totfact> 0.92261112E+05</totfact>
</mgrwt>
</event>
<event>
 5    1  0.1595802E+000  0.6303550E+02  0.7546771E-02  0.1385517E+00
         21   -1    0    0  501  502  0.00000000000E+00  0.00000000000E+00  0.18244453436E+03  0.18244453436E+03  0.00000000000E+00 0.  1.
         21   -1    0    0  502  503 -0.00000000000E+00 -0.00000000000E+00 -0.12737101456E+03  0.12737101456E+03  0.00000000000E+00 0. -1.
         24    1    1    2    0    0  0.13594898550E+01  0.61540875634E+01  0.12216348079E+03  0.14639280378E+03  0.80419002446E+02 0.  1.
          1    1    1    2  501    0 -0.22986168553E+02 -0.25085124512E+00  0.44241228185E+02  0.49856926724E+02  0.00000000000E+00 0. -1.
         -2    1    1    2    0  503  0.21626678698E+02 -0.59032363183E+01 -0.11133118917E+03  0.11356581841E+03  0.00000000000E+00 0.  1.
<mgrwt>
<rscale>  2 0.63035503E+02</rscale>
<asrwt>0</asrwt>
<pdfrwt beam="1">  1       21 0.28068390E-01 0.63035503E+02</pdfrwt>
<pdfrwt beam="2">  1       21 0.19595541E-01 0.63035503E+02</pdfrwt>
<totfact> 0.29793079E+05</totfact>
</mgrwt>
</event>
<event>
 5    1  0.1595802E+000  0.8172887E+02  0.7546771E-02  0.1324216E+00
         21   -1    0    0  503  502  0.00000000000E+00  0.00000000000E+00  0.11871774001E+02  0.11871774001E+02  0.00000000000E+00 0.  1.
         21   -1    0    0  501  503 -0.00000000000E+00 -0.00000000000E+00 -0.73935683197E+03  0.73935683197E+03  0.00000000000E+00 0. -1.
         24    1    1    2    0    0  0.19932147924E+02 -0.24575313192E+02 -0.20331388768E+03  0.22091851307E+03  0.80419002446E+02 0.  0.
          1    1    1    2  501    0  0.13121579785E+02 -0.18537771356E+02 -0.23381354681E+03  0.23491402575E+03  0.00000000000E+00 0. -1.
         -2    1    1    2    0  502 -0.33053727709E+02  0.43113084548E+02 -0.29035762349E+03  0.29539606716E+03  0.00000000000E+00 0.  1.
<mgrwt>
<rscale>  2 0.81728867E+02</rscale>
<asrwt>0</asrwt>
<pdfrwt beam="1">  1       21 0.18264269E-02 0.81728867E+02</pdfrwt>
<pdfrwt beam="2">  1       21 0.11374720E+00 0.81728867E+02</pdfrwt>
<totfact> 0.86728638E+05</totfact>
</mgrwt>
</event>
<event>
 5    1  0.1595802E+000  0.1118233E+03  0.7546771E-02  0.1257230E+00
         21   -1    0    0  501  502  0.00000000000E+00  0.00000000000E+00  0.95953734753E+02  0.95953734753E+02  0.00000000000E+00 0. -1.
         21   -1    0    0  502  503 -0.00000000000E+00 -0.00000000000E+00 -0.19993139525E+03  0.19993139525E+03  0.00000000000E+00 0.  1.
         24    1    1    2    0    0  0.44096928836E+02 -0.75011307493E+01 -0.13232317587E+03  0.16117519946E+03  0.80419002446E+02 0.  1.
          1    1    1    2  501    0 -0.31089634871E+02  0.65330426037E+02  0.13408053411E+02  0.73582646452E+02  0.00000000000E+00 0. -1.
         -2    1    1    2    0  503 -0.13007293965E+02 -0.57829295288E+02  0.14937461964E+02  0.61127284086E+02  0.00000000000E+00 0.  1.
<mgrwt>
<rscale>  2 0.11182334E+03</rscale>
<asrwt>0</asrwt>
<pdfrwt beam="1">  1       21 0.14762113E-01 0.11182334E+03</pdfrwt>
<pdfrwt beam="2">  1       21 0.30758676E-01 0.11182334E+03</pdfrwt>
<totfact> 0.41479568E+05</totfact>
</mgrwt>
</event>
<event>
 5    1  0.2296408E+000  0.6560989E+02  0.7546771E-02  0.1375692E+00
         21   -1    0    0  503  502  0.00000000000E+00  0.00000000000E+00  0.18213380778E+03  0.18213380778E+03  0.00000000000E+00 0. -1.
         21   -1    0    0  501  503 -0.00000000000E+00 -0.00000000000E+00 -0.46125199314E+03  0.46125199314E+03  0.00000000000E+00 0. -1.
         24    1    1    2    0    0 -0.70518581029E+01  0.72386573366E+01  0.64101279271E+02  0.10333594158E+03  0.80419002446E+02 0. -1.
          1    1    1    2  501    0  0.50305112129E+01 -0.28434614125E+02 -0.44000420464E+03  0.44095071541E+03  0.00000000000E+00 0. -1.
         -2    1    1    2    0  502  0.20213468900E+01  0.21195956788E+02  0.96784740008E+02  0.99099143921E+02  0.00000000000E+00 0.  1.
<mgrwt>
<rscale>  2 0.65609888E+02</rscale>
<asrwt>0</asrwt>
<pdfrwt beam="1">  1       21 0.28020586E-01 0.65609888E+02</pdfrwt>
<pdfrwt beam="2">  1       21 0.70961845E-01 0.65609888E+02</pdfrwt>
<totfact> 0.24220241E+04</totfact>
</mgrwt>
</event>
<event>
 5    1  0.1595802E+000  0.7246951E+02  0.7546771E-02  0.1351891E+00
         21   -1    0    0  503  502  0.00000000000E+00  0.00000000000E+00  0.35819239297E+03  0.35819239297E+03  0.00000000000E+00 0.  1.
         21   -1    0    0  501  503 -0.00000000000E+00 -0.00000000000E+00 -0.17854763608E+02  0.17854763608E+02  0.00000000000E+00 0.  1.
         24    1    1    2    0    0  0.19359474571E+02 -0.33571796664E+02  0.15036523211E+03  0.17486787518E+03  0.80419002446E+02 0.  1.
          1    1    1    2  501    0  0.85342869697E+01  0.25109529430E+02  0.37406736811E+02  0.45853969088E+02  0.00000000000E+00 0. -1.
         -2    1    1    2    0  502 -0.27893761541E+02  0.84622672349E+01  0.15256566044E+03  0.15532531231E+03  0.00000000000E+00 0.  1.
<mgrwt>
<rscale>  2 0.72469506E+02</rscale>
<asrwt>0</asrwt>
<pdfrwt beam="1">  1       21 0.55106517E-01 0.72469506E+02</pdfrwt>
<pdfrwt beam="2">  1       21 0.27468870E-02 0.72469506E+02</pdfrwt>
<totfact> 0.22176576E+06</totfact>
</mgrwt>
</event>
<event>
 5    1  0.1595802E+000  0.8816157E+02  0.7546771E-02  0.1307366E+00
         21   -1    0    0  501  502  0.00000000000E+00  0.00000000000E+00  0.40231435019E+03  0.40231435019E+03  0.00000000000E+00 0. -1.
         21   -1    0    0  502  503 -0.00000000000E+00 -0.00000000000E+00 -0.20370518127E+02  0.20370518127E+02  0.00000000000E+00 0.  1.
         24    1    1    2    0    0 -0.17617656104E+01 -0.96361011696E+01  0.18488412225E+03  0.20185468258E+03  0.80419002446E+02 0.  0.
          1    1    1    2  501    0  0.47796611436E+02 -0.19601377066E+01  0.13116300034E+03  0.13961407831E+03  0.00000000000E+00 0. -1.
         -2    1    1    2    0  503 -0.46034845826E+02  0.11596238876E+02  0.65896709470E+02  0.81216107425E+02  0.00000000000E+00 0.  1.
<mgrwt>
<rscale>  2 0.88161572E+02</rscale>
<asrwt>0</asrwt>
<pdfrwt beam="1">  1       21 0.61894510E-01 0.88161572E+02</pdfrwt>
<pdfrwt beam="2">  1       21 0.31339262E-02 0.88161572E+02</pdfrwt>
<totfact> 0.14158918E+06</totfact>
</mgrwt>
</event>
<event>
 5    1  0.1595802E+000  0.9022245E+02  0.7546771E-02  0.1302314E+00
         21   -1    0    0  501  502  0.00000000000E+00  0.00000000000E+00  0.19089062365E+03  0.19089062365E+03  0.00000000000E+00 0.  1.
         21   -1    0    0  502  503 -0.00000000000E+00 -0.00000000000E+00 -0.71447490280E+02  0.71447490280E+02  0.00000000000E+00 0. -1.
         24    1    1    2    0    0  0.12402551484E+02  0.54954851949E+02 -0.15825271873E+02  0.99456091921E+02  0.80419002446E+02 0. -1.
          1    1    1    2  501    0  0.24183340436E+02 -0.17153890029E+02  0.85380469333E+02  0.90382047118E+02  0.00000000000E+00 0. -1.
         -2    1    1    2    0  503 -0.36585891921E+02 -0.37800961920E+02  0.49887935907E+02  0.72499974888E+02  0.00000000000E+00 0.  1.
<mgrwt>
<rscale>  2 0.90222446E+02</rscale>
<asrwt>0</asrwt>
<pdfrwt beam="1">  1       21 0.29367788E-01 0.90222446E+02</pdfrwt>
<pdfrwt beam="2">  1       21 0.10991922E-01 0.90222446E+02</pdfrwt>
<totfact> 0.76353541E+05</totfact>
</mgrwt>
</event>
<event>
 5    1  0.1595802E+000  0.7050233E+02  0.7546771E-02  0.1358393E+00
         21   -1    0    0  503  502  0.00000000000E+00  0.00000000000E+00  0.21285109998E+03  0.21285109998E+03  0.00000000000E+00 0.  1.
         21   -1    0    0  501  503 -0.00000000000E+00 -0.00000000000E+00 -0.59162253992E+02  0.59162253992E+02  0.00000000000E+00 0. -1.
         24    1    1    2    0    0 -0.20523317229E+02  0.10090616402E+02 -0.11770256317E+01  0.83615958006E+02  0.80419002446E+02 0.  0.
          1    1    1    2  501    0  0.21865575407E+02 -0.30176893755E+02  0.54864727681E+01  0.37667621215E+02  0.00000000000E+00 0. -1.
         -2    1    1    2    0  502 -0.13422581775E+01  0.20086277353E+02  0.14937939885E+03  0.15072977475E+03  0.00000000000E+00 0.  1.
<mgrwt>
<rscale>  2 0.70502331E+02</rscale>
<asrwt>0</asrwt>
<pdfrwt beam="1">  1       21 0.32746323E-01 0.70502331E+02</pdfrwt>
<pdfrwt beam="2">  1       21 0.91018853E-02 0.70502331E+02</pdfrwt>
<totfact> 0.85536807E+05</totfact>
</mgrwt>
</event>
<event>
 5    1  0.1595802E+000  0.7334128E+02  0.7546771E-02  0.1349086E+00
         21   -1    0    0  501  502  0.00000000000E+00  0.00000000000E+00  0.90156822278E+02  0.90156822278E+02  0.00000000000E+00 0. -1.
         21   -1    0    0  502  503 -0.00000000000E+00 -0.00000000000E+00 -0.13071244703E+03  0.13071244703E+03  0.00000000000E+00 0. -1.
         24    1    1    2    0    0 -0.12374736462E+02 -0.31698354265E+02 -0.18208185950E+02  0.89200189213E+02  0.80419002446E+02 0. -1.
          1    1    1    2  501    0  0.29503247035E+02  0.88446727699E+01  0.47271072553E+02  0.56420068436E+02  0.00000000000E+00 0. -1.
         -2    1    1    2    0  503 -0.17128510573E+02  0.22853681496E+02 -0.69618511351E+02  0.75249011655E+02  0.00000000000E+00 0.  1.
<mgrwt>
<rscale>  2 0.73341280E+02</rscale>
<asrwt>0</asrwt>
<pdfrwt beam="1">  1       21 0.13870280E-01 0.73341280E+02</pdfrwt>
<pdfrwt beam="2">  1       21 0.20109607E-01 0.73341280E+02</pdfrwt>
<totfact> 0.10233389E+06</totfact>
</mgrwt>
</event>
<event>
 5    1  0.1595802E+000  0.6191388E+02  0.7546771E-02  0.1389971E+00
         21   -1    0    0  501  502  0.00000000000E+00  0.00000000000E+00  0.64969941465E+01  0.64969941465E+01  0.00000000000E+00 0. -1.
         21   -1    0    0  502  503 -0.00000000000E+00 -0.00000000000E+00 -0.92293078822E+03  0.92293078822E+03  0.00000000000E+00 0. -1.
         24    1    1    2    0    0 -0.25793964588E+01 -0.11832052288E+02 -0.29509934369E+03  0.30610045630E+03  0.80419002446E+02 0. -1.
          1    1    1    2  501    0 -0.17450787491E+02  0.13975949575E+02 -0.16014235454E+03  0.16169548809E+03  0.00000000000E+00 0. -1.
         -2    1    1    2    0  503  0.20030183950E+02 -0.21438972874E+01 -0.46119209585E+03  0.46163183798E+03  0.00000000000E+00 0.  1.
<mgrwt>
<rscale>  2 0.61913880E+02</rscale>
<asrwt>0</asrwt>
<pdfrwt beam="1">  1       21 0.99953718E-03 0.61913880E+02</pdfrwt>
<pdfrwt beam="2">  1       21 0.14198941E+00 0.61913880E+02</pdfrwt>
<totfact> 0.13027287E+06</totfact>
</mgrwt>
</event>
<event>
 5    1  0.1595802E+000  0.7289599E+02  0.7546771E-02  0.1350513E+00
         21   -1    0    0  501  502  0.00000000000E+00  0.00000000000E+00  0.85973897995E+02  0.85973897995E+02  0.00000000000E+00 0. -1.
         21   -1    0    0  502  503 -0.00000000000E+00 -0.00000000000E+00 -0.12479574161E+03  0.12479574161E+03  0.00000000000E+00 0.  1.
         24    1    1    2    0    0 -0.22936568927E+02  0.14875811419E+02  0.42380043687E+02  0.94924496400E+02  0.80419002446E+02 0.  0.
          1    1    1    2  501    0  0.40375977773E+02 -0.46652676767E+01 -0.10035611515E+02  0.41865233812E+02  0.00000000000E+00 0. -1.
         -2    1    1    2    0  503 -0.17439408846E+02 -0.10210543742E+02 -0.71166275787E+02  0.73979909393E+02  0.00000000000E+00 0.  1.
<mgrwt>
<rscale>  2 0.72895990E+02</rscale>
<asrwt>0</asrwt>
<pdfrwt beam="1">  1       21 0.13226754E-01 0.72895990E+02</pdfrwt>
<pdfrwt beam="2">  1       21 0.19199345E-01 0.72895990E+02</pdfrwt>
<totfact> 0.12100274E+06</totfact>
</mgrwt>
</event>
<event>
 5    1  0.1595802E+000  0.1006717E+03  0.7546771E-02  0.1278890E+00
         21   -1    0    0  503  502  0.00000000000E+00  0.00000000000E+00  0.36507163147E+03  0.36507163147E+03  0.00000000000E+00 0.  1.
         21   -1    0    0  501  503 -0.00000000000E+00 -0.00000000000E+00 -0.36597998773E+02  0.36597998773E+02  0.00000000000E+00 0. -1.
         24    1    1    2    0    0 -0.26458125224E+02 -0.19148833671E+02  0.23449025282E+03  0.25003920661E+03  0.80419002446E+02 0.  1.
          1    1    1    2  501    0  0.67704146747E+02  0.26395387697E+02  0.38865445116E+02  0.82408074862E+02  0.00000000000E+00 0. -1.
         -2    1    1    2    0  502 -0.41246021523E+02 -0.72465540261E+01  0.55117934760E+02  0.69222348768E+02  0.00000000000E+00 0.  1.
<mgrwt>
<rscale>  2 0.10067173E+03</rscale>
<asrwt>0</asrwt>
<pdfrwt beam="1">  1       21 0.56164864E-01 0.10067173E+03</pdfrwt>
<pdfrwt beam="2">  1       21 0.56304616E-02 0.10067173E+03</pdfrwt>
<totfact> 0.66037100E+05</totfact>
</mgrwt>
</event>
<event>
 5    1  0.1595802E+000  0.1021026E+03  0.7546771E-02  0.1275936E+00
         21   -1    0    0  503  502  0.00000000000E+00  0.00000000000E+00  0.54409775467E+02  0.54409775467E+02  0.00000000000E+00 0.  1.
         21   -1    0    0  501  503 -0.00000000000E+00 -0.00000000000E+00 -0.21246734388E+04  0.21246734388E+04  0.00000000000E+00 0. -1.
         24    1    1    2    0    0 -0.18510230036E+02 -0.62205602173E+02 -0.72129004452E+03  0.72865541227E+03  0.80419002446E+02 0.  1.
          1    1    1    2  501    0 -0.30347645363E+02  0.20457134107E+02 -0.13790058859E+04  0.13794914669E+04  0.00000000000E+00 0. -1.
         -2    1    1    2    0  502  0.48857875399E+02  0.41748468066E+02  0.30032267062E+02  0.70936335113E+02  0.00000000000E+00 0.  1.
<mgrwt>
<rscale>  2 0.10210260E+03</rscale>
<asrwt>0</asrwt>
<pdfrwt beam="1">  1       21 0.83707347E-02 0.10210260E+03</pdfrwt>
<pdfrwt beam="2">  1       21 0.32687284E+00 0.10210260E+03</pdfrwt>
<totfact> 0.30896258E+03</totfact>
</mgrwt>
</event>
<event>
 5    1  0.1595802E+000  0.1202580E+03  0.7546771E-02  0.1242672E+00
         21   -1    0    0  503  502  0.00000000000E+00  0.00000000000E+00  0.54619251149E+03  0.54619251149E+03  0.00000000000E+00 0.  1.
         21   -1    0    0  501  503 -0.00000000000E+00 -0.00000000000E+00 -0.54904361553E+02  0.54904361553E+02  0.00000000000E+00 0. -1.
         24    1    1    2    0    0  0.30752007693E+02  0.48720589982E+02  0.18556309202E+02  0.10065254309E+03  0.80419002446E+02 0. -1.
          1    1    1    2  501    0 -0.37182049782E+02 -0.91271601946E+02  0.18596169138E+03  0.21046320536E+03  0.00000000000E+00 0. -1.
         -2    1    1    2    0  502  0.64300420887E+01  0.42551011963E+02  0.28677014935E+03  0.28998112459E+03  0.00000000000E+00 0.  1.
<mgrwt>
<rscale>  2 0.12025797E+03</rscale>
<asrwt>0</asrwt>
<pdfrwt beam="1">  1       21 0.84029613E-01 0.12025797E+03</pdfrwt>
<pdfrwt beam="2">  1       21 0.84468252E-02 0.12025797E+03</pdfrwt>
<totfact> 0.13784385E+05</totfact>
</mgrwt>
</event>
<event>
 5    1  0.1595802E+000  0.6817240E+02  0.7546771E-02  0.1366421E+00
         21   -1    0    0  503  502  0.00000000000E+00  0.00000000000E+00  0.42813736865E+01  0.42813736865E+01  0.00000000000E+00 0.  1.
         21   -1    0    0  501  503 -0.00000000000E+00 -0.00000000000E+00 -0.14106576447E+04  0.14106576447E+04  0.00000000000E+00 0. -1.
         24    1    1    2    0    0 -0.99703756189E+00 -0.11502724220E+02 -0.11202006137E+04  0.11231428839E+04  0.80419002446E+02 0. -1.
          1    1    1    2  501    0 -0.15185365084E+02 -0.16708596916E+02 -0.15567960977E+03  0.15730833869E+03  0.00000000000E+00 0. -1.
         -2    1    1    2    0  502  0.16182402646E+02  0.28211321136E+02 -0.13049604753E+03  0.13448779579E+03  0.00000000000E+00 0.  1.
<mgrwt>
<rscale>  2 0.68172397E+02</rscale>
<asrwt>0</asrwt>
<pdfrwt beam="1">  1       21 0.65867351E-03 0.68172397E+02</pdfrwt>
<pdfrwt beam="2">  1       21 0.21702404E+00 0.68172397E+02</pdfrwt>
<totfact> 0.80250024E+05</totfact>
</mgrwt>
</event>
<event>
 5    1  0.1595802E+000  0.1705264E+03  0.7546771E-02  0.1177300E+00
         21   -1    0    0  503  502  0.00000000000E+00  0.00000000000E+00  0.75684162340E+03  0.75684162340E+03  0.00000000000E+00 0.  1.
         21   -1    0    0  501  503 -0.00000000000E+00 -0.00000000000E+00 -0.77991332059E+02  0.77991332059E+02  0.00000000000E+00 0. -1.
         24    1    1    2    0    0  0.12822520505E+03  0.64790872382E+02  0.10485622969E+03  0.19519632479E+03  0.80419002446E+02 0. -1.
          1    1    1    2  501    0  0.12168327325E+02 -0.29115700866E+02 -0.13664908239E+02  0.34387816796E+02  0.00000000000E+00 0. -1.
         -2    1    1    2    0  502 -0.14039353237E+03 -0.35675171516E+02  0.58765896989E+03  0.60524881387E+03  0.00000000000E+00 0.  1.
<mgrwt>
<rscale>  2 0.17052642E+03</rscale>
<asrwt>0</asrwt>
<pdfrwt beam="1">  1       21 0.11643717E+00 0.17052642E+03</pdfrwt>
<pdfrwt beam="2">  1       21 0.11998667E-01 0.17052642E+03</pdfrwt>
<totfact> 0.33812134E+04</totfact>
</mgrwt>
</event>
<event>
 5    1  0.1595802E+000  0.1216008E+03  0.7546771E-02  0.1240479E+00
         21   -1    0    0  503  502  0.00000000000E+00  0.00000000000E+00  0.73148975925E+03  0.73148975925E+03  0.00000000000E+00 0.  1.
         21   -1    0    0  501  503 -0.00000000000E+00 -0.00000000000E+00 -0.21658599090E+02  0.21658599090E+02  0.00000000000E+00 0. -1.
         24    1    1    2    0    0 -0.84316655345E+02 -0.46069588159E+01  0.37875095859E+03  0.39629537851E+03  0.80419002446E+02 0.  1.
          1    1    1    2  501    0  0.99691659033E+02 -0.15910494881E+02  0.20893788390E+03  0.23204872346E+03  0.00000000000E+00 0. -1.
         -2    1    1    2    0  502 -0.15375003688E+02  0.20517453697E+02  0.12214231767E+03  0.12480425637E+03  0.00000000000E+00 0.  1.
<mgrwt>
<rscale>  2 0.12160081E+03</rscale>
<asrwt>0</asrwt>
<pdfrwt beam="1">  1       21 0.11253687E+00 0.12160081E+03</pdfrwt>
<pdfrwt beam="2">  1       21 0.33320927E-02 0.12160081E+03</pdfrwt>
<totfact> 0.33465831E+05</totfact>
</mgrwt>
</event>
<event>
 5    1  0.1595802E+000  0.8438075E+02  0.7546771E-02  0.1317060E+00
         21   -1    0    0  503  502  0.00000000000E+00  0.00000000000E+00  0.19055787541E+02  0.19055787541E+02  0.00000000000E+00 0. -1.
         21   -1    0    0  501  503 -0.00000000000E+00 -0.00000000000E+00 -0.40466876271E+03  0.40466876271E+03  0.00000000000E+00 0. -1.
         24    1    1    2    0    0  0.58669958520E+01 -0.39660543201E+02 -0.24035466354E+03  0.25660272908E+03  0.80419002446E+02 0.  0.
          1    1    1    2  501    0  0.30819825600E+02  0.23774491664E+02 -0.96593682175E+02  0.10414138246E+03  0.00000000000E+00 0. -1.
         -2    1    1    2    0  502 -0.36686821452E+02  0.15886051537E+02 -0.48664629450E+02  0.62980438719E+02  0.00000000000E+00 0.  1.
<mgrwt>
<rscale>  2 0.84380752E+02</rscale>
<asrwt>0</asrwt>
<pdfrwt beam="1">  1       21 0.29316595E-02 0.84380752E+02</pdfrwt>
<pdfrwt beam="2">  1       21 0.62256736E-01 0.84380752E+02</pdfrwt>
<totfact> 0.15567913E+06</totfact>
</mgrwt>
</event>
<event>
 5    1  0.1595802E+000  0.9380250E+02  0.7546771E-02  0.1293896E+00
         21   -1    0    0  503  502  0.00000000000E+00  0.00000000000E+00  0.13070272592E+02  0.13070272592E+02  0.00000000000E+00 0. -1.
         21   -1    0    0  501  503 -0.00000000000E+00 -0.00000000000E+00 -0.19240524513E+04  0.19240524513E+04  0.00000000000E+00 0. -1.
         24    1    1    2    0    0 -0.21093404179E+02  0.64481092698E+02 -0.41101162681E+03  0.42426467722E+03  0.80419002446E+02 0. -1.
          1    1    1    2  501    0 -0.12737411495E+02 -0.35936050992E+02 -0.14270151118E+04  0.14275243503E+04  0.00000000000E+00 0. -1.
         -2    1    1    2    0  502  0.33830815674E+02 -0.28545041706E+02 -0.72955440141E+02  0.85333696401E+02  0.00000000000E+00 0.  1.
<mgrwt>
<rscale>  2 0.93802497E+02</rscale>
<asrwt>0</asrwt>
<pdfrwt beam="1">  1       21 0.20108105E-02 0.93802497E+02</pdfrwt>
<pdfrwt beam="2">  1       21 0.29600817E+00 0.93802497E+02</pdfrwt>
<totfact> 0.49287201E+04</totfact>
</mgrwt>
</event>
<event>
 5    1  0.1595802E+000  0.1020480E+03  0.7546771E-02  0.1276047E+00
         21   -1    0    0  503  502  0.00000000000E+00  0.00000000000E+00  0.94203270372E+01  0.94203270372E+01  0.00000000000E+00 0.  1.
         21   -1    0    0  501  503 -0.00000000000E+00 -0.00000000000E+00 -0.18960262240E+04  0.18960262240E+04  0.00000000000E+00 0. -1.
         24    1    1    2    0    0 -0.38911879690E+02  0.61780935710E+02 -0.62452742718E+03  0.63390278565E+03  0.80419002446E+02 0.  1.
          1    1    1    2  501    0  0.55687042232E+02 -0.43484764000E+02 -0.12243191754E+04  0.12263561533E+04  0.00000000000E+00 0. -1.
         -2    1    1    2    0  502 -0.16775162542E+02 -0.18296171711E+02 -0.37759294346E+02  0.45187612097E+02  0.00000000000E+00 0.  1.
<mgrwt>
<rscale>  2 0.10204803E+03</rscale>
<asrwt>0</asrwt>
<pdfrwt beam="1">  1       21 0.14492816E-02 0.10204803E+03</pdfrwt>
<pdfrwt beam="2">  1       21 0.29169624E+00 0.10204803E+03</pdfrwt>
<totfact> 0.86648494E+04</totfact>
</mgrwt>
</event>
<event>
 5    1  0.1595802E+000  0.8186179E+02  0.7546771E-02  0.1323849E+00
         21   -1    0    0  501  502  0.00000000000E+00  0.00000000000E+00  0.56075477586E+03  0.56075477586E+03  0.00000000000E+00 0. -1.
         21   -1    0    0  502  503 -0.00000000000E+00 -0.00000000000E+00 -0.14838507735E+02  0.14838507735E+02  0.00000000000E+00 0.  1.
         24    1    1    2    0    0  0.21261230365E+02  0.13139158604E+02  0.15996702768E+03  0.18077981996E+03  0.80419002446E+02 0.  1.
          1    1    1    2  501    0 -0.22311448376E+02 -0.43628636608E+02  0.29059961754E+03  0.29470221644E+03  0.00000000000E+00 0. -1.
         -2    1    1    2    0  503  0.10502180108E+01  0.30489478004E+02  0.95349622909E+02  0.10011124720E+03  0.00000000000E+00 0.  1.
<mgrwt>
<rscale>  2 0.81861790E+02</rscale>
<asrwt>0</asrwt>
<pdfrwt beam="1">  1       21 0.86269949E-01 0.81861790E+02</pdfrwt>
<pdfrwt beam="2">  1       21 0.22828478E-02 0.81861790E+02</pdfrwt>
<totfact> 0.11472670E+06</totfact>
</mgrwt>
</event>
<event>
 5    1  0.1595802E+000  0.9950827E+02  0.7546771E-02  0.1281333E+00
         21   -1    0    0  503  502  0.00000000000E+00  0.00000000000E+00  0.12167588690E+04  0.12167588690E+04  0.00000000000E+00 0.  1.
         21   -1    0    0  501  503 -0.00000000000E+00 -0.00000000000E+00 -0.17892889632E+02  0.17892889632E+02  0.00000000000E+00 0. -1.
         24    1    1    2    0    0  0.79911872711E+02  0.95070810363E+01  0.80358376588E+03  0.81159742282E+03  0.80419002446E+02 0.  1.
          1    1    1    2  501    0 -0.34781954798E+02  0.98367074665E+01  0.14221463804E+02  0.38843213385E+02  0.00000000000E+00 0. -1.
         -2    1    1    2    0  502 -0.45129917913E+02 -0.19343788503E+02  0.38106074964E+03  0.38421112238E+03  0.00000000000E+00 0.  1.
<mgrwt>
<rscale>  2 0.99508267E+02</rscale>
<asrwt>0</asrwt>
<pdfrwt beam="1">  1       21 0.18719361E+00 0.99508267E+02</pdfrwt>
<pdfrwt beam="2">  1       21 0.27527532E-02 0.99508267E+02</pdfrwt>
<totfact> 0.12550548E+05</totfact>
</mgrwt>
</event>
<event>
 5    1  0.1595802E+000  0.9488408E+02  0.7546771E-02  0.1291437E+00
         21   -1    0    0  503  502  0.00000000000E+00  0.00000000000E+00  0.17803470030E+03  0.17803470030E+03  0.00000000000E+00 0.  1.
         21   -1    0    0  501  503 -0.00000000000E+00 -0.00000000000E+00 -0.97948692935E+02  0.97948692935E+02  0.00000000000E+00 0.  1.
         24    1    1    2    0    0  0.35653016156E+01  0.75954045981E+02  0.32962362836E+02  0.11547926998E+03  0.80419002446E+02 0.  1.
          1    1    1    2  501    0 -0.12771229735E+02 -0.47504146014E+02 -0.43132873786E+02  0.65423183953E+02  0.00000000000E+00 0. -1.
         -2    1    1    2    0  502  0.92059281193E+01 -0.28449899967E+02  0.90256518316E+02  0.95080939305E+02  0.00000000000E+00 0.  1.
<mgrwt>
<rscale>  2 0.94884079E+02</rscale>
<asrwt>0</asrwt>
<pdfrwt beam="1">  1       21 0.27389954E-01 0.94884079E+02</pdfrwt>
<pdfrwt beam="2">  1       21 0.15069030E-01 0.94884079E+02</pdfrwt>
<totfact> 0.49947335E+05</totfact>
</mgrwt>
</event>
<event>
 5    1  0.1595802E+000  0.6465489E+02  0.7546771E-02  0.1379274E+00
         21   -1    0    0  503  502  0.00000000000E+00  0.00000000000E+00  0.98030970414E+02  0.98030970414E+02  0.00000000000E+00 0.  1.
         21   -1    0    0  501  503 -0.00000000000E+00 -0.00000000000E+00 -0.30206421017E+03  0.30206421017E+03  0.00000000000E+00 0. -1.
         24    1    1    2    0    0  0.13785614297E+02  0.28177721339E+02 -0.10458897493E+03  0.13561009097E+03  0.80419002446E+02 0.  0.
          1    1    1    2  501    0 -0.20895033581E+02 -0.94026109744E+01 -0.18000655230E+03  0.18145900471E+03  0.00000000000E+00 0. -1.
         -2    1    1    2    0  502  0.71094192839E+01 -0.18775110365E+02  0.80562287471E+02  0.83026084903E+02  0.00000000000E+00 0.  1.
<mgrwt>
<rscale>  2 0.64654892E+02</rscale>
<asrwt>0</asrwt>
<pdfrwt beam="1">  1       21 0.15081688E-01 0.64654892E+02</pdfrwt>
<pdfrwt beam="2">  1       21 0.46471416E-01 0.64654892E+02</pdfrwt>
<totfact> 0.17937428E+05</totfact>
</mgrwt>
</event>
<event>
 5    1  0.1595802E+000  0.7466543E+02  0.7546771E-02  0.1344910E+00
         21   -1    0    0  503  502  0.00000000000E+00  0.00000000000E+00  0.60494014478E+02  0.60494014478E+02  0.00000000000E+00 0. -1.
         21   -1    0    0  501  503 -0.00000000000E+00 -0.00000000000E+00 -0.11208026223E+03  0.11208026223E+03  0.00000000000E+00 0. -1.
         24    1    1    2    0    0  0.18330392154E+02  0.45636134224E+01 -0.27145200287E+02  0.86953480074E+02  0.80419002446E+02 0. -1.
          1    1    1    2  501    0  0.16591476627E+02  0.18517329414E+02 -0.34541686895E+02  0.42559331748E+02  0.00000000000E+00 0. -1.
         -2    1    1    2    0  502 -0.34921868781E+02 -0.23080942836E+02  0.10100639428E+02  0.43061464887E+02  0.00000000000E+00 0.  1.
<mgrwt>
<rscale>  2 0.74665433E+02</rscale>
<asrwt>0</asrwt>
<pdfrwt beam="1">  1       21 0.93067715E-02 0.74665433E+02</pdfrwt>
<pdfrwt beam="2">  1       21 0.17243117E-01 0.74665433E+02</pdfrwt>
<totfact> 0.27062518E+06</totfact>
</mgrwt>
</event>
<event>
 5    1  0.1595802E+000  0.9205274E+02  0.7546771E-02  0.1297955E+00
         21   -1    0    0  503  502  0.00000000000E+00  0.00000000000E+00  0.11786868927E+03  0.11786868927E+03  0.00000000000E+00 0.  1.
         21   -1    0    0  501  503 -0.00000000000E+00 -0.00000000000E+00 -0.67309143327E+03  0.67309143327E+03  0.00000000000E+00 0. -1.
         24    1    1    2    0    0 -0.34627000897E+02  0.54648700494E+02 -0.22578334388E+01  0.10323673485E+03  0.80419002446E+02 0.  0.
          1    1    1    2  501    0 -0.11845703566E+02 -0.18714370485E+02 -0.60729945413E+03  0.60770319675E+03  0.00000000000E+00 0. -1.
         -2    1    1    2    0  502  0.46472704463E+02 -0.35934330010E+02  0.54334543567E+02  0.80020190940E+02  0.00000000000E+00 0.  1.
<mgrwt>
<rscale>  2 0.92052741E+02</rscale>
<asrwt>0</asrwt>
<pdfrwt beam="1">  1       21 0.18133644E-01 0.92052741E+02</pdfrwt>
<pdfrwt beam="2">  1       21 0.10355253E+00 0.92052741E+02</pdfrwt>
<totfact> 0.22554334E+04</totfact>
</mgrwt>
</event>
<event>
 5    1  0.1595802E+000  0.2229370E+03  0.7546771E-02  0.1131712E+00
         21   -1    0    0  503  502  0.00000000000E+00  0.00000000000E+00  0.14671322561E+03  0.14671322561E+03  0.00000000000E+00 0.  1.
         21   -1    0    0  501  503 -0.00000000000E+00 -0.00000000000E+00 -0.54032739594E+03  0.54032739594E+03  0.00000000000E+00 0. -1.
         24    1    1    2    0    0  0.92591106854E+02  0.15768921726E+02 -0.31822791543E+03  0.34140590809E+03  0.80419002446E+02 0. -1.
          1    1    1    2  501    0  0.27479241984E+02 -0.14397458622E+03 -0.85506850805E+02  0.16969151939E+03  0.00000000000E+00 0. -1.
         -2    1    1    2    0  502 -0.12007034884E+03  0.12820566449E+03  0.10120595909E+02  0.17594319407E+03  0.00000000000E+00 0.  1.
<mgrwt>
<rscale>  2 0.22293701E+03</rscale>
<asrwt>0</asrwt>
<pdfrwt beam="1">  1       21 0.22571266E-01 0.22293701E+03</pdfrwt>
<pdfrwt beam="2">  1       21 0.83127291E-01 0.22293701E+03</pdfrwt>
<totfact> 0.22788188E+04</totfact>
</mgrwt>
</event>
<event>
 5    1  0.1595802E+000  0.1121977E+03  0.7546771E-02  0.1256553E+00
         21   -1    0    0  503  502  0.00000000000E+00  0.00000000000E+00  0.20069872037E+02  0.20069872037E+02  0.00000000000E+00 0.  1.
         21   -1    0    0  501  503 -0.00000000000E+00 -0.00000000000E+00 -0.13057578070E+04  0.13057578070E+04  0.00000000000E+00 0.  1.
         24    1    1    2    0    0  0.57405744745E+02  0.79162708905E+02 -0.54771788978E+03  0.56216034790E+03  0.80419002446E+02 0.  0.
          1    1    1    2  501    0 -0.29394467387E+02 -0.39998256349E+02 -0.70152572424E+03  0.70327962930E+03  0.00000000000E+00 0. -1.
         -2    1    1    2    0  502 -0.28011277358E+02 -0.39164452556E+02 -0.36444320932E+02  0.60387701822E+02  0.00000000000E+00 0.  1.
<mgrwt>
<rscale>  2 0.11219772E+03</rscale>
<asrwt>0</asrwt>
<pdfrwt beam="1">  1       21 0.30876712E-02 0.11219772E+03</pdfrwt>
<pdfrwt beam="2">  1       21 0.20088591E+00 0.11219772E+03</pdfrwt>
<totfact> 0.84406312E+04</totfact>
</mgrwt>
</event>
<event>
 5    1  0.1595802E+000  0.1603149E+03  0.7546771E-02  0.1188342E+00
         21   -1    0    0  503  502  0.00000000000E+00  0.00000000000E+00  0.76961788617E+03  0.76961788617E+03  0.00000000000E+00 0.  1.
         21   -1    0    0  501  503 -0.00000000000E+00 -0.00000000000E+00 -0.61126387877E+02  0.61126387877E+02  0.00000000000E+00 0.  1.
         24    1    1    2    0    0 -0.35980402515E+02 -0.48962780059E+02  0.23072132235E+02  0.10339962493E+03  0.80419002446E+02 0.  1.
          1    1    1    2  501    0 -0.11972573680E+02 -0.80704165986E+02  0.11889893897E+03  0.14419938494E+03  0.00000000000E+00 0. -1.
         -2    1    1    2    0  502  0.47952976195E+02  0.12966694604E+03  0.56652042709E+03  0.58314526418E+03  0.00000000000E+00 0.  1.
<mgrwt>
<rscale>  2 0.16031493E+03</rscale>
<asrwt>0</asrwt>
<pdfrwt beam="1">  1       21 0.11840274E+00 0.16031493E+03</pdfrwt>
<pdfrwt beam="2">  1       21 0.94040602E-02 0.16031493E+03</pdfrwt>
<totfact> 0.50239597E+04</totfact>
</mgrwt>
</event>
<event>
 5    1  0.1595802E+000  0.8964481E+02  0.7546771E-02  0.1303714E+00
         21   -1    0    0  501  502  0.00000000000E+00  0.00000000000E+00  0.15111987179E+02  0.15111987179E+02  0.00000000000E+00 0.  1.
         21   -1    0    0  502  503 -0.00000000000E+00 -0.00000000000E+00 -0.70448335731E+03  0.70448335731E+03  0.00000000000E+00 0. -1.
         24    1    1    2    0    0 -0.59652973147E+02 -0.34234977818E+02 -0.56615092184E+03  0.57595537428E+03  0.80419002446E+02 0. -1.
          1    1    1    2  501    0  0.31532062830E+02  0.33632957223E+01 -0.46361157431E+02  0.56168849577E+02  0.00000000000E+00 0. -1.
         -2    1    1    2    0  503  0.28120910317E+02  0.30871682095E+02 -0.76859290856E+02  0.87471120624E+02  0.00000000000E+00 0.  1.
<mgrwt>
<rscale>  2 0.89644812E+02</rscale>
<asrwt>0</asrwt>
<pdfrwt beam="1">  1       21 0.23249207E-02 0.89644812E+02</pdfrwt>
<pdfrwt beam="2">  1       21 0.10838207E+00 0.89644812E+02</pdfrwt>
<totfact> 0.66067860E+05</totfact>
</mgrwt>
</event>
<event>
 5    1  0.1595802E+000  0.7100697E+02  0.7546771E-02  0.1356702E+00
         21   -1    0    0  503  502  0.00000000000E+00  0.00000000000E+00  0.21752212281E+04  0.21752212281E+04  0.00000000000E+00 0. -1.
         21   -1    0    0  501  503 -0.00000000000E+00 -0.00000000000E+00 -0.29564469905E+01  0.29564469905E+01  0.00000000000E+00 0.  1.
         24    1    1    2    0    0  0.27556884491E+00 -0.55642758930E+01  0.72927494865E+03  0.73371670540E+03  0.80419002446E+02 0.  1.
          1    1    1    2  501    0 -0.27950612323E+02 -0.99577602260E+01  0.45796491416E+03  0.45892510970E+03  0.00000000000E+00 0. -1.
         -2    1    1    2    0  502  0.27675043478E+02  0.15522036119E+02  0.98502491826E+03  0.98553585994E+03  0.00000000000E+00 0.  1.
<mgrwt>
<rscale>  2 0.71006970E+02</rscale>
<asrwt>0</asrwt>
<pdfrwt beam="1">  1       21 0.33464814E+00 0.71006970E+02</pdfrwt>
<pdfrwt beam="2">  1       21 0.45483974E-03 0.71006970E+02</pdfrwt>
<totfact> 0.31988549E+05</totfact>
</mgrwt>
</event>
<event>
 5    1  0.1595802E+000  0.6199337E+02  0.7546771E-02  0.1389652E+00
         21   -1    0    0  503  502  0.00000000000E+00  0.00000000000E+00  0.50507258239E+02  0.50507258239E+02  0.00000000000E+00 0.  1.
         21   -1    0    0  501  503 -0.00000000000E+00 -0.00000000000E+00 -0.11232069913E+03  0.11232069913E+03  0.00000000000E+00 0.  1.
         24    1    1    2    0    0 -0.39429419839E+00  0.13043823304E+02 -0.22048646312E+01  0.81500761817E+02  0.80419002446E+02 0. -1.
          1    1    1    2  501    0  0.20389436056E+02 -0.52421481314E+01 -0.55653879544E+02  0.59502634631E+02  0.00000000000E+00 0. -1.
         -2    1    1    2    0  502 -0.19995141858E+02 -0.78016751726E+01 -0.39546967192E+01  0.21824560925E+02  0.00000000000E+00 0.  1.
<mgrwt>
<rscale>  2 0.61993367E+02</rscale>
<asrwt>0</asrwt>
<pdfrwt beam="1">  1       21 0.77703475E-02 0.61993367E+02</pdfrwt>
<pdfrwt beam="2">  1       21 0.17280107E-01 0.61993367E+02</pdfrwt>
<totfact> 0.36204338E+06</totfact>
</mgrwt>
</event>
<event>
 5    1  0.1595802E+000  0.1237239E+03  0.7546771E-02  0.1237077E+00
         21   -1    0    0  503  502  0.00000000000E+00  0.00000000000E+00  0.68426026403E+02  0.68426026403E+02  0.00000000000E+00 0.  1.
         21   -1    0    0  501  503 -0.00000000000E+00 -0.00000000000E+00 -0.26693943879E+03  0.26693943879E+03  0.00000000000E+00 0. -1.
         24    1    1    2    0    0  0.18833333447E+02 -0.10732288914E+02 -0.14677955406E+02  0.84572659905E+02  0.80419002446E+02 0. -1.
          1    1    1    2  501    0 -0.10769675646E+02 -0.76147527858E+02 -0.12060111623E+03  0.14303517451E+03  0.00000000000E+00 0. -1.
         -2    1    1    2    0  502 -0.80636578013E+01  0.86879816772E+02 -0.63234340751E+02  0.10775763077E+03  0.00000000000E+00 0.  1.
<mgrwt>
<rscale>  2 0.12372389E+03</rscale>
<asrwt>0</asrwt>
<pdfrwt beam="1">  1       21 0.10527081E-01 0.12372389E+03</pdfrwt>
<pdfrwt beam="2">  1       21 0.41067606E-01 0.12372389E+03</pdfrwt>
<totfact> 0.42761200E+05</totfact>
</mgrwt>
</event>
<event>
 5    1  0.1595802E+000  0.6408425E+02  0.7546771E-02  0.1381450E+00
         21   -1    0    0  501  502  0.00000000000E+00  0.00000000000E+00  0.20139700483E+03  0.20139700483E+03  0.00000000000E+00 0. -1.
         21   -1    0    0  502  503 -0.00000000000E+00 -0.00000000000E+00 -0.62316931200E+02  0.62316931200E+02  0.00000000000E+00 0.  1.
         24    1    1    2    0    0  0.46833138637E+01 -0.63824311898E+01  0.40414490738E+02  0.90350516726E+02  0.80419002446E+02 0.  1.
          1    1    1    2  501    0  0.19605352855E+02  0.11228901647E+02  0.13083091078E+03  0.13276741057E+03  0.00000000000E+00 0. -1.
         -2    1    1    2    0  503 -0.24288666719E+02 -0.48464704569E+01 -0.32165327892E+02  0.40596008736E+02  0.00000000000E+00 0.  1.
<mgrwt>
<rscale>  2 0.64084247E+02</rscale>
<asrwt>0</asrwt>
<pdfrwt beam="1">  1       21 0.30984154E-01 0.64084247E+02</pdfrwt>
<pdfrwt beam="2">  1       21 0.95872203E-02 0.64084247E+02</pdfrwt>
<totfact> 0.86764181E+05</totfact>
</mgrwt>
</event>
<event>
 5    1  0.1595802E+000  0.8271346E+02  0.7546771E-02  0.1321523E+00
         21   -1    0    0  501  502  0.00000000000E+00  0.00000000000E+00  0.11102186118E+03  0.11102186118E+03  0.00000000000E+00 0. -1.
         21   -1    0    0  502  503 -0.00000000000E+00 -0.00000000000E+00 -0.20809942069E+03  0.20809942069E+03  0.00000000000E+00 0.  1.
         24    1    1    2    0    0  0.28684546206E+02  0.50624153644E+02  0.44000963871E+02  0.10857674198E+03  0.80419002446E+02 0. -1.
          1    1    1    2  501    0 -0.33656799003E+02 -0.30447920499E+02  0.18942448085E+02  0.49179999200E+02  0.00000000000E+00 0. -1.
         -2    1    1    2    0  503  0.49722527970E+01 -0.20176233145E+02 -0.16002097147E+03  0.16136454069E+03  0.00000000000E+00 0.  1.
<mgrwt>
<rscale>  2 0.82713458E+02</rscale>
<asrwt>0</asrwt>
<pdfrwt beam="1">  1       21 0.17080287E-01 0.82713458E+02</pdfrwt>
<pdfrwt beam="2">  1       21 0.32015295E-01 0.82713458E+02</pdfrwt>
<totfact> 0.29660664E+05</totfact>
</mgrwt>
</event>
<event>
 5    1  0.1595802E+000  0.9098299E+02  0.7546771E-02  0.1300489E+00
         21   -1    0    0  503  502  0.00000000000E+00  0.00000000000E+00  0.12385530631E+04  0.12385530631E+04  0.00000000000E+00 0.  1.
         21   -1    0    0  501  503 -0.00000000000E+00 -0.00000000000E+00 -0.17504694620E+02  0.17504694620E+02  0.00000000000E+00 0. -1.
         24    1    1    2    0    0 -0.63255558962E+02  0.22604525781E+02  0.10511474578E+04  0.10563571481E+04  0.80419002446E+02 0.  1.
          1    1    1    2  501    0  0.44058641128E+02 -0.33282105424E+02  0.40572668044E+02  0.68520097721E+02  0.00000000000E+00 0. -1.
         -2    1    1    2    0  502  0.19196917835E+02  0.10677579643E+02  0.12932824256E+03  0.13118051184E+03  0.00000000000E+00 0.  1.
<mgrwt>
<rscale>  2 0.90982989E+02</rscale>
<asrwt>0</asrwt>
<pdfrwt beam="1">  1       21 0.19054656E+00 0.90982989E+02</pdfrwt>
<pdfrwt beam="2">  1       21 0.26930309E-02 0.90982989E+02</pdfrwt>
<totfact> 0.12463333E+05</totfact>
</mgrwt>
</event>
<event>
 5    1  0.1595802E+000  0.8263433E+02  0.7546771E-02  0.1321738E+00
         21   -1    0    0  503  502  0.00000000000E+00  0.00000000000E+00  0.11621931101E+03  0.11621931101E+03  0.00000000000E+00 0.  1.
         21   -1    0    0  501  503 -0.00000000000E+00 -0.00000000000E+00 -0.83872080204E+02  0.83872080204E+02  0.00000000000E+00 0.  1.
         24    1    1    2    0    0 -0.12087584747E+02 -0.41361606442E+02 -0.31784323145E+02  0.96614446873E+02  0.80419002446E+02 0.  1.
          1    1    1    2  501    0 -0.12436428409E+02  0.47209846530E+02  0.20219218931E+02  0.52841755981E+02  0.00000000000E+00 0. -1.
         -2    1    1    2    0  502  0.24524013155E+02 -0.58482400885E+01  0.43912335020E+02  0.50635188360E+02  0.00000000000E+00 0.  1.
<mgrwt>
<rscale>  2 0.82634333E+02</rscale>
<asrwt>0</asrwt>
<pdfrwt beam="1">  1       21 0.17879894E-01 0.82634333E+02</pdfrwt>
<pdfrwt beam="2">  1       21 0.12903397E-01 0.82634333E+02</pdfrwt>
<totfact> 0.14435307E+06</totfact>
</mgrwt>
</event>
<event>
 5    1  0.1987917E+000  0.7774296E+02  0.7546771E-02  0.1335581E+00
         21   -1    0    0  503  502  0.00000000000E+00  0.00000000000E+00  0.15553534800E+03  0.15553534800E+03  0.00000000000E+00 0.  1.
         21   -1    0    0  501  503 -0.00000000000E+00 -0.00000000000E+00 -0.33721196390E+03  0.33721196390E+03  0.00000000000E+00 0. -1.
         24    1    1    2    0    0 -0.18741445008E+02  0.15461614173E+02  0.26424910229E+01  0.84050591830E+02  0.80419002446E+02 0. -1.
          1    1    1    2  501    0  0.17752073266E+02 -0.41647106488E+02 -0.29321646879E+03  0.29669094215E+03  0.00000000000E+00 0. -1.
         -2    1    1    2    0  502  0.98937174278E+00  0.26185492315E+02  0.10889736187E+03  0.11200577791E+03  0.00000000000E+00 0.  1.
<mgrwt>
<rscale>  2 0.77742961E+02</rscale>
<asrwt>0</asrwt>
<pdfrwt beam="1">  1       21 0.23928515E-01 0.77742961E+02</pdfrwt>
<pdfrwt beam="2">  1       21 0.51878763E-01 0.77742961E+02</pdfrwt>
<totfact> 0.61807421E+04</totfact>
</mgrwt>
</event>
<event>
 5    1  0.1595802E+000  0.1113007E+03  0.7546771E-02  0.1258180E+00
         21   -1    0    0  501  502  0.00000000000E+00  0.00000000000E+00  0.21888010832E+03  0.21888010832E+03  0.00000000000E+00 0.  1.
         21   -1    0    0  502  503 -0.00000000000E+00 -0.00000000000E+00 -0.98169272904E+02  0.98169272904E+02  0.00000000000E+00 0.  1.
         24    1    1    2    0    0  0.26491771843E+02  0.77792574202E+02  0.23090132763E+02  0.11727688929E+03  0.80419002446E+02 0.  1.
          1    1    1    2  501    0  0.22077013857E+02 -0.10028714397E+02  0.11249978791E+03  0.11508332604E+03  0.00000000000E+00 0. -1.
         -2    1    1    2    0  503 -0.48568785700E+02 -0.67763859805E+02 -0.14879085263E+02  0.84689165885E+02  0.00000000000E+00 0.  1.
<mgrwt>
<rscale>  2 0.11130066E+03</rscale>
<asrwt>0</asrwt>
<pdfrwt beam="1">  1       21 0.33673863E-01 0.11130066E+03</pdfrwt>
<pdfrwt beam="2">  1       21 0.15102965E-01 0.11130066E+03</pdfrwt>
<totfact> 0.33411612E+05</totfact>
</mgrwt>
</event>
<event>
 5    1  0.1595802E+000  0.8102277E+02  0.7546771E-02  0.1326174E+00
         21   -1    0    0  503  502  0.00000000000E+00  0.00000000000E+00  0.88625230009E+03  0.88625230009E+03  0.00000000000E+00 0.  1.
         21   -1    0    0  501  503 -0.00000000000E+00 -0.00000000000E+00 -0.16475464736E+02  0.16475464736E+02  0.00000000000E+00 0. -1.
         24    1    1    2    0    0 -0.18194184871E+02 -0.36189964268E+02  0.52141345619E+03  0.52913131652E+03  0.80419002446E+02 0.  1.
          1    1    1    2  501    0 -0.14275105454E+02  0.36857329513E+02  0.21251028382E+02  0.44875913159E+02  0.00000000000E+00 0. -1.
         -2    1    1    2    0  502  0.32469290326E+02 -0.66736524544E+00  0.32711235078E+03  0.32872053514E+03  0.00000000000E+00 0.  1.
<mgrwt>
<rscale>  2 0.81022773E+02</rscale>
<asrwt>0</asrwt>
<pdfrwt beam="1">  1       21 0.13634647E+00 0.81022773E+02</pdfrwt>
<pdfrwt beam="2">  1       21 0.25346876E-02 0.81022773E+02</pdfrwt>
<totfact> 0.33131996E+05</totfact>
</mgrwt>
</event>
<event>
 5    1  0.1595802E+000  0.8022077E+02  0.7546771E-02  0.1328426E+00
         21   -1    0    0  503  502  0.00000000000E+00  0.00000000000E+00  0.31113103033E+02  0.31113103033E+02  0.00000000000E+00 0.  1.
         21   -1    0    0  501  503 -0.00000000000E+00 -0.00000000000E+00 -0.22735279861E+03  0.22735279861E+03  0.00000000000E+00 0.  1.
         24    1    1    2    0    0 -0.81931618503E+01  0.26230305757E+02 -0.80315168735E+02  0.11693117260E+03  0.80419002446E+02 0.  1.
          1    1    1    2  501    0 -0.31204853122E+02 -0.14024665589E+02 -0.79341135148E+02  0.86402834616E+02  0.00000000000E+00 0. -1.
         -2    1    1    2    0  502  0.39398014972E+02 -0.12205640169E+02 -0.36583391692E+02  0.55131894429E+02  0.00000000000E+00 0.  1.
<mgrwt>
<rscale>  2 0.80220765E+02</rscale>
<asrwt>0</asrwt>
<pdfrwt beam="1">  1       21 0.47866313E-02 0.80220765E+02</pdfrwt>
<pdfrwt beam="2">  1       21 0.34977353E-01 0.80220765E+02</pdfrwt>
<totfact> 0.22291421E+06</totfact>
</mgrwt>
</event>
<event>
 5    1  0.2566511E+000  0.1890136E+03  0.7546771E-02  0.1159354E+00
         21   -1    0    0  501  502  0.00000000000E+00  0.00000000000E+00  0.34090790979E+02  0.34090790979E+02  0.00000000000E+00 0. -1.
         21   -1    0    0  502  503 -0.00000000000E+00 -0.00000000000E+00 -0.14840993798E+04  0.14840993798E+04  0.00000000000E+00 0.  1.
         24    1    1    2    0    0 -0.31231071711E+02  0.30376708625E+00 -0.19089303154E+03  0.20948230846E+03  0.80419002446E+02 0. -1.
          1    1    1    2  501    0  0.12427951772E+03 -0.96931785769E+02 -0.28743244441E+03  0.32780875479E+03  0.00000000000E+00 0. -1.
         -2    1    1    2    0  503 -0.93048446012E+02  0.96628018683E+02 -0.97168311285E+03  0.98089910750E+03  0.00000000000E+00 0.  1.
<mgrwt>
<rscale>  2 0.18901361E+03</rscale>
<asrwt>0</asrwt>
<pdfrwt beam="1">  1       21 0.52447377E-02 0.18901361E+03</pdfrwt>
<pdfrwt beam="2">  1       21 0.22832295E+00 0.18901361E+03</pdfrwt>
<totfact> 0.22269419E+04</totfact>
</mgrwt>
</event>
<event>
 5    1  0.1595802E+000  0.1002578E+03  0.7546771E-02  0.1279755E+00
         21   -1    0    0  501  502  0.00000000000E+00  0.00000000000E+00  0.57824754036E+02  0.57824754036E+02  0.00000000000E+00 0. -1.
         21   -1    0    0  502  503 -0.00000000000E+00 -0.00000000000E+00 -0.22087016975E+03  0.22087016975E+03  0.00000000000E+00 0.  1.
         24    1    1    2    0    0  0.83316771780E+02  0.28697241031E+01 -0.75447743240E+02  0.13823710678E+03  0.80419002446E+02 0. -1.
          1    1    1    2  501    0 -0.42526033166E+02 -0.89053715486E+01  0.21121834967E+00  0.43448978727E+02  0.00000000000E+00 0. -1.
         -2    1    1    2    0  503 -0.40790738614E+02  0.60356474455E+01 -0.87808890828E+02  0.97008838284E+02  0.00000000000E+00 0.  1.
<mgrwt>
<rscale>  2 0.10025784E+03</rscale>
<asrwt>0</asrwt>
<pdfrwt beam="1">  1       21 0.88961161E-02 0.10025784E+03</pdfrwt>
<pdfrwt beam="2">  1       21 0.33980026E-01 0.10025784E+03</pdfrwt>
<totfact> 0.83309079E+05</totfact>
</mgrwt>
</event>
<event>
 5    1  0.1595802E+000  0.9648864E+02  0.7546771E-02  0.1287858E+00
         21   -1    0    0  503  502  0.00000000000E+00  0.00000000000E+00  0.81102580377E+03  0.81102580377E+03  0.00000000000E+00 0. -1.
         21   -1    0    0  501  503 -0.00000000000E+00 -0.00000000000E+00 -0.12014092358E+02  0.12014092358E+02  0.00000000000E+00 0. -1.
         24    1    1    2    0    0  0.32387857928E+02 -0.40600150502E+02  0.46103811015E+03  0.47087227624E+03  0.80419002446E+02 0. -1.
          1    1    1    2  501    0 -0.35861729976E+02  0.64121765335E+02  0.22401222352E+03  0.23575228685E+03  0.00000000000E+00 0. -1.
         -2    1    1    2    0  502  0.34738720483E+01 -0.23521614834E+02  0.11396137774E+03  0.11641533304E+03  0.00000000000E+00 0.  1.
<mgrwt>
<rscale>  2 0.96488636E+02</rscale>
<asrwt>0</asrwt>
<pdfrwt beam="1">  1       21 0.12477316E+00 0.96488636E+02</pdfrwt>
<pdfrwt beam="2">  1       21 0.18483225E-02 0.96488636E+02</pdfrwt>
<totfact> 0.68110244E+05</totfact>
</mgrwt>
</event>
<event>
 5    1  0.1595802E+000  0.1034415E+03  0.7546771E-02  0.1273221E+00
         21   -1    0    0  503  502  0.00000000000E+00  0.00000000000E+00  0.11686660696E+03  0.11686660696E+03  0.00000000000E+00 0.  1.
         21   -1    0    0  501  503 -0.00000000000E+00 -0.00000000000E+00 -0.39634630738E+03  0.39634630738E+03  0.00000000000E+00 0. -1.
         24    1    1    2    0    0 -0.81987723415E+01 -0.62621343929E+02 -0.31633361832E+03  0.33244973547E+03  0.80419002446E+02 0. -1.
          1    1    1    2  501    0 -0.37600749413E+02  0.23058930769E+02 -0.55161860366E+02  0.70628333434E+02  0.00000000000E+00 0. -1.
         -2    1    1    2    0  502  0.45799521754E+02  0.39562413159E+02  0.92015778271E+02  0.11013484543E+03  0.00000000000E+00 0.  1.
<mgrwt>
<rscale>  2 0.10344151E+03</rscale>
<asrwt>0</asrwt>
<pdfrwt beam="1">  1       21 0.17979478E-01 0.10344151E+03</pdfrwt>
<pdfrwt beam="2">  1       21 0.60976355E-01 0.10344151E+03</pdfrwt>
<totfact> 0.73417519E+04</totfact>
</mgrwt>
</event>
<event>
 5    1  0.1595802E+000  0.8859141E+02  0.7546771E-02  0.1306299E+00
         21   -1    0    0  501  502  0.00000000000E+00  0.00000000000E+00  0.30617515923E+03  0.30617515923E+03  0.00000000000E+00 0. -1.
         21   -1    0    0  502  503 -0.00000000000E+00 -0.00000000000E+00 -0.51643505888E+02  0.51643505888E+02  0.00000000000E+00 0.  1.
         24    1    1    2    0    0  0.31634495935E+02 -0.26195262051E+02  0.20401370464E+03  0.22310477521E+03  0.80419002446E+02 0. -1.
          1    1    1    2  501    0 -0.57235389051E+02  0.18450589030E+02  0.76579916614E+02  0.97369387509E+02  0.00000000000E+00 0. -1.
         -2    1    1    2    0  503  0.25600893117E+02  0.77446730213E+01 -0.26061967906E+02  0.37344502403E+02  0.00000000000E+00 0.  1.
<mgrwt>
<rscale>  2 0.88591409E+02</rscale>
<asrwt>0</asrwt>
<pdfrwt beam="1">  1       21 0.47103870E-01 0.88591409E+02</pdfrwt>
<pdfrwt beam="2">  1       21 0.79451549E-02 0.88591409E+02</pdfrwt>
<totfact> 0.52910809E+05</totfact>
</mgrwt>
</event>
<event>
 5    1  0.1595802E+000  0.1205455E+03  0.7546771E-02  0.1242200E+00
         21   -1    0    0  501  502  0.00000000000E+00  0.00000000000E+00  0.21118178817E+04  0.21118178817E+04  0.00000000000E+00 0. -1.
         21   -1    0    0  502  503 -0.00000000000E+00 -0.00000000000E+00 -0.21858902090E+02  0.21858902090E+02  0.00000000000E+00 0.  1.
         24    1    1    2    0    0  0.47393005442E+01  0.56254738386E+02  0.40804555680E+03  0.41970876681E+03  0.80419002446E+02 0. -1.
          1    1    1    2  501    0 -0.47540196935E+02 -0.80613759464E+02  0.16553885102E+04  0.16580318960E+04  0.00000000000E+00 0. -1.
         -2    1    1    2    0  503  0.42800896390E+02  0.24359021078E+02  0.26524912636E+02  0.55936120978E+02  0.00000000000E+00 0.  1.
<mgrwt>
<rscale>  2 0.12054546E+03</rscale>
<asrwt>0</asrwt>
<pdfrwt beam="1">  1       21 0.32489490E+00 0.12054546E+03</pdfrwt>
<pdfrwt beam="2">  1       21 0.33629097E-02 0.12054546E+03</pdfrwt>
<totfact> 0.14128534E+04</totfact>
</mgrwt>
</event>
<event>
 5    1  0.1595802E+000  0.1068038E+03  0.7546771E-02  0.1266606E+00
         21   -1    0    0  503  502  0.00000000000E+00  0.00000000000E+00  0.12885021628E+03  0.12885021628E+03  0.00000000000E+00 0.  1.
         21   -1    0    0  501  503 -0.00000000000E+00 -0.00000000000E+00 -0.40738197219E+03  0.40738197219E+03  0.00000000000E+00 0. -1.
         24    1    1    2    0    0 -0.45601973073E+02 -0.74724360651E+01 -0.58170613422E+02  0.10948248019E+03  0.80419002446E+02 0.  1.
          1    1    1    2  501    0 -0.37299700671E+02  0.70201543574E+01 -0.30553923801E+03  0.30788760319E+03  0.00000000000E+00 0. -1.
         -2    1    1    2    0  502  0.82901673744E+02  0.45228170773E+00  0.85178095525E+02  0.11886210509E+03  0.00000000000E+00 0.  1.
<mgrwt>
<rscale>  2 0.10680383E+03</rscale>
<asrwt>0</asrwt>
<pdfrwt beam="1">  1       21 0.19823110E-01 0.10680383E+03</pdfrwt>
<pdfrwt beam="2">  1       21 0.62674149E-01 0.10680383E+03</pdfrwt>
<totfact> 0.57823210E+04</totfact>
</mgrwt>
</event>
<event>
 5    1  0.1595802E+000  0.9806841E+02  0.7546771E-02  0.1284411E+00
         21   -1    0    0  503  502  0.00000000000E+00  0.00000000000E+00  0.27603267581E+03  0.27603267581E+03  0.00000000000E+00 0.  1.
         21   -1    0    0  501  503 -0.00000000000E+00 -0.00000000000E+00 -0.22446659309E+03  0.22446659309E+03  0.00000000000E+00 0. -1.
         24    1    1    2    0    0 -0.11621335494E+02 -0.54451359268E+02  0.26492575627E+02  0.10133646176E+03  0.80419002446E+02 0.  1.
          1    1    1    2  501    0  0.12625758112E+02 -0.20116272053E+02 -0.17968446948E+03  0.18124729720E+03  0.00000000000E+00 0. -1.
         -2    1    1    2    0  502 -0.10044226188E+01  0.74567631321E+02  0.20475797657E+03  0.21791550995E+03  0.00000000000E+00 0.  1.
<mgrwt>
<rscale>  2 0.98068409E+02</rscale>
<asrwt>0</asrwt>
<pdfrwt beam="1">  1       21 0.42466565E-01 0.98068409E+02</pdfrwt>
<pdfrwt beam="2">  1       21 0.34533322E-01 0.98068409E+02</pdfrwt>
<totfact> 0.45460115E+04</totfact>
</mgrwt>
</event>
<event>
 5    1  0.1595802E+000  0.7295016E+02  0.7546771E-02  0.1350339E+00
         21   -1    0    0  503  502  0.00000000000E+00  0.00000000000E+00  0.46856255471E+03  0.46856255471E+03  0.00000000000E+00 0.  1.
         21   -1    0    0  501  503 -0.00000000000E+00 -0.00000000000E+00 -0.32842790495E+02  0.32842790495E+02  0.00000000000E+00 0. -1.
         24    1    1    2    0    0  0.17244802854E+02  0.20305735142E+02  0.38417967899E+03  0.39340938958E+03  0.80419002446E+02 0.  1.
          1    1    1    2  501    0 -0.10947935080E+02  0.18702070771E+02 -0.17895725295E+02  0.28104834415E+02  0.00000000000E+00 0. -1.
         -2    1    1    2    0  502 -0.62968677731E+01 -0.39007805913E+02  0.69435810515E+02  0.79891121208E+02  0.00000000000E+00 0.  1.
<mgrwt>
<rscale>  2 0.72950160E+02</rscale>
<asrwt>0</asrwt>
<pdfrwt beam="1">  1       21 0.72086542E-01 0.72950160E+02</pdfrwt>
<pdfrwt beam="2">  1       21 0.50527373E-02 0.72950160E+02</pdfrwt>
<totfact> 0.46611020E+05</totfact>
</mgrwt>
</event>
<event>
 5    1  0.1595802E+000  0.1352171E+03  0.7546771E-02  0.1219914E+00
         21   -1    0    0  503  502  0.00000000000E+00  0.00000000000E+00  0.25657069667E+02  0.25657069667E+02  0.00000000000E+00 0. -1.
         21   -1    0    0  501  503 -0.00000000000E+00 -0.00000000000E+00 -0.10078173473E+04  0.10078173473E+04  0.00000000000E+00 0. -1.
         24    1    1    2    0    0  0.15558508689E+02 -0.10426081129E+03 -0.30364953730E+03  0.33133463661E+03  0.80419002446E+02 0. -1.
          1    1    1    2  501    0 -0.52837621962E+02  0.63525413508E+02 -0.60277253297E+03  0.60840941722E+03  0.00000000000E+00 0. -1.
         -2    1    1    2    0  502  0.37279113274E+02  0.40735397778E+02 -0.75738207347E+02  0.93730363121E+02  0.00000000000E+00 0.  1.
<mgrwt>
<rscale>  2 0.13521711E+03</rscale>
<asrwt>0</asrwt>
<pdfrwt beam="1">  1       21 0.39472421E-02 0.13521711E+03</pdfrwt>
<pdfrwt beam="2">  1       21 0.15504880E+00 0.13521711E+03</pdfrwt>
<totfact> 0.11284844E+05</totfact>
</mgrwt>
</event>
<event>
 5    1  0.2922749E+000  0.8326543E+02  0.7546771E-02  0.1320032E+00
         21   -1    0    0  501  502  0.00000000000E+00  0.00000000000E+00  0.11629813380E+03  0.11629813380E+03  0.00000000000E+00 0. -1.
         21   -1    0    0  502  503 -0.00000000000E+00 -0.00000000000E+00 -0.94269254965E+03  0.94269254965E+03  0.00000000000E+00 0.  1.
         24    1    1    2    0    0 -0.49407849197E+02 -0.82300458643E+00  0.51618114639E+02  0.10758001028E+03  0.80419002446E+02 0.  0.
          1    1    1    2  501    0  0.35510175718E+02  0.25571678434E+02  0.23351290363E+02  0.49600061281E+02  0.00000000000E+00 0. -1.
         -2    1    1    2    0  503  0.13897673479E+02 -0.24748673847E+02 -0.90136382085E+03  0.90181061189E+03  0.00000000000E+00 0.  1.
<mgrwt>
<rscale>  2 0.83265434E+02</rscale>
<asrwt>0</asrwt>
<pdfrwt beam="1">  1       21 0.17892020E-01 0.83265434E+02</pdfrwt>
<pdfrwt beam="2">  1       21 0.14502963E+00 0.83265434E+02</pdfrwt>
<totfact> 0.10346489E+04</totfact>
</mgrwt>
</event>
<event>
 5    1  0.1595802E+000  0.8466958E+02  0.7546771E-02  0.1316299E+00
         21   -1    0    0  501  502  0.00000000000E+00  0.00000000000E+00  0.41415130335E+03  0.41415130335E+03  0.00000000000E+00 0. -1.
         21   -1    0    0  502  503 -0.00000000000E+00 -0.00000000000E+00 -0.11760051599E+03  0.11760051599E+03  0.00000000000E+00 0. -1.
         24    1    1    2    0    0  0.18991843792E+02  0.62687885680E+02 -0.67743102371E+02  0.12388222235E+03  0.80419002446E+02 0. -1.
          1    1    1    2  501    0 -0.10393284003E+02 -0.40818235991E+02  0.37821708968E+03  0.38055527282E+03  0.00000000000E+00 0. -1.
         -2    1    1    2    0  503 -0.85985597884E+01 -0.21869649689E+02 -0.13923199946E+02  0.27314324167E+02  0.00000000000E+00 0.  1.
<mgrwt>
<rscale>  2 0.84669581E+02</rscale>
<asrwt>0</asrwt>
<pdfrwt beam="1">  1       21 0.63715584E-01 0.84669581E+02</pdfrwt>
<pdfrwt beam="2">  1       21 0.18092387E-01 0.84669581E+02</pdfrwt>
<totfact> 0.66928050E+04</totfact>
</mgrwt>
</event>
<event>
 5    1  0.1595802E+000  0.1404901E+03  0.7546771E-02  0.1212671E+00
         21   -1    0    0  503  502  0.00000000000E+00  0.00000000000E+00  0.34614281224E+02  0.34614281224E+02  0.00000000000E+00 0. -1.
         21   -1    0    0  501  503 -0.00000000000E+00 -0.00000000000E+00 -0.67053071367E+03  0.67053071367E+03  0.00000000000E+00 0. -1.
         24    1    1    2    0    0  0.15100780784E+02  0.12336746217E+03 -0.38517289804E+03  0.41264142017E+03  0.80419002446E+02 0. -1.
          1    1    1    2  501    0  0.13333001288E+02 -0.79884745133E+02 -0.21415739207E+03  0.22896010571E+03  0.00000000000E+00 0. -1.
         -2    1    1    2    0  502 -0.28433782072E+02 -0.43482717032E+02 -0.36586142339E+02  0.63543469017E+02  0.00000000000E+00 0.  1.
<mgrwt>
<rscale>  2 0.14049013E+03</rscale>
<asrwt>0</asrwt>
<pdfrwt beam="1">  1       21 0.53252741E-02 0.14049013E+03</pdfrwt>
<pdfrwt beam="2">  1       21 0.10315857E+00 0.14049013E+03</pdfrwt>
<totfact> 0.18747584E+05</totfact>
</mgrwt>
</event>
<event>
 5    1  0.1595802E+000  0.1350393E+03  0.7546771E-02  0.1220164E+00
         21   -1    0    0  503  502  0.00000000000E+00  0.00000000000E+00  0.34723645142E+03  0.34723645142E+03  0.00000000000E+00 0. -1.
         21   -1    0    0  501  503 -0.00000000000E+00 -0.00000000000E+00 -0.66325517688E+02  0.66325517688E+02  0.00000000000E+00 0. -1.
         24    1    1    2    0    0 -0.11529458389E+03 -0.15799709639E+02  0.16743623135E+03  0.21919073754E+03  0.80419002446E+02 0. -1.
          1    1    1    2  501    0  0.10634702435E+03 -0.44964457965E+01  0.33819729986E+02  0.11168563806E+03  0.00000000000E+00 0. -1.
         -2    1    1    2    0  502  0.89475595360E+01  0.20296155435E+02  0.79654972395E+02  0.82685593512E+02  0.00000000000E+00 0.  1.
<mgrwt>
<rscale>  2 0.13503928E+03</rscale>
<asrwt>0</asrwt>
<pdfrwt beam="1">  1       21 0.53420991E-01 0.13503928E+03</pdfrwt>
<pdfrwt beam="2">  1       21 0.10203926E-01 0.13503928E+03</pdfrwt>
<totfact> 0.26334887E+05</totfact>
</mgrwt>
</event>
<event>
 5    1  0.1595802E+000  0.7389559E+02  0.7546771E-02  0.1347326E+00
         21   -1    0    0  501  502  0.00000000000E+00  0.00000000000E+00  0.11267313043E+03  0.11267313043E+03  0.00000000000E+00 0. -1.
         21   -1    0    0  502  503 -0.00000000000E+00 -0.00000000000E+00 -0.20204578822E+03  0.20204578822E+03  0.00000000000E+00 0. -1.
         24    1    1    2    0    0  0.18276564601E+02 -0.95150875773E+01 -0.16509787317E+03  0.18479473311E+03  0.80419002446E+02 0. -1.
          1    1    1    2  501    0 -0.40492943867E+02  0.12453105097E+02  0.92626856046E+02  0.10185525411E+03  0.00000000000E+00 0. -1.
         -2    1    1    2    0  503  0.22216379265E+02 -0.29380175198E+01 -0.16901640659E+02  0.28068931429E+02  0.00000000000E+00 0.  1.
<mgrwt>
<rscale>  2 0.73895587E+02</rscale>
<asrwt>0</asrwt>
<pdfrwt beam="1">  1       21 0.17334328E-01 0.73895587E+02</pdfrwt>
<pdfrwt beam="2">  1       21 0.31083967E-01 0.73895587E+02</pdfrwt>
<totfact> 0.30602917E+05</totfact>
</mgrwt>
</event>
<event>
 5    1  0.1595802E+000  0.6421687E+02  0.7546771E-02  0.1380942E+00
         21   -1    0    0  501  502  0.00000000000E+00  0.00000000000E+00  0.10217246005E+02  0.10217246005E+02  0.00000000000E+00 0.  1.
         21   -1    0    0  502  503 -0.00000000000E+00 -0.00000000000E+00 -0.85306810229E+03  0.85306810229E+03  0.00000000000E+00 0.  1.
         24    1    1    2    0    0 -0.61883641053E+01 -0.14348263980E+02 -0.23830901730E+03  0.25199716706E+03  0.80419002446E+02 0.  1.
          1    1    1    2  501    0 -0.16410571603E+02  0.17152471490E+02 -0.41680941535E+02  0.47966811711E+02  0.00000000000E+00 0. -1.
         -2    1    1    2    0  503  0.22598935708E+02 -0.28042075099E+01 -0.56286089746E+03  0.56332136952E+03  0.00000000000E+00 0.  1.
<mgrwt>
<rscale>  2 0.64216873E+02</rscale>
<asrwt>0</asrwt>
<pdfrwt beam="1">  1       21 0.15718835E-02 0.64216873E+02</pdfrwt>
<pdfrwt beam="2">  1       21 0.13124128E+00 0.64216873E+02</pdfrwt>
<totfact> 0.77970338E+05</totfact>
</mgrwt>
</event>
<event>
 5    1  0.1595802E+000  0.1081156E+03  0.7546771E-02  0.1264100E+00
         21   -1    0    0  501  502  0.00000000000E+00  0.00000000000E+00  0.47247691331E+02  0.47247691331E+02  0.00000000000E+00 0. -1.
         21   -1    0    0  502  503 -0.00000000000E+00 -0.00000000000E+00 -0.40564506810E+03  0.40564506810E+03  0.00000000000E+00 0.  1.
         24    1    1    2    0    0 -0.31731420267E+02  0.21026634095E+02 -0.40102203128E+02  0.97593058276E+02  0.80419002446E+02 0.  0.
          1    1    1    2  501    0  0.57325915045E+02 -0.58482232828E+02 -0.86536361433E+02  0.11914266214E+03  0.00000000000E+00 0. -1.
         -2    1    1    2    0  503 -0.25594494778E+02  0.37455598733E+02 -0.23175881221E+03  0.23615703902E+03  0.00000000000E+00 0.  1.
<mgrwt>
<rscale>  2 0.10811556E+03</rscale>
<asrwt>0</asrwt>
<pdfrwt beam="1">  1       21 0.72688756E-02 0.10811556E+03</pdfrwt>
<pdfrwt beam="2">  1       21 0.62406934E-01 0.10811556E+03</pdfrwt>
<totfact> 0.34306970E+05</totfact>
</mgrwt>
</event>
<event>
 5    1  0.1595802E+000  0.8450622E+02  0.7546771E-02  0.1316729E+00
         21   -1    0    0  503  502  0.00000000000E+00  0.00000000000E+00  0.89398243710E+02  0.89398243710E+02  0.00000000000E+00 0.  1.
         21   -1    0    0  501  503 -0.00000000000E+00 -0.00000000000E+00 -0.12067708996E+03  0.12067708996E+03  0.00000000000E+00 0. -1.
         24    1    1    2    0    0  0.68516807158E+01  0.30408879090E+02 -0.37420854250E+01  0.86329975176E+02  0.80419002446E+02 0. -1.
          1    1    1    2  501    0  0.21296876089E+01 -0.55794958184E+02 -0.59737521288E+02  0.81769091824E+02  0.00000000000E+00 0. -1.
         -2    1    1    2    0  502 -0.89813683247E+01  0.25386079094E+02  0.32200760466E+02  0.41976266668E+02  0.00000000000E+00 0.  1.
<mgrwt>
<rscale>  2 0.84506219E+02</rscale>
<asrwt>0</asrwt>
<pdfrwt beam="1">  1       21 0.13753576E-01 0.84506219E+02</pdfrwt>
<pdfrwt beam="2">  1       21 0.18565706E-01 0.84506219E+02</pdfrwt>
<totfact> 0.12056384E+06</totfact>
</mgrwt>
</event>
<event>
 5    1  0.1595802E+000  0.8943156E+02  0.7546771E-02  0.1304234E+00
         21   -1    0    0  501  502  0.00000000000E+00  0.00000000000E+00  0.13762782457E+04  0.13762782457E+04  0.00000000000E+00 0.  1.
         21   -1    0    0  502  503 -0.00000000000E+00 -0.00000000000E+00 -0.58149790012E+01  0.58149790012E+01  0.00000000000E+00 0. -1.
         24    1    1    2    0    0  0.48705576764E+02  0.38838638992E+02  0.79650930756E+03  0.80297880798E+03  0.80419002446E+02 0.  0.
          1    1    1    2  501    0 -0.27257241137E+02 -0.46883449035E+02  0.40374283555E+03  0.40736874235E+03  0.00000000000E+00 0. -1.
         -2    1    1    2    0  503 -0.21448335627E+02  0.80448100422E+01  0.17021112359E+03  0.17174567436E+03  0.00000000000E+00 0.  1.
<mgrwt>
<rscale>  2 0.89431562E+02</rscale>
<asrwt>0</asrwt>
<pdfrwt beam="1">  1       21 0.21173485E+00 0.89431562E+02</pdfrwt>
<pdfrwt beam="2">  1       21 0.89461325E-03 0.89431562E+02</pdfrwt>
<totfact> 0.53094412E+05</totfact>
</mgrwt>
</event>
<event>
 5    1  0.1595802E+000  0.6907609E+02  0.7546771E-02  0.1363263E+00
         21   -1    0    0  503  502  0.00000000000E+00  0.00000000000E+00  0.97546314897E+02  0.97546314897E+02  0.00000000000E+00 0. -1.
         21   -1    0    0  501  503 -0.00000000000E+00 -0.00000000000E+00 -0.68274685945E+02  0.68274685945E+02  0.00000000000E+00 0. -1.
         24    1    1    2    0    0  0.13721373599E+02  0.15285726294E+02  0.20205148781E+02  0.85424782782E+02  0.80419002446E+02 0.  0.
          1    1    1    2  501    0 -0.13445236874E+02  0.17664846063E+02 -0.24703902376E+02  0.33213009102E+02  0.00000000000E+00 0. -1.
         -2    1    1    2    0  502 -0.27613672457E+00 -0.32950572357E+02  0.33770382547E+02  0.47183208958E+02  0.00000000000E+00 0.  1.
<mgrwt>
<rscale>  2 0.69076091E+02</rscale>
<asrwt>0</asrwt>
<pdfrwt beam="1">  1       21 0.15007125E-01 0.69076091E+02</pdfrwt>
<pdfrwt beam="2">  1       21 0.10503798E-01 0.69076091E+02</pdfrwt>
<totfact> 0.28023277E+06</totfact>
</mgrwt>
</event>
<event>
 5    1  0.1595802E+000  0.6802530E+02  0.7546771E-02  0.1366940E+00
         21   -1    0    0  501  502  0.00000000000E+00  0.00000000000E+00  0.38765582507E+03  0.38765582507E+03  0.00000000000E+00 0. -1.
         21   -1    0    0  502  503 -0.00000000000E+00 -0.00000000000E+00 -0.12058396250E+02  0.12058396250E+02  0.00000000000E+00 0.  1.
         24    1    1    2    0    0  0.29906347803E+02  0.68302476790E+01  0.22270781895E+03  0.23876145103E+03  0.80419002446E+02 0.  0.
          1    1    1    2  501    0 -0.15276178879E+02  0.16471863218E+02  0.59730146868E+02  0.63815157791E+02  0.00000000000E+00 0. -1.
         -2    1    1    2    0  503 -0.14630168924E+02 -0.23302110897E+02  0.93159462999E+02  0.97137612495E+02  0.00000000000E+00 0.  1.
<mgrwt>
<rscale>  2 0.68025295E+02</rscale>
<asrwt>0</asrwt>
<pdfrwt beam="1">  1       21 0.59639348E-01 0.68025295E+02</pdfrwt>
<pdfrwt beam="2">  1       21 0.18551382E-02 0.68025295E+02</pdfrwt>
<totfact> 0.35120414E+06</totfact>
</mgrwt>
</event>
<event>
 5    1  0.1595802E+000  0.9137357E+02  0.7546771E-02  0.1299559E+00
         21   -1    0    0  503  502  0.00000000000E+00  0.00000000000E+00  0.25570073834E+02  0.25570073834E+02  0.00000000000E+00 0. -1.
         21   -1    0    0  501  503 -0.00000000000E+00 -0.00000000000E+00 -0.54816601205E+03  0.54816601205E+03  0.00000000000E+00 0.  1.
         24    1    1    2    0    0 -0.17096891097E+02 -0.42897770078E+02 -0.92084017217E+02  0.13068743070E+03  0.80419002446E+02 0. -1.
          1    1    1    2  501    0 -0.17221196264E+02 -0.14914279438E+02 -0.23891188819E+03  0.23999561590E+03  0.00000000000E+00 0. -1.
         -2    1    1    2    0  502  0.34318087361E+02  0.57812049515E+02 -0.19160003280E+03  0.20305303928E+03  0.00000000000E+00 0.  1.
<mgrwt>
<rscale>  2 0.91373571E+02</rscale>
<asrwt>0</asrwt>
<pdfrwt beam="1">  1       21 0.39338579E-02 0.91373571E+02</pdfrwt>
<pdfrwt beam="2">  1       21 0.84333224E-01 0.91373571E+02</pdfrwt>
<totfact> 0.49903421E+05</totfact>
</mgrwt>
</event>
<event>
 5    1  0.1595802E+000  0.7981015E+02  0.7546771E-02  0.1329591E+00
         21   -1    0    0  503  502  0.00000000000E+00  0.00000000000E+00  0.67106496168E+03  0.67106496168E+03  0.00000000000E+00 0.  1.
         21   -1    0    0  501  503 -0.00000000000E+00 -0.00000000000E+00 -0.17028625476E+02  0.17028625476E+02  0.00000000000E+00 0. -1.
         24    1    1    2    0    0  0.32756431916E+00 -0.10521847497E+02  0.23661761498E+03  0.25013182174E+03  0.80419002446E+02 0. -1.
          1    1    1    2  501    0  0.38283929524E+02  0.11230714577E+02  0.33473791566E+02  0.52079582674E+02  0.00000000000E+00 0. -1.
         -2    1    1    2    0  502 -0.38611493843E+02 -0.70886708001E+00  0.38394492966E+03  0.38588218275E+03  0.00000000000E+00 0.  1.
<mgrwt>
<rscale>  2 0.79810146E+02</rscale>
<asrwt>0</asrwt>
<pdfrwt beam="1">  1       21 0.10324074E+00 0.79810146E+02</pdfrwt>
<pdfrwt beam="2">  1       21 0.26197891E-02 0.79810146E+02</pdfrwt>
<totfact> 0.61096451E+05</totfact>
</mgrwt>
</event>
<event>
 5    1  0.1595802E+000  0.2123773E+03  0.7546771E-02  0.1139697E+00
         21   -1    0    0  501  502  0.00000000000E+00  0.00000000000E+00  0.35718389581E+03  0.35718389581E+03  0.00000000000E+00 0. -1.
         21   -1    0    0  502  503 -0.00000000000E+00 -0.00000000000E+00 -0.34039771029E+03  0.34039771029E+03  0.00000000000E+00 0.  1.
         24    1    1    2    0    0  0.18688283463E+03 -0.48067530511E+02  0.24827166467E+03  0.32456388709E+03  0.80419002446E+02 0. -1.
          1    1    1    2  501    0 -0.17215363498E+03  0.72475254168E+01 -0.40282885289E+02  0.17695228597E+03  0.00000000000E+00 0. -1.
         -2    1    1    2    0  503 -0.14729199649E+02  0.40820005095E+02 -0.19120259386E+03  0.19606543305E+03  0.00000000000E+00 0.  1.
<mgrwt>
<rscale>  2 0.21237731E+03</rscale>
<asrwt>0</asrwt>
<pdfrwt beam="1">  1       21 0.54951369E-01 0.21237731E+03</pdfrwt>
<pdfrwt beam="2">  1       21 0.52368878E-01 0.21237731E+03</pdfrwt>
<totfact> 0.10666784E+04</totfact>
</mgrwt>
</event>
<event>
 5    1  0.1595802E+000  0.9133529E+02  0.7546771E-02  0.1299650E+00
         21   -1    0    0  503  502  0.00000000000E+00  0.00000000000E+00  0.13475557559E+02  0.13475557559E+02  0.00000000000E+00 0. -1.
         21   -1    0    0  501  503 -0.00000000000E+00 -0.00000000000E+00 -0.75392328080E+03  0.75392328080E+03  0.00000000000E+00 0. -1.
         24    1    1    2    0    0 -0.57452994697E+02 -0.30853470658E+02 -0.37973135918E+03  0.39359357762E+03  0.80419002446E+02 0. -1.
          1    1    1    2  501    0  0.26114669976E+02  0.38830841405E+02 -0.31097549225E+03  0.31447665575E+03  0.00000000000E+00 0. -1.
         -2    1    1    2    0  502  0.31338324721E+02 -0.79773707468E+01 -0.49740871817E+02  0.59328604985E+02  0.00000000000E+00 0.  1.
<mgrwt>
<rscale>  2 0.91335286E+02</rscale>
<asrwt>0</asrwt>
<pdfrwt beam="1">  1       21 0.20731627E-02 0.91335286E+02</pdfrwt>
<pdfrwt beam="2">  1       21 0.11598820E+00 0.91335286E+02</pdfrwt>
<totfact> 0.67634981E+05</totfact>
</mgrwt>
</event>
<event>
 5    1  0.1595802E+000  0.6387970E+02  0.7546771E-02  0.1382236E+00
         21   -1    0    0  503  502  0.00000000000E+00  0.00000000000E+00  0.14494658019E+02  0.14494658019E+02  0.00000000000E+00 0.  1.
         21   -1    0    0  501  503 -0.00000000000E+00 -0.00000000000E+00 -0.33287883688E+03  0.33287883688E+03  0.00000000000E+00 0.  1.
         24    1    1    2    0    0  0.12362276717E+02  0.80648237000E+01 -0.24173253916E+03  0.25518562598E+03  0.80419002446E+02 0.  1.
          1    1    1    2  501    0 -0.18800900755E+02  0.13723829854E+02 -0.58971519040E+02  0.63399191107E+02  0.00000000000E+00 0. -1.
         -2    1    1    2    0  502  0.64386240383E+01 -0.21788653554E+02 -0.17680120659E+02  0.28788677805E+02  0.00000000000E+00 0.  1.
<mgrwt>
<rscale>  2 0.63879697E+02</rscale>
<asrwt>0</asrwt>
<pdfrwt beam="1">  1       21 0.22299475E-02 0.63879697E+02</pdfrwt>
<pdfrwt beam="2">  1       21 0.51212127E-01 0.63879697E+02</pdfrwt>
<totfact> 0.35714510E+06</totfact>
</mgrwt>
</event>
<event>
 5    1  0.1595802E+000  0.7428485E+02  0.7546771E-02  0.1346100E+00
         21   -1    0    0  503  502  0.00000000000E+00  0.00000000000E+00  0.46487233567E+03  0.46487233567E+03  0.00000000000E+00 0. -1.
         21   -1    0    0  501  503 -0.00000000000E+00 -0.00000000000E+00 -0.31116136982E+02  0.31116136982E+02  0.00000000000E+00 0. -1.
         24    1    1    2    0    0 -0.25338013685E+02  0.30640027972E+02  0.31622250104E+03  0.32870155517E+03  0.80419002446E+02 0. -1.
          1    1    1    2  501    0  0.33809466155E+02 -0.80812497431E+01 -0.11041375524E+02  0.36473258321E+02  0.00000000000E+00 0. -1.
         -2    1    1    2    0  502 -0.84714524700E+01 -0.22558778229E+02  0.12857507317E+03  0.13081365916E+03  0.00000000000E+00 0.  1.
<mgrwt>
<rscale>  2 0.74284854E+02</rscale>
<asrwt>0</asrwt>
<pdfrwt beam="1">  1       21 0.71518816E-01 0.74284854E+02</pdfrwt>
<pdfrwt beam="2">  1       21 0.47870983E-02 0.74284854E+02</pdfrwt>
<totfact> 0.51842031E+05</totfact>
</mgrwt>
</event>
<event>
 5    1  0.1595802E+000  0.8001273E+02  0.7546771E-02  0.1329015E+00
         21   -1    0    0  503  502  0.00000000000E+00  0.00000000000E+00  0.24034522441E+03  0.24034522441E+03  0.00000000000E+00 0. -1.
         21   -1    0    0  501  503 -0.00000000000E+00 -0.00000000000E+00 -0.83717722311E+02  0.83717722311E+02  0.00000000000E+00 0. -1.
         24    1    1    2    0    0  0.28066919877E+02  0.41048925620E+02  0.16813522592E+03  0.19289747649E+03  0.80419002446E+02 0. -1.
          1    1    1    2  501    0  0.98687419637E+01 -0.19475331365E+02 -0.61230993595E+02  0.65007039437E+02  0.00000000000E+00 0. -1.
         -2    1    1    2    0  502 -0.37935661841E+02 -0.21573594255E+02  0.49723269776E+02  0.66158430798E+02  0.00000000000E+00 0.  1.
<mgrwt>
<rscale>  2 0.80012734E+02</rscale>
<asrwt>0</asrwt>
<pdfrwt beam="1">  1       21 0.36976188E-01 0.80012734E+02</pdfrwt>
<pdfrwt beam="2">  1       21 0.12879650E-01 0.80012734E+02</pdfrwt>
<totfact> 0.37095697E+05</totfact>
</mgrwt>
</event>
<event>
 5    1  0.1595802E+000  0.1041651E+03  0.7546771E-02  0.1271773E+00
         21   -1    0    0  503  502  0.00000000000E+00  0.00000000000E+00  0.17955706072E+04  0.17955706072E+04  0.00000000000E+00 0.  1.
         21   -1    0    0  501  503 -0.00000000000E+00 -0.00000000000E+00 -0.13292466572E+02  0.13292466572E+02  0.00000000000E+00 0.  1.
         24    1    1    2    0    0 -0.47489481151E+02 -0.96069208969E+01  0.45848928948E+03  0.46800340627E+03  0.80419002446E+02 0.  0.
          1    1    1    2  501    0 -0.26166979330E+02  0.28206268926E+02  0.42530364795E+02  0.57350992525E+02  0.00000000000E+00 0. -1.
         -2    1    1    2    0  502  0.73656460480E+02 -0.18599348029E+02  0.12812584863E+04  0.12835086749E+04  0.00000000000E+00 0.  1.
<mgrwt>
<rscale>  2 0.10416508E+03</rscale>
<asrwt>0</asrwt>
<pdfrwt beam="1">  1       21 0.27624144E+00 0.10416508E+03</pdfrwt>
<pdfrwt beam="2">  1       21 0.20449963E-02 0.10416508E+03</pdfrwt>
<totfact> 0.60722453E+04</totfact>
</mgrwt>
</event>
<event>
 5    1  0.1595802E+000  0.6581229E+02  0.7546771E-02  0.1374942E+00
         21   -1    0    0  501  502  0.00000000000E+00  0.00000000000E+00  0.28293014419E+03  0.28293014419E+03  0.00000000000E+00 0. -1.
         21   -1    0    0  502  503 -0.00000000000E+00 -0.00000000000E+00 -0.18977986454E+02  0.18977986454E+02  0.00000000000E+00 0.  1.
         24    1    1    2    0    0 -0.20099107460E+01 -0.67977557984E+01  0.11264825044E+03  0.13858965873E+03  0.80419002446E+02 0.  0.
          1    1    1    2  501    0  0.24159708964E+02 -0.65515264593E+01  0.12061813631E+03  0.12318826585E+03  0.00000000000E+00 0. -1.
         -2    1    1    2    0  503 -0.22149798218E+02  0.13349282258E+02  0.30685770992E+02  0.40130206071E+02  0.00000000000E+00 0.  1.
<mgrwt>
<rscale>  2 0.65812287E+02</rscale>
<asrwt>0</asrwt>
<pdfrwt beam="1">  1       21 0.43527711E-01 0.65812287E+02</pdfrwt>
<pdfrwt beam="2">  1       21 0.29196904E-02 0.65812287E+02</pdfrwt>
<totfact> 0.32198162E+06</totfact>
</mgrwt>
</event>
<event>
 5    1  0.1595802E+000  0.9240867E+02  0.7546771E-02  0.1297121E+00
         21   -1    0    0  503  502  0.00000000000E+00  0.00000000000E+00  0.86122204438E+02  0.86122204438E+02  0.00000000000E+00 0.  1.
         21   -1    0    0  501  503 -0.00000000000E+00 -0.00000000000E+00 -0.15950677285E+03  0.15950677285E+03  0.00000000000E+00 0.  1.
         24    1    1    2    0    0 -0.71915719767E+01 -0.57785814883E+02 -0.78375803699E+02  0.12649467052E+03  0.80419002446E+02 0.  0.
          1    1    1    2  501    0  0.33376710396E+02  0.45951747019E+02 -0.37341451378E+02  0.67970227615E+02  0.00000000000E+00 0. -1.
         -2    1    1    2    0  502 -0.26185138419E+02  0.11834067864E+02  0.42332686663E+02  0.51164079160E+02  0.00000000000E+00 0.  1.
<mgrwt>
<rscale>  2 0.92408668E+02</rscale>
<asrwt>0</asrwt>
<pdfrwt beam="1">  1       21 0.13249570E-01 0.92408668E+02</pdfrwt>
<pdfrwt beam="2">  1       21 0.24539503E-01 0.92408668E+02</pdfrwt>
<totfact> 0.77201611E+05</totfact>
</mgrwt>
</event>
<event>
 5    1  0.1595802E+000  0.9402059E+02  0.7546771E-02  0.1293397E+00
         21   -1    0    0  503  502  0.00000000000E+00  0.00000000000E+00  0.13247424050E+04  0.13247424050E+04  0.00000000000E+00 0.  1.
         21   -1    0    0  501  503 -0.00000000000E+00 -0.00000000000E+00 -0.92825500900E+01  0.92825500900E+01  0.00000000000E+00 0.  1.
         24    1    1    2    0    0 -0.61483688934E+02  0.23171337708E+02  0.41395302990E+03  0.42678036719E+03  0.80419002446E+02 0.  1.
          1    1    1    2  501    0  0.23525588477E+02  0.16923962136E+02  0.10804762529E+03  0.11186672043E+03  0.00000000000E+00 0. -1.
         -2    1    1    2    0  502  0.37958100457E+02 -0.40095299844E+02  0.79345919969E+03  0.79537786746E+03  0.00000000000E+00 0.  1.
<mgrwt>
<rscale>  2 0.94020588E+02</rscale>
<asrwt>0</asrwt>
<pdfrwt beam="1">  1       21 0.20380637E+00 0.94020588E+02</pdfrwt>
<pdfrwt beam="2">  1       21 0.14280857E-02 0.94020588E+02</pdfrwt>
<totfact> 0.28374402E+05</totfact>
</mgrwt>
</event>
<event>
 5    1  0.1595802E+000  0.8200781E+02  0.7546771E-02  0.1323448E+00
         21   -1    0    0  503  502  0.00000000000E+00  0.00000000000E+00  0.99715767333E+02  0.99715767333E+02  0.00000000000E+00 0. -1.
         21   -1    0    0  501  503 -0.00000000000E+00 -0.00000000000E+00 -0.30430630339E+03  0.30430630339E+03  0.00000000000E+00 0. -1.
         24    1    1    2    0    0 -0.51862753060E+02  0.65446226191E+01  0.19196924337E+01  0.95934761237E+02  0.80419002446E+02 0.  0.
          1    1    1    2  501    0  0.10757854429E+02  0.17453481588E+02 -0.24562535865E+03  0.24647955750E+03  0.00000000000E+00 0. -1.
         -2    1    1    2    0  502  0.41104898632E+02 -0.23998104207E+02  0.39115130163E+02  0.61607751986E+02  0.00000000000E+00 0.  1.
<mgrwt>
<rscale>  2 0.82007810E+02</rscale>
<asrwt>0</asrwt>
<pdfrwt beam="1">  1       21 0.15340887E-01 0.82007810E+02</pdfrwt>
<pdfrwt beam="2">  1       21 0.46816354E-01 0.82007810E+02</pdfrwt>
<totfact> 0.17037493E+05</totfact>
</mgrwt>
</event>
<event>
 5    1  0.1595802E+000  0.7552497E+02  0.7546771E-02  0.1342253E+00
         21   -1    0    0  503  502  0.00000000000E+00  0.00000000000E+00  0.35355847925E+03  0.35355847925E+03  0.00000000000E+00 0.  1.
         21   -1    0    0  501  503 -0.00000000000E+00 -0.00000000000E+00 -0.59683750206E+02  0.59683750206E+02  0.00000000000E+00 0.  1.
         24    1    1    2    0    0 -0.46796047051E+02  0.19622619551E+02  0.21388060640E+02  0.97465800720E+02  0.80419002446E+02 0.  1.
          1    1    1    2  501    0  0.21076477527E+02  0.35111395113E+01 -0.15069850658E+02  0.26146632755E+02  0.00000000000E+00 0. -1.
         -2    1    1    2    0  502  0.25719569524E+02 -0.23133759062E+02  0.28755651906E+03  0.28962979598E+03  0.00000000000E+00 0.  1.
<mgrwt>
<rscale>  2 0.75524972E+02</rscale>
<asrwt>0</asrwt>
<pdfrwt beam="1">  1       21 0.54393611E-01 0.75524972E+02</pdfrwt>
<pdfrwt beam="2">  1       21 0.91821156E-02 0.75524972E+02</pdfrwt>
<totfact> 0.30834351E+05</totfact>
</mgrwt>
</event>
<event>
 5    1  0.1595802E+000  0.8431345E+02  0.7546771E-02  0.1317238E+00
         21   -1    0    0  501  502  0.00000000000E+00  0.00000000000E+00  0.19700638881E+03  0.19700638881E+03  0.00000000000E+00 0. -1.
         21   -1    0    0  502  503 -0.00000000000E+00 -0.00000000000E+00 -0.61969037991E+02  0.61969037991E+02  0.00000000000E+00 0. -1.
         24    1    1    2    0    0  0.29163952364E+02  0.94291393383E+01  0.14945668390E+03  0.17246437633E+03  0.80419002446E+02 0. -1.
          1    1    1    2  501    0 -0.55338509631E+02 -0.20772754726E+01  0.74091204700E+00  0.55382440107E+02  0.00000000000E+00 0. -1.
         -2    1    1    2    0  503  0.26174557267E+02 -0.73518638657E+01 -0.15160245132E+02  0.31128610359E+02  0.00000000000E+00 0.  1.
<mgrwt>
<rscale>  2 0.84313446E+02</rscale>
<asrwt>0</asrwt>
<pdfrwt beam="1">  1       21 0.30308675E-01 0.84313446E+02</pdfrwt>
<pdfrwt beam="2">  1       21 0.95336982E-02 0.84313446E+02</pdfrwt>
<totfact> 0.91919234E+05</totfact>
</mgrwt>
</event>
<event>
 5    1  0.1595802E+000  0.1782614E+03  0.7546771E-02  0.1169496E+00
         21   -1    0    0  503  502  0.00000000000E+00  0.00000000000E+00  0.47481558566E+03  0.47481558566E+03  0.00000000000E+00 0. -1.
         21   -1    0    0  501  503 -0.00000000000E+00 -0.00000000000E+00 -0.86918521017E+02  0.86918521017E+02  0.00000000000E+00 0.  1.
         24    1    1    2    0    0 -0.14150562630E+03  0.59200213392E+02  0.17881072448E+03  0.24893573203E+03  0.80419002446E+02 0.  1.
          1    1    1    2  501    0  0.14153855464E+03 -0.79964850492E+02  0.78418596864E+02  0.18049104160E+03  0.00000000000E+00 0. -1.
         -2    1    1    2    0  502 -0.32928340173E-01  0.20764637101E+02  0.13066774330E+03  0.13230733305E+03  0.00000000000E+00 0.  1.
<mgrwt>
<rscale>  2 0.17826145E+03</rscale>
<asrwt>0</asrwt>
<pdfrwt beam="1">  1       21 0.73048550E-01 0.17826145E+03</pdfrwt>
<pdfrwt beam="2">  1       21 0.13372080E-01 0.17826145E+03</pdfrwt>
<totfact> 0.81944398E+04</totfact>
</mgrwt>
</event>
<event>
 5    1  0.1595802E+000  0.1712984E+03  0.7546771E-02  0.1176501E+00
         21   -1    0    0  501  502  0.00000000000E+00  0.00000000000E+00  0.27605142940E+03  0.27605142940E+03  0.00000000000E+00 0.  1.
         21   -1    0    0  502  503 -0.00000000000E+00 -0.00000000000E+00 -0.14402185042E+03  0.14402185042E+03  0.00000000000E+00 0.  1.
         24    1    1    2    0    0  0.11921460949E+03 -0.88878791025E+02  0.28080485418E+01  0.16907591106E+03  0.80419002446E+02 0.  1.
          1    1    1    2  501    0  0.13205813722E+01  0.45381521671E+02  0.11306459778E+03  0.12183936029E+03  0.00000000000E+00 0. -1.
         -2    1    1    2    0  503 -0.12053519086E+03  0.43497269354E+02  0.16156932657E+02  0.12915800847E+03  0.00000000000E+00 0.  1.
<mgrwt>
<rscale>  2 0.17129839E+03</rscale>
<asrwt>0</asrwt>
<pdfrwt beam="1">  1       21 0.42469450E-01 0.17129839E+03</pdfrwt>
<pdfrwt beam="2">  1       21 0.22157208E-01 0.17129839E+03</pdfrwt>
<totfact> 0.10242198E+05</totfact>
</mgrwt>
</event>
<event>
 5    1  0.1595802E+000  0.7825118E+02  0.7546771E-02  0.1334089E+00
         21   -1    0    0  501  502  0.00000000000E+00  0.00000000000E+00  0.13206016763E+02  0.13206016763E+02  0.00000000000E+00 0.  1.
         21   -1    0    0  502  503 -0.00000000000E+00 -0.00000000000E+00 -0.48999347078E+03  0.48999347078E+03  0.00000000000E+00 0. -1.
         24    1    1    2    0    0  0.11318661189E+02  0.39753589757E+01 -0.22374511530E+03  0.23806093368E+03  0.80419002446E+02 0.  1.
          1    1    1    2  501    0 -0.82354826351E+01  0.35071322292E+02 -0.80292978893E+02  0.88004450348E+02  0.00000000000E+00 0. -1.
         -2    1    1    2    0  503 -0.30831785535E+01 -0.39046681267E+02 -0.17274935982E+03  0.17713410351E+03  0.00000000000E+00 0.  1.
<mgrwt>
<rscale>  2 0.78251182E+02</rscale>
<asrwt>0</asrwt>
<pdfrwt beam="1">  1       21 0.20316946E-02 0.78251182E+02</pdfrwt>
<pdfrwt beam="2">  1       21 0.75383622E-01 0.78251182E+02</pdfrwt>
<totfact> 0.18589470E+06</totfact>
</mgrwt>
</event>
<event>
 5    1  0.1595802E+000  0.9117382E+02  0.7546771E-02  0.1300034E+00
         21   -1    0    0  503  502  0.00000000000E+00  0.00000000000E+00  0.58531398482E+02  0.58531398482E+02  0.00000000000E+00 0. -1.
         21   -1    0    0  501  503 -0.00000000000E+00 -0.00000000000E+00 -0.78729618026E+03  0.78729618026E+03  0.00000000000E+00 0. -1.
         24    1    1    2    0    0 -0.52250023230E+02  0.45341068341E+02 -0.30669195430E+01  0.10612492335E+03  0.80419002446E+02 0. -1.
          1    1    1    2  501    0  0.34944849595E+01 -0.21885676585E+02 -0.62497852167E+03  0.62537136712E+03  0.00000000000E+00 0. -1.
         -2    1    1    2    0  502  0.48755538271E+02 -0.23455391755E+02 -0.10071934057E+03  0.11433128828E+03  0.00000000000E+00 0.  1.
<mgrwt>
<rscale>  2 0.91173820E+02</rscale>
<asrwt>0</asrwt>
<pdfrwt beam="1">  1       21 0.90048319E-02 0.91173820E+02</pdfrwt>
<pdfrwt beam="2">  1       21 0.12112247E+00 0.91173820E+02</pdfrwt>
<totfact> 0.53571465E+04</totfact>
</mgrwt>
</event>
<event>
 5    1  0.1595802E+000  0.7909182E+02  0.7546771E-02  0.1331649E+00
         21   -1    0    0  503  502  0.00000000000E+00  0.00000000000E+00  0.83539283021E+02  0.83539283021E+02  0.00000000000E+00 0.  1.
         21   -1    0    0  501  503 -0.00000000000E+00 -0.00000000000E+00 -0.12938880018E+03  0.12938880018E+03  0.00000000000E+00 0.  1.
         24    1    1    2    0    0  0.69007529369E+01  0.41808512652E+02 -0.57198241689E+02  0.10739844937E+03  0.80419002446E+02 0.  1.
          1    1    1    2  501    0 -0.26730146370E+02 -0.76779828931E+01 -0.34965139580E+02  0.44676762776E+02  0.00000000000E+00 0. -1.
         -2    1    1    2    0  502  0.19829393433E+02 -0.34130529759E+02  0.46313864114E+02  0.60852871047E+02  0.00000000000E+00 0.  1.
<mgrwt>
<rscale>  2 0.79091818E+02</rscale>
<asrwt>0</asrwt>
<pdfrwt beam="1">  1       21 0.12852197E-01 0.79091818E+02</pdfrwt>
<pdfrwt beam="2">  1       21 0.19905969E-01 0.79091818E+02</pdfrwt>
<totfact> 0.11947505E+06</totfact>
</mgrwt>
</event>
<event>
 5    1  0.1595802E+000  0.6389491E+02  0.7546771E-02  0.1382177E+00
         21   -1    0    0  503  502  0.00000000000E+00  0.00000000000E+00  0.82310342944E+02  0.82310342944E+02  0.00000000000E+00 0. -1.
         21   -1    0    0  501  503 -0.00000000000E+00 -0.00000000000E+00 -0.67168141099E+02  0.67168141099E+02  0.00000000000E+00 0.  1.
         24    1    1    2    0    0 -0.51089283214E+01  0.18912602625E+02  0.29718712847E+02  0.87944332019E+02  0.80419002446E+02 0. -1.
          1    1    1    2  501    0 -0.17118028619E+02 -0.14330595240E+02 -0.27497755198E+02  0.35419195426E+02  0.00000000000E+00 0. -1.
         -2    1    1    2    0  502  0.22226956941E+02 -0.45820073849E+01  0.12921244196E+02  0.26114956598E+02  0.00000000000E+00 0.  1.
<mgrwt>
<rscale>  2 0.63894915E+02</rscale>
<asrwt>0</asrwt>
<pdfrwt beam="1">  1       21 0.12663130E-01 0.63894915E+02</pdfrwt>
<pdfrwt beam="2">  1       21 0.10333560E-01 0.63894915E+02</pdfrwt>
<totfact> 0.38649033E+06</totfact>
</mgrwt>
</event>
<event>
 5    1  0.1595802E+000  0.8061116E+02  0.7546771E-02  0.1327326E+00
         21   -1    0    0  501  502  0.00000000000E+00  0.00000000000E+00  0.78700441507E+03  0.78700441507E+03  0.00000000000E+00 0.  1.
         21   -1    0    0  502  503 -0.00000000000E+00 -0.00000000000E+00 -0.12689202954E+02  0.12689202954E+02  0.00000000000E+00 0.  1.
         24    1    1    2    0    0  0.46141231597E-01 -0.41109966963E+02  0.45882916694E+03  0.46763388660E+03  0.80419002446E+02 0.  1.
          1    1    1    2  501    0  0.28565431017E+02  0.25608782067E+02  0.28466857294E+03  0.28724204078E+03  0.00000000000E+00 0. -1.
         -2    1    1    2    0  503 -0.28611572248E+02  0.15501184896E+02  0.30817472239E+02  0.44817690647E+02  0.00000000000E+00 0.  1.
<mgrwt>
<rscale>  2 0.80611161E+02</rscale>
<asrwt>0</asrwt>
<pdfrwt beam="1">  1       21 0.12107756E+00 0.80611161E+02</pdfrwt>
<pdfrwt beam="2">  1       21 0.19521857E-02 0.80611161E+02</pdfrwt>
<totfact> 0.67226525E+05</totfact>
</mgrwt>
</event>
<event>
 5    1  0.1595802E+000  0.9869971E+02  0.7546771E-02  0.1283054E+00
         21   -1    0    0  503  502  0.00000000000E+00  0.00000000000E+00  0.19161866374E+03  0.19161866374E+03  0.00000000000E+00 0.  1.
         21   -1    0    0  501  503 -0.00000000000E+00 -0.00000000000E+00 -0.20497676124E+03  0.20497676124E+03  0.00000000000E+00 0. -1.
         24    1    1    2    0    0  0.38342602425E+02 -0.41588811155E+02 -0.16293728362E+01  0.98334404886E+02  0.80419002446E+02 0.  0.
          1    1    1    2  501    0 -0.49751306342E+02  0.59675650872E+02 -0.14434784851E+03  0.16392887836E+03  0.00000000000E+00 0. -1.
         -2    1    1    2    0  502  0.11408703918E+02 -0.18086839717E+02  0.13261912385E+03  0.13433214175E+03  0.00000000000E+00 0.  1.
<mgrwt>
<rscale>  2 0.98699708E+02</rscale>
<asrwt>0</asrwt>
<pdfrwt beam="1">  1       21 0.29479794E-01 0.98699708E+02</pdfrwt>
<pdfrwt beam="2">  1       21 0.31534886E-01 0.98699708E+02</pdfrwt>
<totfact> 0.11052705E+05</totfact>
</mgrwt>
</event>
<event>
 5    1  0.1595802E+000  0.8701454E+02  0.7546771E-02  0.1310247E+00
         21   -1    0    0  501  502  0.00000000000E+00  0.00000000000E+00  0.45321243771E+02  0.45321243771E+02  0.00000000000E+00 0. -1.
         21   -1    0    0  502  503 -0.00000000000E+00 -0.00000000000E+00 -0.24748755812E+03  0.24748755812E+03  0.00000000000E+00 0. -1.
         24    1    1    2    0    0 -0.44393480243E+02 -0.48755811315E+02 -0.15661703673E+03  0.18800005950E+03  0.80419002446E+02 0. -1.
          1    1    1    2  501    0  0.51393528536E+01  0.21842619793E+02  0.15593705352E+02  0.27325384421E+02  0.00000000000E+00 0. -1.
         -2    1    1    2    0  503  0.39254127390E+02  0.26913191522E+02 -0.61142982968E+02  0.77483357963E+02  0.00000000000E+00 0.  1.
<mgrwt>
<rscale>  2 0.87014539E+02</rscale>
<asrwt>0</asrwt>
<pdfrwt beam="1">  1       21 0.69724990E-02 0.87014539E+02</pdfrwt>
<pdfrwt beam="2">  1       21 0.38075009E-01 0.87014539E+02</pdfrwt>
<totfact> 0.10093039E+06</totfact>
</mgrwt>
</event>
<event>
 5    1  0.1595802E+000  0.8393714E+02  0.7546771E-02  0.1318236E+00
         21   -1    0    0  503  502  0.00000000000E+00  0.00000000000E+00  0.16842084785E+02  0.16842084785E+02  0.00000000000E+00 0.  1.
         21   -1    0    0  501  503 -0.00000000000E+00 -0.00000000000E+00 -0.56621299032E+03  0.56621299032E+03  0.00000000000E+00 0.  1.
         24    1    1    2    0    0  0.54118741588E+02 -0.27186735408E+02 -0.31371179246E+03  0.32946966697E+03  0.80419002446E+02 0.  1.
          1    1    1    2  501    0 -0.21110266157E+02  0.26895658512E+02 -0.20719807691E+03  0.21000014967E+03  0.00000000000E+00 0. -1.
         -2    1    1    2    0  502 -0.33008475431E+02  0.29107689633E+00 -0.28461036170E+02  0.43585258470E+02  0.00000000000E+00 0.  1.
<mgrwt>
<rscale>  2 0.83937143E+02</rscale>
<asrwt>0</asrwt>
<pdfrwt beam="1">  1       21 0.25910900E-02 0.83937143E+02</pdfrwt>
<pdfrwt beam="2">  1       21 0.87109689E-01 0.83937143E+02</pdfrwt>
<totfact> 0.91610368E+05</totfact>
</mgrwt>
</event>
<event>
 5    1  0.1595802E+000  0.1078724E+03  0.7546771E-02  0.1264561E+00
         21   -1    0    0  501  502  0.00000000000E+00  0.00000000000E+00  0.17668170990E+02  0.17668170990E+02  0.00000000000E+00 0.  1.
         21   -1    0    0  502  503 -0.00000000000E+00 -0.00000000000E+00 -0.12494927267E+04  0.12494927267E+04  0.00000000000E+00 0.  1.
         24    1    1    2    0    0 -0.22996000706E+02  0.17057696051E+01 -0.30605086969E+03  0.31727917752E+03  0.80419002446E+02 0.  1.
          1    1    1    2  501    0  0.96972853968E+01 -0.65858426728E+02 -0.92106520783E+02  0.11364409745E+03  0.00000000000E+00 0. -1.
         -2    1    1    2    0  503  0.13298715310E+02  0.64152657123E+02 -0.83366716523E+03  0.83623762271E+03  0.00000000000E+00 0.  1.
<mgrwt>
<rscale>  2 0.10787238E+03</rscale>
<asrwt>0</asrwt>
<pdfrwt beam="1">  1       21 0.27181798E-02 0.10787238E+03</pdfrwt>
<pdfrwt beam="2">  1       21 0.19222968E+00 0.10787238E+03</pdfrwt>
<totfact> 0.11820548E+05</totfact>
</mgrwt>
</event>
<event>
 5    1  0.1595802E+000  0.6951808E+02  0.7546771E-02  0.1361740E+00
         21   -1    0    0  503  502  0.00000000000E+00  0.00000000000E+00  0.21638520782E+02  0.21638520782E+02  0.00000000000E+00 0.  1.
         21   -1    0    0  501  503 -0.00000000000E+00 -0.00000000000E+00 -0.25122957699E+03  0.25122957699E+03  0.00000000000E+00 0. -1.
         24    1    1    2    0    0  0.16172465969E+02  0.28079747772E+01 -0.11161100527E+03  0.13854120625E+03  0.80419002446E+02 0. -1.
          1    1    1    2  501    0  0.19921158042E+02 -0.57815203067E+01 -0.76496211496E+02  0.79258746445E+02  0.00000000000E+00 0. -1.
         -2    1    1    2    0  502 -0.36093624011E+02  0.29735455295E+01 -0.41483839446E+02  0.55068145079E+02  0.00000000000E+00 0.  1.
<mgrwt>
<rscale>  2 0.69518077E+02</rscale>
<asrwt>0</asrwt>
<pdfrwt beam="1">  1       21 0.33290031E-02 0.69518077E+02</pdfrwt>
<pdfrwt beam="2">  1       21 0.38650705E-01 0.69518077E+02</pdfrwt>
<totfact> 0.33021721E+06</totfact>
</mgrwt>
</event>
<event>
 5    1  0.1595802E+000  0.8353623E+02  0.7546771E-02  0.1319305E+00
         21   -1    0    0  503  502  0.00000000000E+00  0.00000000000E+00  0.19083176574E+02  0.19083176574E+02  0.00000000000E+00 0.  1.
         21   -1    0    0  501  503 -0.00000000000E+00 -0.00000000000E+00 -0.11900522838E+04  0.11900522838E+04  0.00000000000E+00 0. -1.
         24    1    1    2    0    0  0.12235224006E+01  0.22391110514E+02 -0.49834271393E+03  0.50528757685E+03  0.80419002446E+02 0.  0.
          1    1    1    2  501    0 -0.33526499882E+02  0.12735395321E+02 -0.65007945575E+03  0.65106798053E+03  0.00000000000E+00 0. -1.
         -2    1    1    2    0  502  0.32302977481E+02 -0.35126505834E+02 -0.22546937534E+02  0.52779902979E+02  0.00000000000E+00 0.  1.
<mgrwt>
<rscale>  2 0.83536231E+02</rscale>
<asrwt>0</asrwt>
<pdfrwt beam="1">  1       21 0.29358736E-02 0.83536231E+02</pdfrwt>
<pdfrwt beam="2">  1       21 0.18308495E+00 0.83536231E+02</pdfrwt>
<totfact> 0.12171898E+05</totfact>
</mgrwt>
</event>
<event>
 5    1  0.1595802E+000  0.1144325E+03  0.7546771E-02  0.1252575E+00
         21   -1    0    0  503  502  0.00000000000E+00  0.00000000000E+00  0.23054715329E+03  0.23054715329E+03  0.00000000000E+00 0. -1.
         21   -1    0    0  501  503 -0.00000000000E+00 -0.00000000000E+00 -0.14174085555E+03  0.14174085555E+03  0.00000000000E+00 0.  1.
         24    1    1    2    0    0 -0.83464785857E+02  0.10573605159E+01  0.17944877149E+03  0.21362716595E+03  0.80419002446E+02 0.  0.
          1    1    1    2  501    0  0.18101914475E+02  0.34197029810E+02 -0.72552351248E+02  0.82225055957E+02  0.00000000000E+00 0. -1.
         -2    1    1    2    0  502  0.65362871381E+02 -0.35254390326E+02 -0.18090122499E+02  0.76435786936E+02  0.00000000000E+00 0.  1.
<mgrwt>
<rscale>  2 0.11443250E+03</rscale>
<asrwt>0</asrwt>
<pdfrwt beam="1">  1       21 0.35468793E-01 0.11443250E+03</pdfrwt>
<pdfrwt beam="2">  1       21 0.21806286E-01 0.11443250E+03</pdfrwt>
<totfact> 0.15422435E+05</totfact>
</mgrwt>
</event>
<event>
 5    1  0.1595802E+000  0.8132838E+02  0.7546771E-02  0.1325323E+00
         21   -1    0    0  503  502  0.00000000000E+00  0.00000000000E+00  0.77134774517E+03  0.77134774517E+03  0.00000000000E+00 0. -1.
         21   -1    0    0  501  503 -0.00000000000E+00 -0.00000000000E+00 -0.11242158342E+02  0.11242158342E+02  0.00000000000E+00 0. -1.
         24    1    1    2    0    0 -0.28557525672E+01  0.41314039102E+02  0.48384423866E+03  0.49222704963E+03  0.80419002446E+02 0. -1.
          1    1    1    2  501    0 -0.21460420054E+02  0.29851539800E+01  0.21092828045E+02  0.30238521262E+02  0.00000000000E+00 0. -1.
         -2    1    1    2    0  502  0.24316172621E+02 -0.44299193082E+02  0.25516852012E+03  0.26012433262E+03  0.00000000000E+00 0.  1.
<mgrwt>
<rscale>  2 0.81328385E+02</rscale>
<asrwt>0</asrwt>
<pdfrwt beam="1">  1       21 0.11866884E+00 0.81328385E+02</pdfrwt>
<pdfrwt beam="2">  1       21 0.17295634E-02 0.81328385E+02</pdfrwt>
<totfact> 0.85531862E+05</totfact>
</mgrwt>
</event>
<event>
 5    1  0.1595802E+000  0.1068227E+03  0.7546771E-02  0.1266570E+00
         21   -1    0    0  503  502  0.00000000000E+00  0.00000000000E+00  0.78032818993E+02  0.78032818993E+02  0.00000000000E+00 0.  1.
         21   -1    0    0  501  503 -0.00000000000E+00 -0.00000000000E+00 -0.16237132707E+03  0.16237132707E+03  0.00000000000E+00 0.  1.
         24    1    1    2    0    0 -0.79786111167E+02 -0.43653272353E+02 -0.47654841732E+02  0.13042097844E+03  0.80419002446E+02 0.  0.
          1    1    1    2  501    0  0.52677441944E+02  0.20271701234E+02 -0.46200483089E+02  0.72940656690E+02  0.00000000000E+00 0. -1.
         -2    1    1    2    0  502  0.27108669224E+02  0.23381571119E+02  0.95168167462E+01  0.37042510931E+02  0.00000000000E+00 0.  1.
<mgrwt>
<rscale>  2 0.10682267E+03</rscale>
<asrwt>0</asrwt>
<pdfrwt beam="1">  1       21 0.12005049E-01 0.10682267E+03</pdfrwt>
<pdfrwt beam="2">  1       21 0.24980204E-01 0.10682267E+03</pdfrwt>
<totfact> 0.89012864E+05</totfact>
</mgrwt>
</event>
<event>
 5    1  0.1595802E+000  0.7892690E+02  0.7546771E-02  0.1332125E+00
         21   -1    0    0  503  502  0.00000000000E+00  0.00000000000E+00  0.23757836000E+03  0.23757836000E+03  0.00000000000E+00 0. -1.
         21   -1    0    0  501  503 -0.00000000000E+00 -0.00000000000E+00 -0.37644380811E+02  0.37644380811E+02  0.00000000000E+00 0. -1.
         24    1    1    2    0    0  0.91330116939E+01 -0.26615307303E+02  0.15483760626E+03  0.17673054844E+03  0.80419002446E+02 0. -1.
          1    1    1    2  501    0 -0.22543090858E+02  0.44745450876E+02  0.23454655801E+01  0.50158224932E+02  0.00000000000E+00 0. -1.
         -2    1    1    2    0  502  0.13410079164E+02 -0.18130143573E+02  0.42750907345E+02  0.48333967435E+02  0.00000000000E+00 0.  1.
<mgrwt>
<rscale>  2 0.78926899E+02</rscale>
<asrwt>0</asrwt>
<pdfrwt beam="1">  1       21 0.36550516E-01 0.78926899E+02</pdfrwt>
<pdfrwt beam="2">  1       21 0.57914434E-02 0.78926899E+02</pdfrwt>
<totfact> 0.14898393E+06</totfact>
</mgrwt>
</event>
<event>
 5    1  0.1595802E+000  0.7338553E+02  0.7546771E-02  0.1348945E+00
         21   -1    0    0  503  502  0.00000000000E+00  0.00000000000E+00  0.14877198318E+03  0.14877198318E+03  0.00000000000E+00 0.  1.
         21   -1    0    0  501  503 -0.00000000000E+00 -0.00000000000E+00 -0.40675295483E+02  0.40675295483E+02  0.00000000000E+00 0.  1.
         24    1    1    2    0    0 -0.39598108897E+02  0.23495979443E+02  0.81885563445E+02  0.12366298045E+03  0.80419002446E+02 0.  1.
          1    1    1    2  501    0  0.21371356690E+02  0.33727731350E+01 -0.33276849338E+01  0.21890271182E+02  0.00000000000E+00 0. -1.
         -2    1    1    2    0  502  0.18226752207E+02 -0.26868752578E+02  0.29538809184E+02  0.43894027032E+02  0.00000000000E+00 0.  1.
<mgrwt>
<rscale>  2 0.73385534E+02</rscale>
<asrwt>0</asrwt>
<pdfrwt beam="1">  1       21 0.22887997E-01 0.73385534E+02</pdfrwt>
<pdfrwt beam="2">  1       21 0.62577378E-02 0.73385534E+02</pdfrwt>
<totfact> 0.31638686E+06</totfact>
</mgrwt>
</event>
<event>
 5    1  0.1595802E+000  0.1648014E+03  0.7546771E-02  0.1183380E+00
         21   -1    0    0  503  502  0.00000000000E+00  0.00000000000E+00  0.94033922471E+02  0.94033922471E+02  0.00000000000E+00 0.  1.
         21   -1    0    0  501  503 -0.00000000000E+00 -0.00000000000E+00 -0.41809577434E+03  0.41809577434E+03  0.00000000000E+00 0. -1.
         24    1    1    2    0    0 -0.31068327510E+02 -0.67474308634E+02 -0.32668386573E+02  0.11424737518E+03  0.80419002446E+02 0.  1.
          1    1    1    2  501    0 -0.62528555520E+02 -0.42582583014E+02 -0.22779606063E+03  0.24002946042E+03  0.00000000000E+00 0. -1.
         -2    1    1    2    0  502  0.93596883030E+02  0.11005689165E+03 -0.63597404668E+02  0.15785286121E+03  0.00000000000E+00 0.  1.
<mgrwt>
<rscale>  2 0.16480141E+03</rscale>
<asrwt>0</asrwt>
<pdfrwt beam="1">  1       21 0.14466757E-01 0.16480141E+03</pdfrwt>
<pdfrwt beam="2">  1       21 0.64322426E-01 0.16480141E+03</pdfrwt>
<totfact> 0.94481951E+04</totfact>
</mgrwt>
</event>
<event>
 5    1  0.1595802E+000  0.8214305E+02  0.7546771E-02  0.1323077E+00
         21   -1    0    0  501  502  0.00000000000E+00  0.00000000000E+00  0.52532156235E+02  0.52532156235E+02  0.00000000000E+00 0. -1.
         21   -1    0    0  502  503 -0.00000000000E+00 -0.00000000000E+00 -0.14562141478E+03  0.14562141478E+03  0.00000000000E+00 0.  1.
         24    1    1    2    0    0  0.48320845501E+02 -0.39543033396E+02 -0.69863585874E+02  0.12347749668E+03  0.80419002446E+02 0.  1.
          1    1    1    2  501    0 -0.24748952239E+02  0.18897433871E+02  0.61324328961E+01  0.31736892996E+02  0.00000000000E+00 0. -1.
         -2    1    1    2    0  503 -0.23571893262E+02  0.20645599525E+02 -0.29358105564E+02  0.42939181338E+02  0.00000000000E+00 0.  1.
<mgrwt>
<rscale>  2 0.82143049E+02</rscale>
<asrwt>0</asrwt>
<pdfrwt beam="1">  1       21 0.80818703E-02 0.82143049E+02</pdfrwt>
<pdfrwt beam="2">  1       21 0.22403294E-01 0.82143049E+02</pdfrwt>
<totfact> 0.21488860E+06</totfact>
</mgrwt>
</event>
<event>
 5    1  0.1595802E+000  0.8302588E+02  0.7546771E-02  0.1320677E+00
         21   -1    0    0  501  502  0.00000000000E+00  0.00000000000E+00  0.21913392740E+02  0.21913392740E+02  0.00000000000E+00 0.  1.
         21   -1    0    0  502  503 -0.00000000000E+00 -0.00000000000E+00 -0.53111145407E+03  0.53111145407E+03  0.00000000000E+00 0.  1.
         24    1    1    2    0    0  0.15831454386E+02  0.34219099490E+02 -0.15576437991E+03  0.17930794662E+03  0.80419002446E+02 0.  1.
          1    1    1    2  501    0  0.24630181289E+02 -0.61724617845E+00 -0.10514335845E+02  0.26787647926E+02  0.00000000000E+00 0. -1.
         -2    1    1    2    0  503 -0.40461635675E+02 -0.33601853311E+02 -0.34291934557E+03  0.34692925226E+03  0.00000000000E+00 0.  1.
<mgrwt>
<rscale>  2 0.83025883E+02</rscale>
<asrwt>0</asrwt>
<pdfrwt beam="1">  1       21 0.33712913E-02 0.83025883E+02</pdfrwt>
<pdfrwt beam="2">  1       21 0.81709452E-01 0.83025883E+02</pdfrwt>
<totfact> 0.68935500E+05</totfact>
</mgrwt>
</event>
<event>
 5    1  0.1595802E+000  0.6797302E+02  0.7546771E-02  0.1367125E+00
         21   -1    0    0  503  502  0.00000000000E+00  0.00000000000E+00  0.40153635755E+03  0.40153635755E+03  0.00000000000E+00 0. -1.
         21   -1    0    0  501  503 -0.00000000000E+00 -0.00000000000E+00 -0.71131099741E+02  0.71131099741E+02  0.00000000000E+00 0. -1.
         24    1    1    2    0    0  0.11887141642E+02  0.43269827044E+01  0.22276423634E+03  0.23717324440E+03  0.80419002446E+02 0. -1.
          1    1    1    2  501    0  0.11954842582E+02 -0.21879068400E+02 -0.60149375450E+02  0.65111898008E+02  0.00000000000E+00 0. -1.
         -2    1    1    2    0  502 -0.23841984224E+02  0.17552085695E+02  0.16779039692E+03  0.17038231488E+03  0.00000000000E+00 0.  1.
<mgrwt>
<rscale>  2 0.67973019E+02</rscale>
<asrwt>0</asrwt>
<pdfrwt beam="1">  1       21 0.61774823E-01 0.67973019E+02</pdfrwt>
<pdfrwt beam="2">  1       21 0.10943246E-01 0.67973019E+02</pdfrwt>
<totfact> 0.17538770E+05</totfact>
</mgrwt>
</event>
<event>
 5    1  0.1595802E+000  0.1303380E+03  0.7546771E-02  0.1226955E+00
         21   -1    0    0  503  502  0.00000000000E+00  0.00000000000E+00  0.21505715125E+03  0.21505715125E+03  0.00000000000E+00 0. -1.
         21   -1    0    0  501  503 -0.00000000000E+00 -0.00000000000E+00 -0.10927533510E+03  0.10927533510E+03  0.00000000000E+00 0.  1.
         24    1    1    2    0    0 -0.25674477484E+02 -0.88016909687E+02  0.27283760247E+02  0.12497109551E+03  0.80419002446E+02 0.  0.
          1    1    1    2  501    0  0.40331789649E+02  0.10722409363E+03 -0.27555686308E+01  0.11459167801E+03  0.00000000000E+00 0. -1.
         -2    1    1    2    0  502 -0.14657312165E+02 -0.19207183944E+02  0.81253624533E+02  0.84769712838E+02  0.00000000000E+00 0.  1.
<mgrwt>
<rscale>  2 0.13033797E+03</rscale>
<asrwt>0</asrwt>
<pdfrwt beam="1">  1       21 0.33085715E-01 0.13033797E+03</pdfrwt>
<pdfrwt beam="2">  1       21 0.16811590E-01 0.13033797E+03</pdfrwt>
<totfact> 0.28390951E+05</totfact>
</mgrwt>
</event>
<event>
 5    1  0.1595802E+000  0.8385875E+02  0.7546771E-02  0.1318444E+00
         21   -1    0    0  501  502  0.00000000000E+00  0.00000000000E+00  0.14224544784E+02  0.14224544784E+02  0.00000000000E+00 0.  1.
         21   -1    0    0  502  503 -0.00000000000E+00 -0.00000000000E+00 -0.64616944005E+03  0.64616944005E+03  0.00000000000E+00 0.  1.
         24    1    1    2    0    0  0.93699883835E+01  0.41774666220E+02 -0.44889764733E+03  0.45804937851E+03  0.80419002446E+02 0. -1.
          1    1    1    2  501    0 -0.25301791228E+02  0.62094293091E+01 -0.23883576688E+02  0.35343498513E+02  0.00000000000E+00 0. -1.
         -2    1    1    2    0  503  0.15931802845E+02 -0.47984095529E+02 -0.15916367125E+03  0.16700110782E+03  0.00000000000E+00 0.  1.
<mgrwt>
<rscale>  2 0.83858748E+02</rscale>
<asrwt>0</asrwt>
<pdfrwt beam="1">  1       21 0.21883919E-02 0.83858748E+02</pdfrwt>
<pdfrwt beam="2">  1       21 0.99410667E-01 0.83858748E+02</pdfrwt>
<totfact> 0.89050459E+05</totfact>
</mgrwt>
</event>
<event>
 5    1  0.1595802E+000  0.8630386E+02  0.7546771E-02  0.1312058E+00
         21   -1    0    0  503  502  0.00000000000E+00  0.00000000000E+00  0.41111677849E+03  0.41111677849E+03  0.00000000000E+00 0.  1.
         21   -1    0    0  501  503 -0.00000000000E+00 -0.00000000000E+00 -0.51148449285E+02  0.51148449285E+02  0.00000000000E+00 0. -1.
         24    1    1    2    0    0  0.28896448292E+02  0.96824163815E+01  0.27642519285E+03  0.28949414003E+03  0.80419002446E+02 0.  0.
          1    1    1    2  501    0 -0.37741121643E+02  0.28576899968E+02 -0.27667135624E+02  0.54831577291E+02  0.00000000000E+00 0. -1.
         -2    1    1    2    0  502  0.88446733517E+01 -0.38259316349E+02  0.11121027197E+03  0.11793951045E+03  0.00000000000E+00 0.  1.
<mgrwt>
<rscale>  2 0.86303856E+02</rscale>
<asrwt>0</asrwt>
<pdfrwt beam="1">  1       21 0.63248733E-01 0.86303856E+02</pdfrwt>
<pdfrwt beam="2">  1       21 0.78689925E-02 0.86303856E+02</pdfrwt>
<totfact> 0.29243735E+05</totfact>
</mgrwt>
</event>
<event>
 5    1  0.1595802E+000  0.9849602E+02  0.7546771E-02  0.1283491E+00
         21   -1    0    0  501  502  0.00000000000E+00  0.00000000000E+00  0.74745525262E+02  0.74745525262E+02  0.00000000000E+00 0. -1.
         21   -1    0    0  502  503 -0.00000000000E+00 -0.00000000000E+00 -0.14180192953E+03  0.14180192953E+03  0.00000000000E+00 0.  1.
         24    1    1    2    0    0 -0.38413260915E+02 -0.63653711834E+01 -0.42395146022E+02  0.98897224051E+02  0.80419002446E+02 0.  1.
          1    1    1    2  501    0 -0.32911432617E+02 -0.10130408926E+02  0.11093387009E+02  0.36178043303E+02  0.00000000000E+00 0. -1.
         -2    1    1    2    0  503  0.71324693533E+02  0.16495780109E+02 -0.35754645258E+02  0.81472187441E+02  0.00000000000E+00 0.  1.
<mgrwt>
<rscale>  2 0.98496023E+02</rscale>
<asrwt>0</asrwt>
<pdfrwt beam="1">  1       21 0.11499312E-01 0.98496023E+02</pdfrwt>
<pdfrwt beam="2">  1       21 0.21815681E-01 0.98496023E+02</pdfrwt>
<totfact> 0.12343089E+06</totfact>
</mgrwt>
</event>
<event>
 5    1  0.1595802E+000  0.1043089E+03  0.7546771E-02  0.1271487E+00
         21   -1    0    0  501  502  0.00000000000E+00  0.00000000000E+00  0.40008821882E+02  0.40008821882E+02  0.00000000000E+00 0. -1.
         21   -1    0    0  502  503 -0.00000000000E+00 -0.00000000000E+00 -0.35077585347E+03  0.35077585347E+03  0.00000000000E+00 0. -1.
         24    1    1    2    0    0  0.34741875876E+02  0.51301222653E+02 -0.19686152056E+03  0.22149602168E+03  0.80419002446E+02 0. -1.
          1    1    1    2  501    0 -0.29156237602E+02 -0.76196858275E+02 -0.39526900300E+02  0.90655519685E+02  0.00000000000E+00 0. -1.
         -2    1    1    2    0  503 -0.55856382749E+01  0.24895635622E+02 -0.74378610721E+02  0.78633133988E+02  0.00000000000E+00 0.  1.
<mgrwt>
<rscale>  2 0.10430888E+03</rscale>
<asrwt>0</asrwt>
<pdfrwt beam="1">  1       21 0.61552036E-02 0.10430888E+03</pdfrwt>
<pdfrwt beam="2">  1       21 0.53965514E-01 0.10430888E+03</pdfrwt>
<totfact> 0.61760076E+05</totfact>
</mgrwt>
</event>
<event>
 5    1  0.1595802E+000  0.8814228E+02  0.7546771E-02  0.1307414E+00
         21   -1    0    0  503  502  0.00000000000E+00  0.00000000000E+00  0.16979415799E+03  0.16979415799E+03  0.00000000000E+00 0.  1.
         21   -1    0    0  501  503 -0.00000000000E+00 -0.00000000000E+00 -0.58228817547E+02  0.58228817547E+02  0.00000000000E+00 0.  1.
         24    1    1    2    0    0  0.17056874535E+02  0.38949978882E+02  0.17686696015E+02  0.92671856537E+02  0.80419002446E+02 0.  1.
          1    1    1    2  501    0  0.24987844267E+02  0.38924740646E+01  0.16945245309E+01  0.25345909509E+02  0.00000000000E+00 0. -1.
         -2    1    1    2    0  502 -0.42044718802E+02 -0.42842452946E+02  0.92184119894E+02  0.11000520949E+03  0.00000000000E+00 0.  1.
<mgrwt>
<rscale>  2 0.88142284E+02</rscale>
<asrwt>0</asrwt>
<pdfrwt beam="1">  1       21 0.26122178E-01 0.88142284E+02</pdfrwt>
<pdfrwt beam="2">  1       21 0.89582797E-02 0.88142284E+02</pdfrwt>
<totfact> 0.13572385E+06</totfact>
</mgrwt>
</event>
<event>
 5    1  0.1595802E+000  0.1060487E+03  0.7546771E-02  0.1268067E+00
         21   -1    0    0  501  502  0.00000000000E+00  0.00000000000E+00  0.17343653565E+03  0.17343653565E+03  0.00000000000E+00 0. -1.
         21   -1    0    0  502  503 -0.00000000000E+00 -0.00000000000E+00 -0.80526015669E+02  0.80526015669E+02  0.00000000000E+00 0.  1.
         24    1    1    2    0    0 -0.22386127297E+02  0.53746078072E+02 -0.21925673784E+01  0.99306610604E+02  0.80419002446E+02 0.  1.
          1    1    1    2  501    0 -0.30128643891E+02  0.85683246242E+01  0.56233690846E+02  0.64369086957E+02  0.00000000000E+00 0. -1.
         -2    1    1    2    0  503  0.52514771188E+02 -0.62314402696E+02  0.38869396516E+02  0.90286853760E+02  0.00000000000E+00 0.  1.
<mgrwt>
<rscale>  2 0.10604869E+03</rscale>
<asrwt>0</asrwt>
<pdfrwt beam="1">  1       21 0.26682544E-01 0.10604869E+03</pdfrwt>
<pdfrwt beam="2">  1       21 0.12388618E-01 0.10604869E+03</pdfrwt>
<totfact> 0.74355967E+05</totfact>
</mgrwt>
</event>
<event>
 5    1  0.1595802E+000  0.6533383E+02  0.7546771E-02  0.1376720E+00
         21   -1    0    0  501  502  0.00000000000E+00  0.00000000000E+00  0.22725189654E+02  0.22725189654E+02  0.00000000000E+00 0.  1.
         21   -1    0    0  502  503 -0.00000000000E+00 -0.00000000000E+00 -0.36442075982E+03  0.36442075982E+03  0.00000000000E+00 0. -1.
         24    1    1    2    0    0 -0.84225107486E+01 -0.45691601397E+01 -0.61301060902E+02  0.10157190524E+03  0.80419002446E+02 0.  1.
          1    1    1    2  501    0  0.26942449928E+02  0.12292191447E+02 -0.10700431384E+03  0.11102664887E+03  0.00000000000E+00 0. -1.
         -2    1    1    2    0  503 -0.18519939179E+02 -0.77230313076E+01 -0.17339019543E+03  0.17454739537E+03  0.00000000000E+00 0.  1.
<mgrwt>
<rscale>  2 0.65333827E+02</rscale>
<asrwt>0</asrwt>
<pdfrwt beam="1">  1       21 0.34961826E-02 0.65333827E+02</pdfrwt>
<pdfrwt beam="2">  1       21 0.56064739E-01 0.65333827E+02</pdfrwt>
<totfact> 0.14431993E+06</totfact>
</mgrwt>
</event>
<event>
 5    1  0.1595802E+000  0.1341041E+03  0.7546771E-02  0.1221490E+00
         21   -1    0    0  503  502  0.00000000000E+00  0.00000000000E+00  0.47967752796E+02  0.47967752796E+02  0.00000000000E+00 0.  1.
         21   -1    0    0  501  503 -0.00000000000E+00 -0.00000000000E+00 -0.58673727085E+03  0.58673727085E+03  0.00000000000E+00 0.  1.
         24    1    1    2    0    0  0.84179834021E+01 -0.12107219461E+03 -0.40595988220E+03  0.43127715064E+03  0.80419002446E+02 0.  1.
          1    1    1    2  501    0  0.18355642280E+01  0.87396049453E+02 -0.14226702659E+03  0.16697708109E+03  0.00000000000E+00 0. -1.
         -2    1    1    2    0  502 -0.10253547630E+02  0.33676145159E+02  0.94573907330E+01  0.36450791915E+02  0.00000000000E+00 0.  1.
<mgrwt>
<rscale>  2 0.13410411E+03</rscale>
<asrwt>0</asrwt>
<pdfrwt beam="1">  1       21 0.73796545E-02 0.13410411E+03</pdfrwt>
<pdfrwt beam="2">  1       21 0.90267270E-01 0.13410411E+03</pdfrwt>
<totfact> 0.14708049E+05</totfact>
</mgrwt>
</event>
<event>
 5    1  0.1595802E+000  0.1162987E+03  0.7546771E-02  0.1249331E+00
         21   -1    0    0  501  502  0.00000000000E+00  0.00000000000E+00  0.46909448575E+03  0.46909448575E+03  0.00000000000E+00 0. -1.
         21   -1    0    0  502  503 -0.00000000000E+00 -0.00000000000E+00 -0.40679396071E+02  0.40679396071E+02  0.00000000000E+00 0. -1.
         24    1    1    2    0    0 -0.64966443928E+02  0.67137719905E+02  0.19640011001E+03  0.23187999361E+03  0.80419002446E+02 0. -1.
          1    1    1    2  501    0  0.18617665129E+02 -0.59511969273E+02  0.22102606422E+03  0.22965368059E+03  0.00000000000E+00 0. -1.
         -2    1    1    2    0  503  0.46348778799E+02 -0.76257506318E+01  0.10988915448E+02  0.48240207624E+02  0.00000000000E+00 0.  1.
<mgrwt>
<rscale>  2 0.11629871E+03</rscale>
<asrwt>0</asrwt>
<pdfrwt beam="1">  1       21 0.72168379E-01 0.11629871E+03</pdfrwt>
<pdfrwt beam="2">  1       21 0.62583689E-02 0.11629871E+03</pdfrwt>
<totfact> 0.32302201E+05</totfact>
</mgrwt>
</event>
<event>
 5    1  0.1595802E+000  0.7079062E+02  0.7546771E-02  0.1357425E+00
         21   -1    0    0  503  502  0.00000000000E+00  0.00000000000E+00  0.86723118264E+02  0.86723118264E+02  0.00000000000E+00 0. -1.
         21   -1    0    0  501  503 -0.00000000000E+00 -0.00000000000E+00 -0.13666982436E+03  0.13666982436E+03  0.00000000000E+00 0.  1.
         24    1    1    2    0    0 -0.37620169381E+01  0.27548935856E+02 -0.10492450884E+02  0.85734497830E+02  0.80419002446E+02 0.  0.
          1    1    1    2  501    0  0.25399222807E+02 -0.23244424733E+02 -0.82440706105E+02  0.89341445161E+02  0.00000000000E+00 0. -1.
         -2    1    1    2    0  502 -0.21637205869E+02 -0.43045111222E+01  0.42986450889E+02  0.48316999636E+02  0.00000000000E+00 0.  1.
<mgrwt>
<rscale>  2 0.70790616E+02</rscale>
<asrwt>0</asrwt>
<pdfrwt beam="1">  1       21 0.13342018E-01 0.70790616E+02</pdfrwt>
<pdfrwt beam="2">  1       21 0.21026127E-01 0.70790616E+02</pdfrwt>
<totfact> 0.10091379E+06</totfact>
</mgrwt>
</event>
<event>
 5    1  0.1595802E+000  0.1159151E+03  0.7546771E-02  0.1249992E+00
         21   -1    0    0  501  502  0.00000000000E+00  0.00000000000E+00  0.40595046446E+03  0.40595046446E+03  0.00000000000E+00 0.  1.
         21   -1    0    0  502  503 -0.00000000000E+00 -0.00000000000E+00 -0.40478833670E+02  0.40478833670E+02  0.00000000000E+00 0.  1.
         24    1    1    2    0    0 -0.53324181459E+02 -0.73357682974E+02  0.96385641644E+02  0.15486195740E+03  0.80419002446E+02 0.  1.
          1    1    1    2  501    0  0.30293900793E+02 -0.33973408535E+01  0.98242667449E+02  0.10286342429E+03  0.00000000000E+00 0. -1.
         -2    1    1    2    0  503  0.23030280665E+02  0.76755023828E+02  0.17084332170E+03  0.18870391644E+03  0.00000000000E+00 0.  1.
<mgrwt>
<rscale>  2 0.11591509E+03</rscale>
<asrwt>0</asrwt>
<pdfrwt beam="1">  1       21 0.62453915E-01 0.11591509E+03</pdfrwt>
<pdfrwt beam="2">  1       21 0.62275131E-02 0.11591509E+03</pdfrwt>
<totfact> 0.44503494E+05</totfact>
</mgrwt>
</event>
<event>
 5    1  0.1595802E+000  0.8994697E+02  0.7546771E-02  0.1302980E+00
         21   -1    0    0  503  502  0.00000000000E+00  0.00000000000E+00  0.41192108222E+02  0.41192108222E+02  0.00000000000E+00 0.  1.
         21   -1    0    0  501  503 -0.00000000000E+00 -0.00000000000E+00 -0.71035786581E+03  0.71035786581E+03  0.00000000000E+00 0.  1.
         24    1    1    2    0    0 -0.15940577270E+02 -0.18218459207E+02 -0.56115818771E+03  0.56740791486E+03  0.80419002446E+02 0.  1.
          1    1    1    2  501    0  0.14872130545E+02 -0.37417226412E+02 -0.12055305409E+03  0.12709944118E+03  0.00000000000E+00 0. -1.
         -2    1    1    2    0  502  0.10684467255E+01  0.55635685619E+02  0.12545484209E+02  0.57042617987E+02  0.00000000000E+00 0.  1.
<mgrwt>
<rscale>  2 0.89946972E+02</rscale>
<asrwt>0</asrwt>
<pdfrwt beam="1">  1       21 0.63372476E-02 0.89946972E+02</pdfrwt>
<pdfrwt beam="2">  1       21 0.10928582E+00 0.89946972E+02</pdfrwt>
<totfact> 0.12456695E+05</totfact>
</mgrwt>
</event>
<event>
 5    1  0.1595802E+000  0.9705464E+02  0.7546771E-02  0.1286614E+00
         21   -1    0    0  503  502  0.00000000000E+00  0.00000000000E+00  0.25732900715E+03  0.25732900715E+03  0.00000000000E+00 0.  1.
         21   -1    0    0  501  503 -0.00000000000E+00 -0.00000000000E+00 -0.10455964819E+03  0.10455964819E+03  0.00000000000E+00 0. -1.
         24    1    1    2    0    0  0.42034881696E+02 -0.26558064129E+02  0.15652964760E+02  0.95835762165E+02  0.80419002446E+02 0.  0.
          1    1    1    2  501    0 -0.20720714106E+02  0.57991479050E+02 -0.47372816763E+02  0.77695195498E+02  0.00000000000E+00 0. -1.
         -2    1    1    2    0  502 -0.21314167590E+02 -0.31433414921E+02  0.18448921096E+03  0.18835769768E+03  0.00000000000E+00 0.  1.
<mgrwt>
<rscale>  2 0.97054639E+02</rscale>
<asrwt>0</asrwt>
<pdfrwt beam="1">  1       21 0.39589078E-01 0.97054639E+02</pdfrwt>
<pdfrwt beam="2">  1       21 0.16086100E-01 0.97054639E+02</pdfrwt>
<totfact> 0.21775317E+05</totfact>
</mgrwt>
</event>
<event>
 5    1  0.1595802E+000  0.1103388E+03  0.7546771E-02  0.1259944E+00
         21   -1    0    0  503  502  0.00000000000E+00  0.00000000000E+00  0.66612576151E+02  0.66612576151E+02  0.00000000000E+00 0.  1.
         21   -1    0    0  501  503 -0.00000000000E+00 -0.00000000000E+00 -0.18375708170E+03  0.18375708170E+03  0.00000000000E+00 0.  1.
         24    1    1    2    0    0  0.62009321467E+02  0.43886875022E+01 -0.61772736781E+02  0.11894327846E+03  0.80419002446E+02 0.  1.
          1    1    1    2  501    0  0.25343563407E+02 -0.17364356765E+02 -0.17303083371E+02  0.35259236892E+02  0.00000000000E+00 0. -1.
         -2    1    1    2    0  502 -0.87352884874E+02  0.12975669263E+02 -0.38068685398E+02  0.96167142500E+02  0.00000000000E+00 0.  1.
<mgrwt>
<rscale>  2 0.11033880E+03</rscale>
<asrwt>0</asrwt>
<pdfrwt beam="1">  1       21 0.10248089E-01 0.11033880E+03</pdfrwt>
<pdfrwt beam="2">  1       21 0.28270320E-01 0.11033880E+03</pdfrwt>
<totfact> 0.92983322E+05</totfact>
</mgrwt>
</event>
<event>
 5    1  0.1595802E+000  0.8814052E+02  0.7546771E-02  0.1307418E+00
         21   -1    0    0  501  502  0.00000000000E+00  0.00000000000E+00  0.25339197366E+03  0.25339197366E+03  0.00000000000E+00 0. -1.
         21   -1    0    0  502  503 -0.00000000000E+00 -0.00000000000E+00 -0.41778877832E+02  0.41778877832E+02  0.00000000000E+00 0.  1.
         24    1    1    2    0    0 -0.20461848198E+02  0.31045400887E+02  0.48901694401E+02  0.10119829948E+03  0.80419002446E+02 0.  1.
          1    1    1    2  501    0 -0.30677671778E+02 -0.14509409698E+02  0.12176511003E+03  0.12640563491E+03  0.00000000000E+00 0. -1.
         -2    1    1    2    0  503  0.51139519976E+02 -0.16535991189E+02  0.40946291397E+02  0.67566917105E+02  0.00000000000E+00 0.  1.
<mgrwt>
<rscale>  2 0.88140518E+02</rscale>
<asrwt>0</asrwt>
<pdfrwt beam="1">  1       21 0.38983380E-01 0.88140518E+02</pdfrwt>
<pdfrwt beam="2">  1       21 0.64275198E-02 0.88140518E+02</pdfrwt>
<totfact> 0.11058909E+06</totfact>
</mgrwt>
</event>
<event>
 5    1  0.1595802E+000  0.8411497E+02  0.7546771E-02  0.1317763E+00
         21   -1    0    0  503  502  0.00000000000E+00  0.00000000000E+00  0.12248786243E+02  0.12248786243E+02  0.00000000000E+00 0.  1.
         21   -1    0    0  501  503 -0.00000000000E+00 -0.00000000000E+00 -0.11583050269E+04  0.11583050269E+04  0.00000000000E+00 0. -1.
         24    1    1    2    0    0  0.53506583301E+01 -0.26172265842E+02 -0.64043458174E+03  0.64601647540E+03  0.80419002446E+02 0.  1.
          1    1    1    2  501    0 -0.48227840078E+01 -0.28454753120E+02 -0.43147391711E+03  0.43243805726E+03  0.00000000000E+00 0. -1.
         -2    1    1    2    0  502 -0.52787432232E+00  0.54627018962E+02 -0.74147741847E+02  0.92099280524E+02  0.00000000000E+00 0.  1.
<mgrwt>
<rscale>  2 0.84114965E+02</rscale>
<asrwt>0</asrwt>
<pdfrwt beam="1">  1       21 0.18844287E-02 0.84114965E+02</pdfrwt>
<pdfrwt beam="2">  1       21 0.17820076E+00 0.84114965E+02</pdfrwt>
<totfact> 0.26691419E+05</totfact>
</mgrwt>
</event>
<event>
 5    1  0.1595802E+000  0.8596064E+02  0.7546771E-02  0.1312939E+00
         21   -1    0    0  501  502  0.00000000000E+00  0.00000000000E+00  0.15934376033E+04  0.15934376033E+04  0.00000000000E+00 0. -1.
         21   -1    0    0  502  503 -0.00000000000E+00 -0.00000000000E+00 -0.62851446618E+01  0.62851446618E+01  0.00000000000E+00 0.  1.
         24    1    1    2    0    0  0.22795900729E+02 -0.22526800396E+02  0.39598029870E+03  0.40533285425E+03  0.80419002446E+02 0.  0.
          1    1    1    2  501    0 -0.26888928089E+02 -0.25555217625E+02  0.65540081022E+03  0.65644977389E+03  0.00000000000E+00 0. -1.
         -2    1    1    2    0  503  0.40930273592E+01  0.48082018021E+02  0.53577134970E+03  0.53794011979E+03  0.00000000000E+00 0.  1.
<mgrwt>
<rscale>  2 0.85960645E+02</rscale>
<asrwt>0</asrwt>
<pdfrwt beam="1">  1       21 0.24514393E+00 0.85960645E+02</pdfrwt>
<pdfrwt beam="2">  1       21 0.96694660E-03 0.85960645E+02</pdfrwt>
<totfact> 0.30244861E+05</totfact>
</mgrwt>
</event>
<event>
 5    1  0.1595802E+000  0.8352852E+02  0.7546771E-02  0.1319326E+00
         21   -1    0    0  503  502  0.00000000000E+00  0.00000000000E+00  0.49774070638E+02  0.49774070638E+02  0.00000000000E+00 0. -1.
         21   -1    0    0  501  503 -0.00000000000E+00 -0.00000000000E+00 -0.21162538356E+03  0.21162538356E+03  0.00000000000E+00 0. -1.
         24    1    1    2    0    0  0.38482299596E+02  0.85577063375E+01 -0.16737300998E+02  0.91112430102E+02  0.80419002446E+02 0. -1.
          1    1    1    2  501    0 -0.56580929304E+02  0.18616489852E+01 -0.13635691429E+03  0.14764171284E+03  0.00000000000E+00 0. -1.
         -2    1    1    2    0  502  0.18098629707E+02 -0.10419355323E+02 -0.87570976363E+01  0.22645311250E+02  0.00000000000E+00 0.  1.
<mgrwt>
<rscale>  2 0.83528518E+02</rscale>
<asrwt>0</asrwt>
<pdfrwt beam="1">  1       21 0.76575493E-02 0.83528518E+02</pdfrwt>
<pdfrwt beam="2">  1       21 0.32557751E-01 0.83528518E+02</pdfrwt>
<totfact> 0.11658988E+06</totfact>
</mgrwt>
</event>
<event>
 5    1  0.1595802E+000  0.6354262E+02  0.7546771E-02  0.1383539E+00
         21   -1    0    0  503  502  0.00000000000E+00  0.00000000000E+00  0.32325737720E+03  0.32325737720E+03  0.00000000000E+00 0.  1.
         21   -1    0    0  501  503 -0.00000000000E+00 -0.00000000000E+00 -0.16691876675E+02  0.16691876675E+02  0.00000000000E+00 0.  1.
         24    1    1    2    0    0  0.47236232246E+01  0.79497036678E+01  0.12529576728E+03  0.14917022376E+03  0.80419002446E+02 0.  1.
          1    1    1    2  501    0 -0.15158464032E+02  0.14751636708E+02  0.26023806846E+02  0.33535478827E+02  0.00000000000E+00 0. -1.
         -2    1    1    2    0  502  0.10434840807E+02 -0.22701340376E+02  0.15524592640E+03  0.15724355129E+03  0.00000000000E+00 0.  1.
<mgrwt>
<rscale>  2 0.63542617E+02</rscale>
<asrwt>0</asrwt>
<pdfrwt beam="1">  1       21 0.49731899E-01 0.63542617E+02</pdfrwt>
<pdfrwt beam="2">  1       21 0.25679813E-02 0.63542617E+02</pdfrwt>
<totfact> 0.30244492E+06</totfact>
</mgrwt>
</event>
<event>
 5    1  0.1595802E+000  0.1056229E+03  0.7546771E-02  0.1268897E+00
         21   -1    0    0  503  502  0.00000000000E+00  0.00000000000E+00  0.12585160487E+03  0.12585160487E+03  0.00000000000E+00 0.  1.
         21   -1    0    0  501  503 -0.00000000000E+00 -0.00000000000E+00 -0.10650890699E+03  0.10650890699E+03  0.00000000000E+00 0. -1.
         24    1    1    2    0    0 -0.28611590553E+02  0.17713526117E+02  0.13542827010E+02  0.88221404655E+02  0.80419002446E+02 0. -1.
          1    1    1    2  501    0  0.62496586081E+02  0.26906161768E+02 -0.33362318090E+02  0.75781324093E+02  0.00000000000E+00 0. -1.
         -2    1    1    2    0  502 -0.33884995528E+02 -0.44619687885E+02  0.39162188961E+02  0.68357783120E+02  0.00000000000E+00 0.  1.
<mgrwt>
<rscale>  2 0.10562293E+03</rscale>
<asrwt>0</asrwt>
<pdfrwt beam="1">  1       21 0.19361785E-01 0.10562293E+03</pdfrwt>
<pdfrwt beam="2">  1       21 0.16385986E-01 0.10562293E+03</pdfrwt>
<totfact> 0.81985943E+05</totfact>
</mgrwt>
</event>
<event>
 5    1  0.1595802E+000  0.1139324E+03  0.7546771E-02  0.1253456E+00
         21   -1    0    0  503  502  0.00000000000E+00  0.00000000000E+00  0.11607380417E+04  0.11607380417E+04  0.00000000000E+00 0. -1.
         21   -1    0    0  501  503 -0.00000000000E+00 -0.00000000000E+00 -0.44814843233E+02  0.44814843233E+02  0.00000000000E+00 0.  1.
         24    1    1    2    0    0 -0.42337658226E+02 -0.27843223807E+01  0.14528419935E+02  0.92078883005E+02  0.80419002446E+02 0.  1.
          1    1    1    2  501    0 -0.22517047301E+02  0.51248374654E+02  0.17937406734E+03  0.18790547985E+03  0.00000000000E+00 0. -1.
         -2    1    1    2    0  502  0.64854705527E+02 -0.48464052273E+02  0.92202071118E+03  0.92556852207E+03  0.00000000000E+00 0.  1.
<mgrwt>
<rscale>  2 0.11393236E+03</rscale>
<asrwt>0</asrwt>
<pdfrwt beam="1">  1       21 0.17857506E+00 0.11393236E+03</pdfrwt>
<pdfrwt beam="2">  1       21 0.68945922E-02 0.11393236E+03</pdfrwt>
<totfact> 0.30705152E+04</totfact>
</mgrwt>
</event>
<event>
 5    1  0.1595802E+000  0.1015575E+03  0.7546771E-02  0.1277055E+00
         21   -1    0    0  501  502  0.00000000000E+00  0.00000000000E+00  0.33873209292E+02  0.33873209292E+02  0.00000000000E+00 0.  1.
         21   -1    0    0  502  503 -0.00000000000E+00 -0.00000000000E+00 -0.36361461088E+03  0.36361461088E+03  0.00000000000E+00 0. -1.
         24    1    1    2    0    0  0.41579566698E+02 -0.26144602965E+02 -0.76001152079E+02  0.12106110731E+03  0.80419002446E+02 0.  1.
          1    1    1    2  501    0 -0.56715680664E+02  0.53276906155E+02 -0.16560464715E+03  0.18297539813E+03  0.00000000000E+00 0. -1.
         -2    1    1    2    0  503  0.15136113966E+02 -0.27132303190E+02 -0.88135602354E+02  0.93451314730E+02  0.00000000000E+00 0.  1.
<mgrwt>
<rscale>  2 0.10155746E+03</rscale>
<asrwt>0</asrwt>
<pdfrwt beam="1">  1       21 0.52112632E-02 0.10155746E+03</pdfrwt>
<pdfrwt beam="2">  1       21 0.55940706E-01 0.10155746E+03</pdfrwt>
<totfact> 0.75811501E+05</totfact>
</mgrwt>
</event>
<event>
 5    1  0.1595802E+000  0.1321563E+03  0.7546771E-02  0.1224291E+00
         21   -1    0    0  503  502  0.00000000000E+00  0.00000000000E+00  0.16726012604E+04  0.16726012604E+04  0.00000000000E+00 0. -1.
         21   -1    0    0  501  503 -0.00000000000E+00 -0.00000000000E+00 -0.12857606927E+02  0.12857606927E+02  0.00000000000E+00 0.  1.
         24    1    1    2    0    0  0.35836776744E+02  0.99446588689E+02  0.11581080560E+04  0.11656995256E+04  0.80419002446E+02 0. -1.
          1    1    1    2  501    0 -0.23042499569E+02  0.71537484323E+01  0.49719472803E+02  0.55264444979E+02  0.00000000000E+00 0. -1.
         -2    1    1    2    0  502 -0.12794277174E+02 -0.10660033712E+03  0.45191612465E+03  0.46449489676E+03  0.00000000000E+00 0.  1.
<mgrwt>
<rscale>  2 0.13215634E+03</rscale>
<asrwt>0</asrwt>
<pdfrwt beam="1">  1       21 0.25732310E+00 0.13215634E+03</pdfrwt>
<pdfrwt beam="2">  1       21 0.19780947E-02 0.13215634E+03</pdfrwt>
<totfact> 0.79307993E+04</totfact>
</mgrwt>
</event>
<event>
 5    1  0.1595802E+000  0.1381229E+03  0.7546771E-02  0.1215877E+00
         21   -1    0    0  501  502  0.00000000000E+00  0.00000000000E+00  0.17274801273E+03  0.17274801273E+03  0.00000000000E+00 0. -1.
         21   -1    0    0  502  503 -0.00000000000E+00 -0.00000000000E+00 -0.18559841360E+03  0.18559841360E+03  0.00000000000E+00 0.  1.
         24    1    1    2    0    0 -0.12220710075E+03  0.18132216962E+01  0.63294377522E+02  0.15940908828E+03  0.80419002446E+02 0. -1.
          1    1    1    2  501    0  0.34196162411E+02 -0.20635400373E+02  0.36943811704E+02  0.54406272574E+02  0.00000000000E+00 0. -1.
         -2    1    1    2    0  503  0.88010938342E+02  0.18822178677E+02 -0.11308859009E+03  0.14453106547E+03  0.00000000000E+00 0.  1.
<mgrwt>
<rscale>  2 0.13812289E+03</rscale>
<asrwt>0</asrwt>
<pdfrwt beam="1">  1       21 0.26576617E-01 0.13812289E+03</pdfrwt>
<pdfrwt beam="2">  1       21 0.28553602E-01 0.13812289E+03</pdfrwt>
<totfact> 0.16071794E+05</totfact>
</mgrwt>
</event>
<event>
 5    1  0.1595802E+000  0.7664523E+02  0.7546771E-02  0.1338851E+00
         21   -1    0    0  501  502  0.00000000000E+00  0.00000000000E+00  0.16478718248E+03  0.16478718248E+03  0.00000000000E+00 0. -1.
         21   -1    0    0  502  503 -0.00000000000E+00 -0.00000000000E+00 -0.13892882440E+03  0.13892882440E+03  0.00000000000E+00 0.  1.
         24    1    1    2    0    0 -0.33498530420E+02 -0.13254233247E+02 -0.22473156549E+02  0.90940007472E+02  0.80419002446E+02 0.  0.
          1    1    1    2  501    0  0.87627304578E+01  0.32607140841E+02  0.12523492081E+03  0.12970657836E+03  0.00000000000E+00 0. -1.
         -2    1    1    2    0  503  0.24735799962E+02 -0.19352907594E+02 -0.76903406183E+02  0.83069421057E+02  0.00000000000E+00 0.  1.
<mgrwt>
<rscale>  2 0.76645225E+02</rscale>
<asrwt>0</asrwt>
<pdfrwt beam="1">  1       21 0.25351874E-01 0.76645225E+02</pdfrwt>
<pdfrwt beam="2">  1       21 0.21373665E-01 0.76645225E+02</pdfrwt>
<totfact> 0.30720047E+05</totfact>
</mgrwt>
</event>
<event>
 5    1  0.1595802E+000  0.8318512E+02  0.7546771E-02  0.1320248E+00
         21   -1    0    0  503  502  0.00000000000E+00  0.00000000000E+00  0.44467628651E+03  0.44467628651E+03  0.00000000000E+00 0. -1.
         21   -1    0    0  501  503 -0.00000000000E+00 -0.00000000000E+00 -0.21081560063E+02  0.21081560063E+02  0.00000000000E+00 0. -1.
         24    1    1    2    0    0  0.32351894202E+02 -0.12231290810E+02  0.25929149613E+03  0.27367050527E+03  0.80419002446E+02 0.  0.
          1    1    1    2  501    0  0.87536722659E+01 -0.23051480891E+02  0.68728918506E+01  0.25597542691E+02  0.00000000000E+00 0. -1.
         -2    1    1    2    0  502 -0.41105566468E+02  0.35282771701E+02  0.15743033846E+03  0.16648979861E+03  0.00000000000E+00 0.  1.
<mgrwt>
<rscale>  2 0.83185119E+02</rscale>
<asrwt>0</asrwt>
<pdfrwt beam="1">  1       21 0.68411730E-01 0.83185119E+02</pdfrwt>
<pdfrwt beam="2">  1       21 0.32433173E-02 0.83185119E+02</pdfrwt>
<totfact> 0.10808164E+06</totfact>
</mgrwt>
</event>
<event>
 5    1  0.1595802E+000  0.9057457E+02  0.7546771E-02  0.1301466E+00
         21   -1    0    0  501  502  0.00000000000E+00  0.00000000000E+00  0.56798794897E+02  0.56798794897E+02  0.00000000000E+00 0.  1.
         21   -1    0    0  502  503 -0.00000000000E+00 -0.00000000000E+00 -0.26835194434E+03  0.26835194434E+03  0.00000000000E+00 0.  1.
         24    1    1    2    0    0  0.13499645003E+02 -0.67715994458E+02 -0.22504854222E+03  0.24876044426E+03  0.80419002446E+02 0.  1.
          1    1    1    2  501    0  0.85297202787E+01  0.32624477591E+02  0.49050381676E+01  0.34075974903E+02  0.00000000000E+00 0. -1.
         -2    1    1    2    0  503 -0.22029365282E+02  0.35091516866E+02  0.85903546089E+01  0.42314320070E+02  0.00000000000E+00 0.  1.
<mgrwt>
<rscale>  2 0.90574570E+02</rscale>
<asrwt>0</asrwt>
<pdfrwt beam="1">  1       21 0.87382762E-02 0.90574570E+02</pdfrwt>
<pdfrwt beam="2">  1       21 0.41284914E-01 0.90574570E+02</pdfrwt>
<totfact> 0.58569577E+05</totfact>
</mgrwt>
</event>
<event>
 5    1  0.1595802E+000  0.6584707E+02  0.7546771E-02  0.1374813E+00
         21   -1    0    0  501  502  0.00000000000E+00  0.00000000000E+00  0.15344387646E+03  0.15344387646E+03  0.00000000000E+00 0.  1.
         21   -1    0    0  502  503 -0.00000000000E+00 -0.00000000000E+00 -0.18574124601E+03  0.18574124601E+03  0.00000000000E+00 0.  1.
         24    1    1    2    0    0 -0.79329921957E+01 -0.13869087909E+02  0.89325047445E+02  0.12124959390E+03  0.80419002446E+02 0.  1.
          1    1    1    2  501    0  0.26866242985E+02  0.11429930036E+01  0.43556582499E+02  0.51188644484E+02  0.00000000000E+00 0. -1.
         -2    1    1    2    0  503 -0.18933250789E+02  0.12726094905E+02 -0.16517899950E+03  0.16674688409E+03  0.00000000000E+00 0.  1.
<mgrwt>
<rscale>  2 0.65847073E+02</rscale>
<asrwt>0</asrwt>
<pdfrwt beam="1">  1       21 0.23606750E-01 0.65847073E+02</pdfrwt>
<pdfrwt beam="2">  1       21 0.28575576E-01 0.65847073E+02</pdfrwt>
<totfact> 0.20495499E+05</totfact>
</mgrwt>
</event>
<event>
 5    1  0.1595802E+000  0.1019513E+03  0.7546771E-02  0.1276245E+00
         21   -1    0    0  503  502  0.00000000000E+00  0.00000000000E+00  0.14584039619E+03  0.14584039619E+03  0.00000000000E+00 0.  1.
         21   -1    0    0  501  503 -0.00000000000E+00 -0.00000000000E+00 -0.27791814704E+03  0.27791814704E+03  0.00000000000E+00 0. -1.
         24    1    1    2    0    0  0.37990796873E+02  0.56176299031E+02 -0.41322580942E+02  0.11302145314E+03  0.80419002446E+02 0. -1.
          1    1    1    2  501    0 -0.30722159482E+02  0.98641204632E+01 -0.18922124023E+03  0.19195267571E+03  0.00000000000E+00 0. -1.
         -2    1    1    2    0  502 -0.72686373910E+01 -0.66040419494E+02  0.98466070324E+02  0.11878441439E+03  0.00000000000E+00 0.  1.
<mgrwt>
<rscale>  2 0.10195128E+03</rscale>
<asrwt>0</asrwt>
<pdfrwt beam="1">  1       21 0.22436984E-01 0.10195128E+03</pdfrwt>
<pdfrwt beam="2">  1       21 0.42756637E-01 0.10195128E+03</pdfrwt>
<totfact> 0.10150375E+05</totfact>
</mgrwt>
</event>
<event>
 5    1  0.1595802E+000  0.1223523E+03  0.7546771E-02  0.1239266E+00
         21   -1    0    0  501  502  0.00000000000E+00  0.00000000000E+00  0.35134703023E+02  0.35134703023E+02  0.00000000000E+00 0. -1.
         21   -1    0    0  502  503 -0.00000000000E+00 -0.00000000000E+00 -0.82782339810E+03  0.82782339810E+03  0.00000000000E+00 0.  1.
         24    1    1    2    0    0 -0.43214309135E+02  0.62841439514E+02 -0.38010726611E+03  0.39593594525E+03  0.80419002446E+02 0.  1.
          1    1    1    2  501    0  0.21705703198E+02  0.30862865467E+02  0.54094740700E+01  0.38117140840E+02  0.00000000000E+00 0. -1.
         -2    1    1    2    0  503  0.21508605937E+02 -0.93704304981E+02 -0.41799090303E+03  0.42890501503E+03  0.00000000000E+00 0.  1.
<mgrwt>
<rscale>  2 0.12235225E+03</rscale>
<asrwt>0</asrwt>
<pdfrwt beam="1">  1       21 0.54053392E-02 0.12235225E+03</pdfrwt>
<pdfrwt beam="2">  1       21 0.12735744E+00 0.12235225E+03</pdfrwt>
<totfact> 0.11071025E+05</totfact>
</mgrwt>
</event>
<event>
 5    1  0.1595802E+000  0.8791243E+02  0.7546771E-02  0.1307987E+00
         21   -1    0    0  501  502  0.00000000000E+00  0.00000000000E+00  0.48017831825E+02  0.48017831825E+02  0.00000000000E+00 0. -1.
         21   -1    0    0  502  503 -0.00000000000E+00 -0.00000000000E+00 -0.18409121058E+04  0.18409121058E+04  0.00000000000E+00 0.  1.
         24    1    1    2    0    0  0.46273406442E+01 -0.16603065867E+02 -0.37825031634E+03  0.38708860981E+03  0.80419002446E+02 0.  0.
          1    1    1    2  501    0 -0.23076369897E+01 -0.38429203076E+02  0.34473531802E+02  0.51677395759E+02  0.00000000000E+00 0. -1.
         -2    1    1    2    0  503 -0.23197036545E+01  0.55032268943E+02 -0.14491174894E+04  0.14501639321E+04  0.00000000000E+00 0.  1.
<mgrwt>
<rscale>  2 0.87912434E+02</rscale>
<asrwt>0</asrwt>
<pdfrwt beam="1">  1       21 0.73873583E-02 0.87912434E+02</pdfrwt>
<pdfrwt beam="2">  1       21 0.28321726E+00 0.87912434E+02</pdfrwt>
<totfact> 0.68832944E+03</totfact>
</mgrwt>
</event>
<event>
 5    1  0.1595802E+000  0.7567624E+02  0.7546771E-02  0.1341790E+00
         21   -1    0    0  501  502  0.00000000000E+00  0.00000000000E+00  0.48638318853E+03  0.48638318853E+03  0.00000000000E+00 0. -1.
         21   -1    0    0  502  503 -0.00000000000E+00 -0.00000000000E+00 -0.61675270631E+02  0.61675270631E+02  0.00000000000E+00 0. -1.
         24    1    1    2    0    0  0.25923534071E+02  0.44692440199E+02 -0.19824486636E+02  0.97620028962E+02  0.80419002446E+02 0. -1.
          1    1    1    2  501    0 -0.24110750674E+02 -0.20909019294E+02  0.38477857091E+03  0.38609981096E+03  0.00000000000E+00 0. -1.
         -2    1    1    2    0  503 -0.18127833974E+01 -0.23783420905E+02  0.59753833618E+02  0.64338619239E+02  0.00000000000E+00 0.  1.
<mgrwt>
<rscale>  2 0.75676235E+02</rscale>
<asrwt>0</asrwt>
<pdfrwt beam="1">  1       21 0.74828180E-01 0.75676235E+02</pdfrwt>
<pdfrwt beam="2">  1       21 0.94885035E-02 0.75676235E+02</pdfrwt>
<totfact> 0.14859293E+05</totfact>
</mgrwt>
</event>
<event>
 5    1  0.1595802E+000  0.6462059E+02  0.7546771E-02  0.1379404E+00
         21   -1    0    0  503  502  0.00000000000E+00  0.00000000000E+00  0.51494335126E+02  0.51494335126E+02  0.00000000000E+00 0. -1.
         21   -1    0    0  501  503 -0.00000000000E+00 -0.00000000000E+00 -0.82407672441E+02  0.82407672441E+02  0.00000000000E+00 0.  1.
         24    1    1    2    0    0  0.10914959614E+02  0.13172262272E+02 -0.11599076900E+02  0.83032519991E+02  0.80419002446E+02 0. -1.
          1    1    1    2  501    0  0.45596770645E+01 -0.26323016268E+02 -0.11975380730E+02  0.29276297307E+02  0.00000000000E+00 0. -1.
         -2    1    1    2    0  502 -0.15474636678E+02  0.13150753996E+02 -0.73388796848E+01  0.21593190269E+02  0.00000000000E+00 0.  1.
<mgrwt>
<rscale>  2 0.64620592E+02</rscale>
<asrwt>0</asrwt>
<pdfrwt beam="1">  1       21 0.79222056E-02 0.64620592E+02</pdfrwt>
<pdfrwt beam="2">  1       21 0.12678103E-01 0.64620592E+02</pdfrwt>
<totfact> 0.60722216E+06</totfact>
</mgrwt>
</event>
<event>
 5    1  0.1595802E+000  0.6577422E+02  0.7546771E-02  0.1375083E+00
         21   -1    0    0  501  502  0.00000000000E+00  0.00000000000E+00  0.22756481378E+02  0.22756481378E+02  0.00000000000E+00 0.  1.
         21   -1    0    0  502  503 -0.00000000000E+00 -0.00000000000E+00 -0.21410412066E+03  0.21410412066E+03  0.00000000000E+00 0. -1.
         24    1    1    2    0    0  0.91496099263E+01 -0.12915251319E+01 -0.12250847259E+03  0.14683638926E+03  0.80419002446E+02 0.  1.
          1    1    1    2  501    0 -0.27095518747E+02 -0.10574841560E+02 -0.16510238543E+02  0.33445214709E+02  0.00000000000E+00 0. -1.
         -2    1    1    2    0  503  0.17945908821E+02  0.11866366692E+02 -0.52328928144E+02  0.56578998070E+02  0.00000000000E+00 0.  1.
<mgrwt>
<rscale>  2 0.65774219E+02</rscale>
<asrwt>0</asrwt>
<pdfrwt beam="1">  1       21 0.35009971E-02 0.65774219E+02</pdfrwt>
<pdfrwt beam="2">  1       21 0.32939095E-01 0.65774219E+02</pdfrwt>
<totfact> 0.41297835E+06</totfact>
</mgrwt>
</event>
<event>
 5    1  0.2050308E+000  0.1979055E+03  0.7546771E-02  0.1151518E+00
         21   -1    0    0  503  502  0.00000000000E+00  0.00000000000E+00  0.42558121485E+03  0.42558121485E+03  0.00000000000E+00 0. -1.
         21   -1    0    0  501  503 -0.00000000000E+00 -0.00000000000E+00 -0.28554477270E+03  0.28554477270E+03  0.00000000000E+00 0. -1.
         24    1    1    2    0    0  0.16439762009E+03 -0.72836446317E+02  0.31175501880E+03  0.36876840036E+03  0.80419002446E+02 0. -1.
          1    1    1    2  501    0 -0.14552237316E+03  0.91817870355E+02 -0.22468984326E+03  0.28300672796E+03  0.00000000000E+00 0. -1.
         -2    1    1    2    0  502 -0.18875246928E+02 -0.18981424038E+02  0.52971266605E+02  0.59350859226E+02  0.00000000000E+00 0.  1.
<mgrwt>
<rscale>  2 0.19790548E+03</rscale>
<asrwt>0</asrwt>
<pdfrwt beam="1">  1       21 0.65474033E-01 0.19790548E+03</pdfrwt>
<pdfrwt beam="2">  1       21 0.43929965E-01 0.19790548E+03</pdfrwt>
<totfact> 0.10641638E+04</totfact>
</mgrwt>
</event>
<event>
 5    1  0.1595802E+000  0.1412238E+03  0.7546771E-02  0.1211692E+00
         21   -1    0    0  501  502  0.00000000000E+00  0.00000000000E+00  0.33244479393E+02  0.33244479393E+02  0.00000000000E+00 0.  1.
         21   -1    0    0  502  503 -0.00000000000E+00 -0.00000000000E+00 -0.83985231452E+03  0.83985231452E+03  0.00000000000E+00 0.  1.
         24    1    1    2    0    0  0.82067057347E+02  0.91552767850E+02 -0.50844674703E+03  0.52924684385E+03  0.80419002446E+02 0.  1.
          1    1    1    2  501    0 -0.15097820764E+02 -0.59317382369E+02 -0.35245589702E+02  0.70631067077E+02  0.00000000000E+00 0. -1.
         -2    1    1    2    0  503 -0.66969236584E+02 -0.32235385481E+02 -0.26291549839E+03  0.27321888299E+03  0.00000000000E+00 0.  1.
<mgrwt>
<rscale>  2 0.14122380E+03</rscale>
<asrwt>0</asrwt>
<pdfrwt beam="1">  1       21 0.51145358E-02 0.14122380E+03</pdfrwt>
<pdfrwt beam="2">  1       21 0.12920803E+00 0.14122380E+03</pdfrwt>
<totfact> 0.11621048E+05</totfact>
</mgrwt>
</event>
<event>
 5    1  0.1595802E+000  0.9409822E+02  0.7546771E-02  0.1293220E+00
         21   -1    0    0  503  502  0.00000000000E+00  0.00000000000E+00  0.80266509484E+02  0.80266509484E+02  0.00000000000E+00 0.  1.
         21   -1    0    0  501  503 -0.00000000000E+00 -0.00000000000E+00 -0.17992955105E+03  0.17992955105E+03  0.00000000000E+00 0. -1.
         24    1    1    2    0    0 -0.36880876536E+02 -0.86069419230E+01 -0.79407001965E+02  0.11919297974E+03  0.80419002446E+02 0. -1.
          1    1    1    2  501    0  0.55391622183E+02 -0.25129221595E+02 -0.60171759166E+02  0.85559045034E+02  0.00000000000E+00 0. -1.
         -2    1    1    2    0  502 -0.18510745647E+02  0.33736163518E+02  0.39915719564E+02  0.55444035762E+02  0.00000000000E+00 0.  1.
<mgrwt>
<rscale>  2 0.94098223E+02</rscale>
<asrwt>0</asrwt>
<pdfrwt beam="1">  1       21 0.12348694E-01 0.94098223E+02</pdfrwt>
<pdfrwt beam="2">  1       21 0.27681469E-01 0.94098223E+02</pdfrwt>
<totfact> 0.69697406E+05</totfact>
</mgrwt>
</event>
<event>
 5    1  0.1595802E+000  0.6739204E+02  0.7546771E-02  0.1369193E+00
         21   -1    0    0  501  502  0.00000000000E+00  0.00000000000E+00  0.87139150127E+02  0.87139150127E+02  0.00000000000E+00 0. -1.
         21   -1    0    0  502  503 -0.00000000000E+00 -0.00000000000E+00 -0.70769274228E+02  0.70769274228E+02  0.00000000000E+00 0.  1.
         24    1    1    2    0    0 -0.24218478175E+02  0.23753949957E+02 -0.90658496339E+00  0.87285867552E+02  0.80419002446E+02 0.  1.
          1    1    1    2  501    0  0.24414376740E+02 -0.67558911027E+00  0.34184147825E+02  0.42012785849E+02  0.00000000000E+00 0. -1.
         -2    1    1    2    0  503 -0.19589856480E+00 -0.23078360847E+02 -0.16907686962E+02  0.28609770954E+02  0.00000000000E+00 0.  1.
<mgrwt>
<rscale>  2 0.67392037E+02</rscale>
<asrwt>0</asrwt>
<pdfrwt beam="1">  1       21 0.13406023E-01 0.67392037E+02</pdfrwt>
<pdfrwt beam="2">  1       21 0.10887581E-01 0.67392037E+02</pdfrwt>
<totfact> 0.32085841E+06</totfact>
</mgrwt>
</event>
<event>
 5    1  0.1595802E+000  0.6431376E+02  0.7546771E-02  0.1380572E+00
         21   -1    0    0  501  502  0.00000000000E+00  0.00000000000E+00  0.61084655968E+03  0.61084655968E+03  0.00000000000E+00 0. -1.
         21   -1    0    0  502  503 -0.00000000000E+00 -0.00000000000E+00 -0.75272057188E+01  0.75272057188E+01  0.00000000000E+00 0. -1.
         24    1    1    2    0    0  0.51441155782E+01  0.53994251171E+01  0.40011895303E+03  0.40818869197E+03  0.80419002446E+02 0.  0.
          1    1    1    2  501    0  0.49709181120E+01 -0.25169692991E+02  0.15507424421E+03  0.15718220220E+03  0.00000000000E+00 0. -1.
         -2    1    1    2    0  503 -0.10115033690E+02  0.19770267874E+02  0.48126156723E+02  0.53002871237E+02  0.00000000000E+00 0.  1.
<mgrwt>
<rscale>  2 0.64313757E+02</rscale>
<asrwt>0</asrwt>
<pdfrwt beam="1">  1       21 0.93976355E-01 0.64313757E+02</pdfrwt>
<pdfrwt beam="2">  1       21 0.11580321E-02 0.64313757E+02</pdfrwt>
<totfact> 0.27442662E+06</totfact>
</mgrwt>
</event>
<event>
 5    1  0.1595802E+000  0.1103836E+03  0.7546771E-02  0.1259861E+00
         21   -1    0    0  501  502  0.00000000000E+00  0.00000000000E+00  0.16591621315E+03  0.16591621315E+03  0.00000000000E+00 0. -1.
         21   -1    0    0  502  503 -0.00000000000E+00 -0.00000000000E+00 -0.49975322675E+03  0.49975322675E+03  0.00000000000E+00 0.  1.
         24    1    1    2    0    0 -0.85339841926E+02 -0.43312751918E+02 -0.12763679874E+02  0.12565432972E+03  0.80419002446E+02 0.  0.
          1    1    1    2  501    0  0.66956900729E+02  0.32391066492E+02  0.96531278563E+02  0.12186342964E+03  0.00000000000E+00 0. -1.
         -2    1    1    2    0  503  0.18382941197E+02  0.10921685426E+02 -0.41760461229E+03  0.41815168054E+03  0.00000000000E+00 0.  1.
<mgrwt>
<rscale>  2 0.11038358E+03</rscale>
<asrwt>0</asrwt>
<pdfrwt beam="1">  1       21 0.25525572E-01 0.11038358E+03</pdfrwt>
<pdfrwt beam="2">  1       21 0.76885110E-01 0.11038358E+03</pdfrwt>
<totfact> 0.23136255E+04</totfact>
</mgrwt>
</event>
<event>
 5    1  0.2532621E+000  0.8798199E+02  0.7546771E-02  0.1307813E+00
         21   -1    0    0  503  502  0.00000000000E+00  0.00000000000E+00  0.25022604513E+03  0.25022604513E+03  0.00000000000E+00 0. -1.
         21   -1    0    0  501  503 -0.00000000000E+00 -0.00000000000E+00 -0.22416141768E+03  0.22416141768E+03  0.00000000000E+00 0. -1.
         24    1    1    2    0    0  0.44984997658E+02  0.30128638266E+02  0.16758026323E+03  0.19360202850E+03  0.80419002446E+02 0. -1.
          1    1    1    2  501    0 -0.55108972216E+02 -0.93400249186E+01 -0.20538728964E+03  0.21285716720E+03  0.00000000000E+00 0. -1.
         -2    1    1    2    0  502  0.10123974557E+02 -0.20788613347E+02  0.63871653864E+02  0.67928267113E+02  0.00000000000E+00 0.  1.
<mgrwt>
<rscale>  2 0.87981991E+02</rscale>
<asrwt>0</asrwt>
<pdfrwt beam="1">  1       21 0.38496315E-01 0.87981991E+02</pdfrwt>
<pdfrwt beam="2">  1       21 0.34486372E-01 0.87981991E+02</pdfrwt>
<totfact> 0.55786576E+04</totfact>
</mgrwt>
</event>
<event>
 5    1  0.1595802E+000  0.7217172E+02  0.7546771E-02  0.1352860E+00
         21   -1    0    0  501  502  0.00000000000E+00  0.00000000000E+00  0.11717083824E+04  0.11717083824E+04  0.00000000000E+00 0. -1.
         21   -1    0    0  502  503 -0.00000000000E+00 -0.00000000000E+00 -0.20708034326E+02  0.20708034326E+02  0.00000000000E+00 0.  1.
         24    1    1    2    0    0  0.85883128680E+01  0.12873900253E+02  0.10232323120E+04  0.10265042994E+04  0.80419002446E+02 0. -1.
          1    1    1    2  501    0  0.26110956274E+02 -0.85824970947E+01  0.12803049276E+03  0.13094750234E+03  0.00000000000E+00 0. -1.
         -2    1    1    2    0  503 -0.34699269142E+02 -0.42914031588E+01 -0.26245664048E+00  0.34964615020E+02  0.00000000000E+00 0.  1.
<mgrwt>
<rscale>  2 0.72171721E+02</rscale>
<asrwt>0</asrwt>
<pdfrwt beam="1">  1       21 0.18026278E+00 0.72171721E+02</pdfrwt>
<pdfrwt beam="2">  1       21 0.31858524E-02 0.72171721E+02</pdfrwt>
<totfact> 0.11235004E+05</totfact>
</mgrwt>
</event>
<event>
 5    1  0.1595802E+000  0.2149562E+03  0.7546771E-02  0.1137700E+00
         21   -1    0    0  501  502  0.00000000000E+00  0.00000000000E+00  0.20075008742E+03  0.20075008742E+03  0.00000000000E+00 0. -1.
         21   -1    0    0  502  503 -0.00000000000E+00 -0.00000000000E+00 -0.28239978516E+03  0.28239978516E+03  0.00000000000E+00 0. -1.
         24    1    1    2    0    0 -0.14548871534E+03  0.99666230626E+02 -0.23509151768E+02  0.19524400117E+03  0.80419002446E+02 0. -1.
          1    1    1    2  501    0  0.12655098902E+03  0.79677951479E+01  0.47977649375E+02  0.13557467840E+03  0.00000000000E+00 0. -1.
         -2    1    1    2    0  503  0.18937726320E+02 -0.10763402577E+03 -0.10611819535E+03  0.15233119302E+03  0.00000000000E+00 0.  1.
<mgrwt>
<rscale>  2 0.21495619E+03</rscale>
<asrwt>0</asrwt>
<pdfrwt beam="1">  1       21 0.30884629E-01 0.21495619E+03</pdfrwt>
<pdfrwt beam="2">  1       21 0.43446121E-01 0.21495619E+03</pdfrwt>
<totfact> 0.50730079E+04</totfact>
</mgrwt>
</event>
<event>
 5    1  0.1595802E+000  0.1675475E+03  0.7546771E-02  0.1180430E+00
         21   -1    0    0  503  502  0.00000000000E+00  0.00000000000E+00  0.13381029618E+04  0.13381029618E+04  0.00000000000E+00 0.  1.
         21   -1    0    0  501  503 -0.00000000000E+00 -0.00000000000E+00 -0.85505561831E+02  0.85505561831E+02  0.00000000000E+00 0. -1.
         24    1    1    2    0    0  0.30017202093E+02  0.12813553986E+03  0.92257590062E+03  0.93537867057E+03  0.80419002446E+02 0.  1.
          1    1    1    2  501    0 -0.21009346003E+02  0.22022674644E+02 -0.61601021950E+02  0.68710091858E+02  0.00000000000E+00 0. -1.
         -2    1    1    2    0  502 -0.90078560905E+01 -0.15015821450E+03  0.39162252131E+03  0.41951976122E+03  0.00000000000E+00 0.  1.
<mgrwt>
<rscale>  2 0.16754753E+03</rscale>
<asrwt>0</asrwt>
<pdfrwt beam="1">  1       21 0.20586198E+00 0.16754753E+03</pdfrwt>
<pdfrwt beam="2">  1       21 0.13154703E-01 0.16754753E+03</pdfrwt>
<totfact> 0.62802932E+03</totfact>
</mgrwt>
</event>
<event>
 5    1  0.1595802E+000  0.1376593E+03  0.7546771E-02  0.1216514E+00
         21   -1    0    0  503  502  0.00000000000E+00  0.00000000000E+00  0.88060404757E+02  0.88060404757E+02  0.00000000000E+00 0.  1.
         21   -1    0    0  501  503 -0.00000000000E+00 -0.00000000000E+00 -0.43120675091E+03  0.43120675091E+03  0.00000000000E+00 0.  1.
         24    1    1    2    0    0 -0.11268634970E+03  0.22085654301E+02 -0.32280049319E+03  0.35192806636E+03  0.80419002446E+02 0.  1.
          1    1    1    2  501    0  0.32004778856E+01 -0.25392062397E+02 -0.47973077618E+02  0.54372935065E+02  0.00000000000E+00 0. -1.
         -2    1    1    2    0  502  0.10948587181E+03  0.33064080962E+01  0.27627224657E+02  0.11296615424E+03  0.00000000000E+00 0.  1.
<mgrwt>
<rscale>  2 0.13765932E+03</rscale>
<asrwt>0</asrwt>
<pdfrwt beam="1">  1       21 0.13547755E-01 0.13765932E+03</pdfrwt>
<pdfrwt beam="2">  1       21 0.66339500E-01 0.13765932E+03</pdfrwt>
<totfact> 0.10051666E+05</totfact>
</mgrwt>
</event>
<event>
 5    1  0.1595802E+000  0.8150873E+02  0.7546771E-02  0.1324824E+00
         21   -1    0    0  501  502  0.00000000000E+00  0.00000000000E+00  0.17274149842E+03  0.17274149842E+03  0.00000000000E+00 0. -1.
         21   -1    0    0  502  503 -0.00000000000E+00 -0.00000000000E+00 -0.14862362793E+03  0.14862362793E+03  0.00000000000E+00 0. -1.
         24    1    1    2    0    0 -0.55050917464E+02 -0.25987495890E+02 -0.12452172462E+03  0.16024615225E+03  0.80419002446E+02 0. -1.
          1    1    1    2  501    0  0.35175418888E+02  0.97810820817E+01  0.89241805047E+02  0.96421363964E+02  0.00000000000E+00 0. -1.
         -2    1    1    2    0  503  0.19875498576E+02  0.16206413808E+02  0.59397790065E+02  0.64697610132E+02  0.00000000000E+00 0.  1.
<mgrwt>
<rscale>  2 0.81508731E+02</rscale>
<asrwt>0</asrwt>
<pdfrwt beam="1">  1       21 0.26575615E-01 0.81508731E+02</pdfrwt>
<pdfrwt beam="2">  1       21 0.22865173E-01 0.81508731E+02</pdfrwt>
<totfact> 0.24818101E+05</totfact>
</mgrwt>
</event>
<event>
 5    1  0.1595802E+000  0.8254650E+02  0.7546771E-02  0.1321976E+00
         21   -1    0    0  503  502  0.00000000000E+00  0.00000000000E+00  0.19032293069E+04  0.19032293069E+04  0.00000000000E+00 0.  1.
         21   -1    0    0  501  503 -0.00000000000E+00 -0.00000000000E+00 -0.70218618969E+01  0.70218618969E+01  0.00000000000E+00 0. -1.
         24    1    1    2    0    0  0.27818777525E+02 -0.36376068245E+02  0.13613003545E+04  0.13644423673E+04  0.80419002446E+02 0.  1.
          1    1    1    2  501    0 -0.17911081943E+02 -0.13036682420E+02  0.24942112965E+02  0.33359720383E+02  0.00000000000E+00 0. -1.
         -2    1    1    2    0  502 -0.99076955827E+01  0.49412750665E+02  0.50996497755E+03  0.51244908107E+03  0.00000000000E+00 0.  1.
<mgrwt>
<rscale>  2 0.82546503E+02</rscale>
<asrwt>0</asrwt>
<pdfrwt beam="1">  1       21 0.29280410E+00 0.82546503E+02</pdfrwt>
<pdfrwt beam="2">  1       21 0.10802880E-02 0.82546503E+02</pdfrwt>
<totfact> 0.13967499E+05</totfact>
</mgrwt>
</event>
<event>
 5    1  0.1595802E+000  0.9793645E+02  0.7546771E-02  0.1284696E+00
         21   -1    0    0  501  502  0.00000000000E+00  0.00000000000E+00  0.35294669524E+03  0.35294669524E+03  0.00000000000E+00 0.  1.
         21   -1    0    0  502  503 -0.00000000000E+00 -0.00000000000E+00 -0.47606092255E+02  0.47606092255E+02  0.00000000000E+00 0. -1.
         24    1    1    2    0    0  0.60774371040E+02 -0.40512047696E+02  0.31794451261E+02  0.11319387470E+03  0.80419002446E+02 0. -1.
          1    1    1    2  501    0  0.24520338120E+01  0.20892019788E+02  0.50787670797E+02  0.54971596899E+02  0.00000000000E+00 0. -1.
         -2    1    1    2    0  503 -0.63226404852E+02  0.19620027908E+02  0.22275848093E+03  0.23238731590E+03  0.00000000000E+00 0.  1.
<mgrwt>
<rscale>  2 0.97936454E+02</rscale>
<asrwt>0</asrwt>
<pdfrwt beam="1">  1       21 0.54299490E-01 0.97936454E+02</pdfrwt>
<pdfrwt beam="2">  1       21 0.73240144E-02 0.97936454E+02</pdfrwt>
<totfact> 0.45416302E+05</totfact>
</mgrwt>
</event>
<event>
 5    1  0.1595802E+000  0.7544183E+02  0.7546771E-02  0.1342508E+00
         21   -1    0    0  503  502  0.00000000000E+00  0.00000000000E+00  0.97344490996E+02  0.97344490996E+02  0.00000000000E+00 0. -1.
         21   -1    0    0  501  503 -0.00000000000E+00 -0.00000000000E+00 -0.86119339643E+02  0.86119339643E+02  0.00000000000E+00 0. -1.
         24    1    1    2    0    0 -0.53766809321E+02 -0.50257255432E+01  0.34618382691E+02  0.10286776014E+03  0.80419002446E+02 0. -1.
          1    1    1    2  501    0  0.28904611487E+02  0.20680545325E+01 -0.40842076409E+02  0.50078225010E+02  0.00000000000E+00 0. -1.
         -2    1    1    2    0  502  0.24862197834E+02  0.29576710107E+01  0.17448845072E+02  0.30517845489E+02  0.00000000000E+00 0.  1.
<mgrwt>
<rscale>  2 0.75441833E+02</rscale>
<asrwt>0</asrwt>
<pdfrwt beam="1">  1       21 0.14976076E-01 0.75441833E+02</pdfrwt>
<pdfrwt beam="2">  1       21 0.13249129E-01 0.75441833E+02</pdfrwt>
<totfact> 0.18862796E+06</totfact>
</mgrwt>
</event>
<event>
 5    1  0.1595802E+000  0.7432480E+02  0.7546771E-02  0.1345975E+00
         21   -1    0    0  503  502  0.00000000000E+00  0.00000000000E+00  0.18700545751E+03  0.18700545751E+03  0.00000000000E+00 0.  1.
         21   -1    0    0  501  503 -0.00000000000E+00 -0.00000000000E+00 -0.34138643253E+02  0.34138643253E+02  0.00000000000E+00 0. -1.
         24    1    1    2    0    0  0.21160759383E+02  0.20865667328E+02  0.11231034582E+03  0.14129396145E+03  0.80419002446E+02 0.  1.
          1    1    1    2  501    0 -0.27996814587E+02  0.11181528505E+02  0.34464128375E+01  0.30343466647E+02  0.00000000000E+00 0. -1.
         -2    1    1    2    0  502  0.68360552042E+01 -0.32047195834E+02  0.37110055602E+02  0.49506672665E+02  0.00000000000E+00 0.  1.
<mgrwt>
<rscale>  2 0.74324799E+02</rscale>
<asrwt>0</asrwt>
<pdfrwt beam="1">  1       21 0.28770070E-01 0.74324799E+02</pdfrwt>
<pdfrwt beam="2">  1       21 0.52520991E-02 0.74324799E+02</pdfrwt>
<totfact> 0.27673105E+06</totfact>
</mgrwt>
</event>
<event>
 5    1  0.1595802E+000  0.8534166E+02  0.7546771E-02  0.1314541E+00
         21   -1    0    0  503  502  0.00000000000E+00  0.00000000000E+00  0.20562585594E+02  0.20562585594E+02  0.00000000000E+00 0. -1.
         21   -1    0    0  501  503 -0.00000000000E+00 -0.00000000000E+00 -0.11131951546E+04  0.11131951546E+04  0.00000000000E+00 0. -1.
         24    1    1    2    0    0  0.52551721363E+02  0.28454306849E+02 -0.13497451366E+03  0.16809719298E+03  0.80419002446E+02 0. -1.
          1    1    1    2  501    0 -0.24065073778E+02 -0.33815121738E+02 -0.90157160170E+03  0.90252642245E+03  0.00000000000E+00 0. -1.
         -2    1    1    2    0  502 -0.28486647585E+02  0.53608148891E+01 -0.56086453685E+02  0.63134124797E+02  0.00000000000E+00 0.  1.
<mgrwt>
<rscale>  2 0.85341663E+02</rscale>
<asrwt>0</asrwt>
<pdfrwt beam="1">  1       21 0.31634732E-02 0.85341663E+02</pdfrwt>
<pdfrwt beam="2">  1       21 0.17126087E+00 0.85341663E+02</pdfrwt>
<totfact> 0.12883942E+05</totfact>
</mgrwt>
</event>
<event>
 5    1  0.1595802E+000  0.8010565E+02  0.7546771E-02  0.1328752E+00
         21   -1    0    0  503  502  0.00000000000E+00  0.00000000000E+00  0.14611336093E+02  0.14611336093E+02  0.00000000000E+00 0. -1.
         21   -1    0    0  501  503 -0.00000000000E+00 -0.00000000000E+00 -0.93576548109E+03  0.93576548109E+03  0.00000000000E+00 0. -1.
         24    1    1    2    0    0  0.18904846386E+02  0.56804911998E+02 -0.35585603044E+03  0.36970923927E+03  0.80419002446E+02 0. -1.
          1    1    1    2  501    0 -0.79010893026E+01 -0.28838207438E+02 -0.54152036018E+03  0.54234524974E+03  0.00000000000E+00 0. -1.
         -2    1    1    2    0  502 -0.11003757083E+02 -0.27966704560E+02 -0.23777754373E+02  0.38322328177E+02  0.00000000000E+00 0.  1.
<mgrwt>
<rscale>  2 0.80105653E+02</rscale>
<asrwt>0</asrwt>
<pdfrwt beam="1">  1       21 0.22478973E-02 0.80105653E+02</pdfrwt>
<pdfrwt beam="2">  1       21 0.14396395E+00 0.80105653E+02</pdfrwt>
<totfact> 0.35095698E+05</totfact>
</mgrwt>
</event>
<event>
 5    1  0.1595802E+000  0.9248150E+02  0.7546771E-02  0.1296951E+00
         21   -1    0    0  503  502  0.00000000000E+00  0.00000000000E+00  0.44296313607E+03  0.44296313607E+03  0.00000000000E+00 0.  1.
         21   -1    0    0  501  503 -0.00000000000E+00 -0.00000000000E+00 -0.35220547880E+02  0.35220547880E+02  0.00000000000E+00 0. -1.
         24    1    1    2    0    0  0.25439187043E+02 -0.11801666062E+02  0.15900648589E+03  0.18037935045E+03  0.80419002446E+02 0.  1.
          1    1    1    2  501    0  0.21442004218E+02 -0.30073460526E+02 -0.42013873515E+01  0.37172896424E+02  0.00000000000E+00 0. -1.
         -2    1    1    2    0  502 -0.46881191261E+02  0.41875126588E+02  0.25293748965E+03  0.26063143708E+03  0.00000000000E+00 0.  1.
<mgrwt>
<rscale>  2 0.92481499E+02</rscale>
<asrwt>0</asrwt>
<pdfrwt beam="1">  1       21 0.68148171E-01 0.92481499E+02</pdfrwt>
<pdfrwt beam="2">  1       21 0.54185461E-02 0.92481499E+02</pdfrwt>
<totfact> 0.46779963E+05</totfact>
</mgrwt>
</event>
<event>
 5    1  0.1595802E+000  0.7875288E+02  0.7546771E-02  0.1332628E+00
         21   -1    0    0  501  502  0.00000000000E+00  0.00000000000E+00  0.48504649243E+03  0.48504649243E+03  0.00000000000E+00 0. -1.
         21   -1    0    0  502  503 -0.00000000000E+00 -0.00000000000E+00 -0.56923244158E+02  0.56923244158E+02  0.00000000000E+00 0. -1.
         24    1    1    2    0    0 -0.17080465093E+01  0.20277859631E+02 -0.13206285785E+02  0.83998398513E+02  0.80419002446E+02 0. -1.
          1    1    1    2  501    0 -0.16633222636E+02 -0.42558380722E+02  0.41899583267E+03  0.42147999675E+03  0.00000000000E+00 0. -1.
         -2    1    1    2    0  503  0.18341269146E+02  0.22280521090E+02  0.22333701381E+02  0.36491341320E+02  0.00000000000E+00 0.  1.
<mgrwt>
<rscale>  2 0.78752881E+02</rscale>
<asrwt>0</asrwt>
<pdfrwt beam="1">  1       21 0.74622534E-01 0.78752881E+02</pdfrwt>
<pdfrwt beam="2">  1       21 0.87574225E-02 0.78752881E+02</pdfrwt>
<totfact> 0.17128002E+05</totfact>
</mgrwt>
</event>
<event>
 5    1  0.1595802E+000  0.7486992E+02  0.7546771E-02  0.1344274E+00
         21   -1    0    0  501  502  0.00000000000E+00  0.00000000000E+00  0.46023745235E+02  0.46023745235E+02  0.00000000000E+00 0. -1.
         21   -1    0    0  502  503 -0.00000000000E+00 -0.00000000000E+00 -0.31944722395E+03  0.31944722395E+03  0.00000000000E+00 0.  1.
         24    1    1    2    0    0 -0.14147989810E+02  0.24324851755E+02 -0.41273836213E+02  0.94671059668E+02  0.80419002446E+02 0.  0.
          1    1    1    2  501    0  0.35865264149E+02 -0.65121839144E+01  0.50570930452E+00  0.36455197897E+02  0.00000000000E+00 0. -1.
         -2    1    1    2    0  503 -0.21717274339E+02 -0.17812667841E+02 -0.23265535181E+03  0.23434471162E+03  0.00000000000E+00 0.  1.
<mgrwt>
<rscale>  2 0.74869921E+02</rscale>
<asrwt>0</asrwt>
<pdfrwt beam="1">  1       21 0.70805761E-02 0.74869921E+02</pdfrwt>
<pdfrwt beam="2">  1       21 0.49145727E-01 0.74869921E+02</pdfrwt>
<totfact> 0.59001922E+05</totfact>
</mgrwt>
</event>
<event>
 5    1  0.1595802E+000  0.7376190E+02  0.7546771E-02  0.1347748E+00
         21   -1    0    0  503  502  0.00000000000E+00  0.00000000000E+00  0.18851118251E+04  0.18851118251E+04  0.00000000000E+00 0. -1.
         21   -1    0    0  501  503 -0.00000000000E+00 -0.00000000000E+00 -0.61462240821E+01  0.61462240821E+01  0.00000000000E+00 0.  1.
         24    1    1    2    0    0 -0.23196427293E+01 -0.35881800663E+01  0.33901396697E+03  0.34844790361E+03  0.80419002446E+02 0.  1.
          1    1    1    2  501    0 -0.37205968122E+01  0.34902286408E+02  0.24869438582E+03  0.25115913277E+03  0.00000000000E+00 0. -1.
         -2    1    1    2    0  502  0.60402395415E+01 -0.31314106342E+02  0.12912572482E+04  0.12916510128E+04  0.00000000000E+00 0.  1.
<mgrwt>
<rscale>  2 0.73761902E+02</rscale>
<asrwt>0</asrwt>
<pdfrwt beam="1">  1       21 0.29001674E+00 0.73761902E+02</pdfrwt>
<pdfrwt beam="2">  1       21 0.94557444E-03 0.73761902E+02</pdfrwt>
<totfact> 0.18045886E+05</totfact>
</mgrwt>
</event>
<event>
 5    1  0.1595802E+000  0.7111356E+02  0.7546771E-02  0.1356347E+00
         21   -1    0    0  503  502  0.00000000000E+00  0.00000000000E+00  0.14129348836E+02  0.14129348836E+02  0.00000000000E+00 0.  1.
         21   -1    0    0  501  503 -0.00000000000E+00 -0.00000000000E+00 -0.46442449569E+03  0.46442449569E+03  0.00000000000E+00 0.  1.
         24    1    1    2    0    0  0.80176350154E+01  0.26675435670E+02 -0.33414818461E+03  0.34481601844E+03  0.80419002446E+02 0.  1.
          1    1    1    2  501    0 -0.22077329246E+02  0.48487218673E+01 -0.82477465510E+02  0.85518716591E+02  0.00000000000E+00 0. -1.
         -2    1    1    2    0  502  0.14059694231E+02 -0.31524157537E+02 -0.33669496736E+02  0.48219109498E+02  0.00000000000E+00 0.  1.
<mgrwt>
<rscale>  2 0.71113565E+02</rscale>
<asrwt>0</asrwt>
<pdfrwt beam="1">  1       21 0.21737460E-02 0.71113565E+02</pdfrwt>
<pdfrwt beam="2">  1       21 0.71449920E-01 0.71113565E+02</pdfrwt>
<totfact> 0.18674805E+06</totfact>
</mgrwt>
</event>
<event>
 5    1  0.1595802E+000  0.8465635E+02  0.7546771E-02  0.1316334E+00
         21   -1    0    0  501  502  0.00000000000E+00  0.00000000000E+00  0.42433541670E+03  0.42433541670E+03  0.00000000000E+00 0. -1.
         21   -1    0    0  502  503 -0.00000000000E+00 -0.00000000000E+00 -0.12676435267E+03  0.12676435267E+03  0.00000000000E+00 0.  1.
         24    1    1    2    0    0 -0.58229038462E+02 -0.13184257107E+02 -0.45749390637E+02  0.11011207134E+03  0.80419002446E+02 0. -1.
          1    1    1    2  501    0  0.30814453783E+02 -0.10877627917E+02  0.38455148842E+03  0.38593743093E+03  0.00000000000E+00 0. -1.
         -2    1    1    2    0  503  0.27414584679E+02  0.24061885024E+02 -0.41231033745E+02  0.55050267099E+02  0.00000000000E+00 0.  1.
<mgrwt>
<rscale>  2 0.84656345E+02</rscale>
<asrwt>0</asrwt>
<pdfrwt beam="1">  1       21 0.65282371E-01 0.84656345E+02</pdfrwt>
<pdfrwt beam="2">  1       21 0.19502208E-01 0.84656345E+02</pdfrwt>
<totfact> 0.55465067E+04</totfact>
</mgrwt>
</event>
<event>
 5    1  0.1595802E+000  0.9285590E+02  0.7546771E-02  0.1296079E+00
         21   -1    0    0  503  502  0.00000000000E+00  0.00000000000E+00  0.51806032059E+03  0.51806032059E+03  0.00000000000E+00 0.  1.
         21   -1    0    0  501  503 -0.00000000000E+00 -0.00000000000E+00 -0.26533376856E+02  0.26533376856E+02  0.00000000000E+00 0.  1.
         24    1    1    2    0    0 -0.72358882678E+02 -0.14023541153E+02  0.16365769544E+03  0.19668127730E+03  0.80419002446E+02 0.  1.
          1    1    1    2  501    0  0.41913206636E+02  0.18570136847E+02  0.48070720225E+02  0.66425605123E+02  0.00000000000E+00 0. -1.
         -2    1    1    2    0  502  0.30445676043E+02 -0.45465956934E+01  0.27979852808E+03  0.28148681503E+03  0.00000000000E+00 0.  1.
<mgrwt>
<rscale>  2 0.92855903E+02</rscale>
<asrwt>0</asrwt>
<pdfrwt beam="1">  1       21 0.79701580E-01 0.92855903E+02</pdfrwt>
<pdfrwt beam="2">  1       21 0.40820584E-02 0.92855903E+02</pdfrwt>
<totfact> 0.53224359E+05</totfact>
</mgrwt>
</event>
<event>
 5    1  0.1595802E+000  0.8287037E+02  0.7546771E-02  0.1321098E+00
         21   -1    0    0  501  502  0.00000000000E+00  0.00000000000E+00  0.13377742020E+03  0.13377742020E+03  0.00000000000E+00 0.  1.
         21   -1    0    0  502  503 -0.00000000000E+00 -0.00000000000E+00 -0.72552751035E+02  0.72552751035E+02  0.00000000000E+00 0.  1.
         24    1    1    2    0    0 -0.38344203455E+02  0.44471757906E+02  0.48168078447E+02  0.11061371943E+03  0.80419002446E+02 0.  1.
          1    1    1    2  501    0  0.43888331777E+01 -0.28151677505E+02  0.40207122991E+02  0.49278712871E+02  0.00000000000E+00 0. -1.
         -2    1    1    2    0  503  0.33955370277E+02 -0.16320080401E+02 -0.27150532273E+02  0.46437738938E+02  0.00000000000E+00 0.  1.
<mgrwt>
<rscale>  2 0.82870373E+02</rscale>
<asrwt>0</asrwt>
<pdfrwt beam="1">  1       21 0.20581142E-01 0.82870373E+02</pdfrwt>
<pdfrwt beam="2">  1       21 0.11161962E-01 0.82870373E+02</pdfrwt>
<totfact> 0.14405364E+06</totfact>
</mgrwt>
</event>
<event>
 5    1  0.1595802E+000  0.6921831E+02  0.7546771E-02  0.1362772E+00
         21   -1    0    0  503  502  0.00000000000E+00  0.00000000000E+00  0.40128984191E+03  0.40128984191E+03  0.00000000000E+00 0.  1.
         21   -1    0    0  501  503 -0.00000000000E+00 -0.00000000000E+00 -0.58626897759E+02  0.58626897759E+02  0.00000000000E+00 0. -1.
         24    1    1    2    0    0 -0.15813641911E+02  0.51659806028E+00  0.12138463107E+03  0.14646427127E+03  0.80419002446E+02 0.  0.
          1    1    1    2  501    0 -0.15455227555E+02 -0.15424348534E+02 -0.42302324388E+02  0.47605264783E+02  0.00000000000E+00 0. -1.
         -2    1    1    2    0  502  0.31268869466E+02  0.14907750474E+02  0.26358063747E+03  0.26584720362E+03  0.00000000000E+00 0.  1.
<mgrwt>
<rscale>  2 0.69218314E+02</rscale>
<asrwt>0</asrwt>
<pdfrwt beam="1">  1       21 0.61736897E-01 0.69218314E+02</pdfrwt>
<pdfrwt beam="2">  1       21 0.90195230E-02 0.69218314E+02</pdfrwt>
<totfact> 0.24472363E+05</totfact>
</mgrwt>
</event>
<event>
 5    1  0.1595802E+000  0.2335821E+03  0.7546771E-02  0.1124144E+00
         21   -1    0    0  501  502  0.00000000000E+00  0.00000000000E+00  0.25958349592E+03  0.25958349592E+03  0.00000000000E+00 0. -1.
         21   -1    0    0  502  503 -0.00000000000E+00 -0.00000000000E+00 -0.23895670950E+03  0.23895670950E+03  0.00000000000E+00 0. -1.
         24    1    1    2    0    0 -0.20601942517E+03 -0.83270120792E+02 -0.64330451892E+02  0.24491537224E+03  0.80419002446E+02 0. -1.
          1    1    1    2  501    0  0.19003257119E+03  0.54097668483E+02  0.94498150756E+02  0.21901789047E+03  0.00000000000E+00 0. -1.
         -2    1    1    2    0  503  0.15986853977E+02  0.29172452309E+02 -0.95409124471E+01  0.34606942716E+02  0.00000000000E+00 0.  1.
<mgrwt>
<rscale>  2 0.23358212E+03</rscale>
<asrwt>0</asrwt>
<pdfrwt beam="1">  1       21 0.39935923E-01 0.23358212E+03</pdfrwt>
<pdfrwt beam="2">  1       21 0.36762571E-01 0.23358212E+03</pdfrwt>
<totfact> 0.42286843E+04</totfact>
</mgrwt>
</event>
<event>
 5    1  0.1595802E+000  0.7645298E+02  0.7546771E-02  0.1339430E+00
         21   -1    0    0  501  502  0.00000000000E+00  0.00000000000E+00  0.31391206407E+02  0.31391206407E+02  0.00000000000E+00 0. -1.
         21   -1    0    0  502  503 -0.00000000000E+00 -0.00000000000E+00 -0.34647158854E+03  0.34647158854E+03  0.00000000000E+00 0. -1.
         24    1    1    2    0    0 -0.33718706191E+02 -0.19084165935E+02 -0.29202710733E+03  0.30536568881E+03  0.80419002446E+02 0.  0.
          1    1    1    2  501    0  0.41123604995E+02 -0.21220782964E+01 -0.12557929258E+01  0.41197464970E+02  0.00000000000E+00 0. -1.
         -2    1    1    2    0  503 -0.74048988040E+01  0.21206244231E+02 -0.21797481881E+02  0.31299641165E+02  0.00000000000E+00 0.  1.
<mgrwt>
<rscale>  2 0.76452985E+02</rscale>
<asrwt>0</asrwt>
<pdfrwt beam="1">  1       21 0.48294164E-02 0.76452985E+02</pdfrwt>
<pdfrwt beam="2">  1       21 0.53303321E-01 0.76452985E+02</pdfrwt>
<totfact> 0.94757998E+05</totfact>
</mgrwt>
</event>
<event>
 5    1  0.1595802E+000  0.7115444E+02  0.7546771E-02  0.1356211E+00
         21   -1    0    0  503  502  0.00000000000E+00  0.00000000000E+00  0.53444697909E+03  0.53444697909E+03  0.00000000000E+00 0. -1.
         21   -1    0    0  501  503 -0.00000000000E+00 -0.00000000000E+00 -0.54117921148E+02  0.54117921148E+02  0.00000000000E+00 0. -1.
         24    1    1    2    0    0  0.21364839491E+00 -0.21104962675E+02  0.16576559136E+03  0.18544786957E+03  0.80419002446E+02 0. -1.
          1    1    1    2  501    0 -0.14285781170E+02  0.35966357043E+02 -0.35464126696E+02  0.52491586611E+02  0.00000000000E+00 0. -1.
         -2    1    1    2    0  502  0.14072132775E+02 -0.14861394369E+02  0.35002759327E+03  0.35062544405E+03  0.00000000000E+00 0.  1.
<mgrwt>
<rscale>  2 0.71154441E+02</rscale>
<asrwt>0</asrwt>
<pdfrwt beam="1">  1       21 0.82222609E-01 0.71154441E+02</pdfrwt>
<pdfrwt beam="2">  1       21 0.83258344E-02 0.71154441E+02</pdfrwt>
<totfact> 0.15150815E+05</totfact>
</mgrwt>
</event>
<event>
 5    1  0.1595802E+000  0.2279791E+03  0.7546771E-02  0.1128070E+00
         21   -1    0    0  503  502  0.00000000000E+00  0.00000000000E+00  0.58811642570E+03  0.58811642570E+03  0.00000000000E+00 0. -1.
         21   -1    0    0  501  503 -0.00000000000E+00 -0.00000000000E+00 -0.13619964722E+03  0.13619964722E+03  0.00000000000E+00 0. -1.
         24    1    1    2    0    0  0.11848639583E+02 -0.20416080483E+03  0.16220791874E+03  0.27313119438E+03  0.80419002446E+02 0. -1.
          1    1    1    2  501    0 -0.57728849524E+02  0.16845821568E+03  0.24587659917E+02  0.17976468930E+03  0.00000000000E+00 0. -1.
         -2    1    1    2    0  502  0.45880209941E+02  0.35702589143E+02  0.26512119982E+03  0.27142018924E+03  0.00000000000E+00 0.  1.
<mgrwt>
<rscale>  2 0.22797914E+03</rscale>
<asrwt>0</asrwt>
<pdfrwt beam="1">  1       21 0.90479448E-01 0.22797914E+03</pdfrwt>
<pdfrwt beam="2">  1       21 0.20953792E-01 0.22797914E+03</pdfrwt>
<totfact> 0.21509827E+04</totfact>
</mgrwt>
</event>
<event>
 5    1  0.1595802E+000  0.7534554E+02  0.7546771E-02  0.1342804E+00
         21   -1    0    0  501  502  0.00000000000E+00  0.00000000000E+00  0.64580385411E+03  0.64580385411E+03  0.00000000000E+00 0. -1.
         21   -1    0    0  502  503 -0.00000000000E+00 -0.00000000000E+00 -0.97590785973E+01  0.97590785973E+01  0.00000000000E+00 0. -1.
         24    1    1    2    0    0  0.30337734553E+02  0.67273465536E+01  0.35027231447E+03  0.36072641374E+03  0.80419002446E+02 0. -1.
          1    1    1    2  501    0 -0.28046809600E+02 -0.30013575445E+02  0.23936168136E+03  0.24286097411E+03  0.00000000000E+00 0. -1.
         -2    1    1    2    0  503 -0.22909249533E+01  0.23286228892E+02  0.46410779675E+02  0.51975544857E+02  0.00000000000E+00 0.  1.
<mgrwt>
<rscale>  2 0.75345537E+02</rscale>
<asrwt>0</asrwt>
<pdfrwt beam="1">  1       21 0.99354406E-01 0.75345537E+02</pdfrwt>
<pdfrwt beam="2">  1       21 0.15013972E-02 0.75345537E+02</pdfrwt>
<totfact> 0.16197614E+06</totfact>
</mgrwt>
</event>
<event>
 5    1  0.1595802E+000  0.1020383E+03  0.7546771E-02  0.1276067E+00
         21   -1    0    0  501  502  0.00000000000E+00  0.00000000000E+00  0.35505064954E+02  0.35505064954E+02  0.00000000000E+00 0. -1.
         21   -1    0    0  502  503 -0.00000000000E+00 -0.00000000000E+00 -0.42560097825E+03  0.42560097825E+03  0.00000000000E+00 0. -1.
         24    1    1    2    0    0 -0.18041550557E+02  0.75653780222E+02 -0.23421198357E+03  0.25956013024E+03  0.80419002446E+02 0. -1.
          1    1    1    2  501    0  0.34957000169E+02 -0.42917881134E+02 -0.17070781386E+02  0.57925365419E+02  0.00000000000E+00 0. -1.
         -2    1    1    2    0  503 -0.16915449613E+02 -0.32735899088E+02 -0.13881314834E+03  0.14362054755E+03  0.00000000000E+00 0.  1.
<mgrwt>
<rscale>  2 0.10203832E+03</rscale>
<asrwt>0</asrwt>
<pdfrwt beam="1">  1       21 0.54623177E-02 0.10203832E+03</pdfrwt>
<pdfrwt beam="2">  1       21 0.65477073E-01 0.10203832E+03</pdfrwt>
<totfact> 0.50246557E+05</totfact>
</mgrwt>
</event>
<event>
 5    1  0.1595802E+000  0.6828912E+02  0.7546771E-02  0.1366010E+00
         21   -1    0    0  503  502  0.00000000000E+00  0.00000000000E+00  0.38750046065E+02  0.38750046065E+02  0.00000000000E+00 0. -1.
         21   -1    0    0  501  503 -0.00000000000E+00 -0.00000000000E+00 -0.12596768558E+03  0.12596768558E+03  0.00000000000E+00 0. -1.
         24    1    1    2    0    0 -0.54126889965E+01  0.13559541916E+02 -0.48297735417E+02  0.94937061151E+02  0.80419002446E+02 0. -1.
          1    1    1    2  501    0  0.28908467925E+02 -0.11990686522E+02 -0.33040079288E+02  0.45509591521E+02  0.00000000000E+00 0. -1.
         -2    1    1    2    0  502 -0.23495778929E+02 -0.15688553941E+01 -0.58798248092E+01  0.24271078973E+02  0.00000000000E+00 0.  1.
<mgrwt>
<rscale>  2 0.68289119E+02</rscale>
<asrwt>0</asrwt>
<pdfrwt beam="1">  1       21 0.59615456E-02 0.68289119E+02</pdfrwt>
<pdfrwt beam="2">  1       21 0.19379644E-01 0.68289119E+02</pdfrwt>
<totfact> 0.46261689E+06</totfact>
</mgrwt>
</event>
<event>
 5    1  0.1595802E+000  0.6752797E+02  0.7546771E-02  0.1368707E+00
         21   -1    0    0  503  502  0.00000000000E+00  0.00000000000E+00  0.12306319155E+04  0.12306319155E+04  0.00000000000E+00 0.  1.
         21   -1    0    0  501  503 -0.00000000000E+00 -0.00000000000E+00 -0.20784387430E+02  0.20784387430E+02  0.00000000000E+00 0. -1.
         24    1    1    2    0    0 -0.28218056324E+02 -0.96502875774E+01  0.25678087249E+03  0.27072683499E+03  0.80419002446E+02 0. -1.
          1    1    1    2  501    0  0.21540675383E+02 -0.13345438826E+02 -0.19109724205E+01  0.25411675447E+02  0.00000000000E+00 0. -1.
         -2    1    1    2    0  502  0.66773809405E+01  0.22995726403E+02  0.95497762798E+03  0.95527779247E+03  0.00000000000E+00 0.  1.
<mgrwt>
<rscale>  2 0.67527971E+02</rscale>
<asrwt>0</asrwt>
<pdfrwt beam="1">  1       21 0.18932793E+00 0.67527971E+02</pdfrwt>
<pdfrwt beam="2">  1       21 0.31975990E-02 0.67527971E+02</pdfrwt>
<totfact> 0.98289707E+04</totfact>
</mgrwt>
</event>
<event>
 5    1  0.1595802E+000  0.8575962E+02  0.7546771E-02  0.1313458E+00
         21   -1    0    0  501  502  0.00000000000E+00  0.00000000000E+00  0.11130403690E+03  0.11130403690E+03  0.00000000000E+00 0. -1.
         21   -1    0    0  502  503 -0.00000000000E+00 -0.00000000000E+00 -0.18402579395E+03  0.18402579395E+03  0.00000000000E+00 0. -1.
         24    1    1    2    0    0  0.52412747682E+02 -0.38921734621E+02 -0.15511559520E+03  0.18652094085E+03  0.80419002446E+02 0. -1.
          1    1    1    2  501    0 -0.19949503894E+02  0.41682147236E+01  0.40892346394E+02  0.45689612750E+02  0.00000000000E+00 0. -1.
         -2    1    1    2    0  503 -0.32463243788E+02  0.34753519897E+02  0.41501491763E+02  0.63119277254E+02  0.00000000000E+00 0.  1.
<mgrwt>
<rscale>  2 0.85759615E+02</rscale>
<asrwt>0</asrwt>
<pdfrwt beam="1">  1       21 0.17123698E-01 0.85759615E+02</pdfrwt>
<pdfrwt beam="2">  1       21 0.28311660E-01 0.85759615E+02</pdfrwt>
<totfact> 0.37310691E+05</totfact>
</mgrwt>
</event>
<event>
 5    1  0.1595802E+000  0.7750855E+02  0.7546771E-02  0.1336274E+00
         21   -1    0    0  501  502  0.00000000000E+00  0.00000000000E+00  0.46552905911E+01  0.46552905911E+01  0.00000000000E+00 0. -1.
         21   -1    0    0  502  503 -0.00000000000E+00 -0.00000000000E+00 -0.18564276068E+04  0.18564276068E+04  0.00000000000E+00 0.  1.
         24    1    1    2    0    0 -0.71703726026E+01  0.51388384001E+02 -0.57322296987E+03  0.58115743942E+03  0.80419002446E+02 0. -1.
          1    1    1    2  501    0 -0.95789458927E+01 -0.33343305161E+02 -0.72998827530E+03  0.73081216073E+03  0.00000000000E+00 0. -1.
         -2    1    1    2    0  503  0.16749318495E+02 -0.18045078840E+02 -0.54856107107E+03  0.54911329726E+03  0.00000000000E+00 0.  1.
<mgrwt>
<rscale>  2 0.77508553E+02</rscale>
<asrwt>0</asrwt>
<pdfrwt beam="1">  1       21 0.71619914E-03 0.77508553E+02</pdfrwt>
<pdfrwt beam="2">  1       21 0.28560401E+00 0.77508553E+02</pdfrwt>
<totfact> 0.29139869E+05</totfact>
</mgrwt>
</event>
<event>
 5    1  0.1595802E+000  0.7370891E+02  0.7546771E-02  0.1347916E+00
         21   -1    0    0  501  502  0.00000000000E+00  0.00000000000E+00  0.32489305111E+03  0.32489305111E+03  0.00000000000E+00 0.  1.
         21   -1    0    0  502  503 -0.00000000000E+00 -0.00000000000E+00 -0.23456785352E+02  0.23456785352E+02  0.00000000000E+00 0.  1.
         24    1    1    2    0    0 -0.18580091211E+02  0.67588042699E+00  0.20745201953E+03  0.22326941789E+03  0.80419002446E+02 0.  1.
          1    1    1    2  501    0  0.24657647683E+02 -0.27754309962E+02  0.89596416101E+02  0.96983602164E+02  0.00000000000E+00 0. -1.
         -2    1    1    2    0  503 -0.60775564715E+01  0.27078429535E+02  0.43878301206E+01  0.28096816401E+02  0.00000000000E+00 0.  1.
<mgrwt>
<rscale>  2 0.73708905E+02</rscale>
<asrwt>0</asrwt>
<pdfrwt beam="1">  1       21 0.49983543E-01 0.73708905E+02</pdfrwt>
<pdfrwt beam="2">  1       21 0.36087365E-02 0.73708905E+02</pdfrwt>
<totfact> 0.17411333E+06</totfact>
</mgrwt>
</event>
<event>
 5    1  0.1595802E+000  0.1070532E+03  0.7546771E-02  0.1266126E+00
         21   -1    0    0  501  502  0.00000000000E+00  0.00000000000E+00  0.24720394533E+03  0.24720394533E+03  0.00000000000E+00 0. -1.
         21   -1    0    0  502  503 -0.00000000000E+00 -0.00000000000E+00 -0.29570280742E+03  0.29570280742E+03  0.00000000000E+00 0. -1.
         24    1    1    2    0    0  0.11108682260E+02 -0.55062483471E+01 -0.77280792499E+02  0.11221968827E+03  0.80419002446E+02 0. -1.
          1    1    1    2  501    0 -0.79289421878E+01  0.68854380040E+02  0.21924541354E+03  0.22993987286E+03  0.00000000000E+00 0. -1.
         -2    1    1    2    0  503 -0.31797400727E+01 -0.63348131693E+02 -0.19046348312E+03  0.20074719161E+03  0.00000000000E+00 0.  1.
<mgrwt>
<rscale>  2 0.10705322E+03</rscale>
<asrwt>0</asrwt>
<pdfrwt beam="1">  1       21 0.38031376E-01 0.10705322E+03</pdfrwt>
<pdfrwt beam="2">  1       21 0.45492740E-01 0.10705322E+03</pdfrwt>
<totfact> 0.32540471E+04</totfact>
</mgrwt>
</event>
<event>
 5    1  0.1595802E+000  0.9499552E+02  0.7546771E-02  0.1291186E+00
         21   -1    0    0  503  502  0.00000000000E+00  0.00000000000E+00  0.37461850080E+03  0.37461850080E+03  0.00000000000E+00 0.  1.
         21   -1    0    0  501  503 -0.00000000000E+00 -0.00000000000E+00 -0.50581075899E+02  0.50581075899E+02  0.00000000000E+00 0. -1.
         24    1    1    2    0    0  0.49303039685E+02  0.17611551578E+02  0.12927107797E+03  0.16099436023E+03  0.80419002446E+02 0.  1.
          1    1    1    2  501    0  0.18558796438E+02  0.96274410880E+01 -0.25001396056E+02  0.32591200528E+02  0.00000000000E+00 0. -1.
         -2    1    1    2    0  502 -0.67861836123E+02 -0.27238992666E+02  0.21976774299E+03  0.23161401594E+03  0.00000000000E+00 0.  1.
<mgrwt>
<rscale>  2 0.94995524E+02</rscale>
<asrwt>0</asrwt>
<pdfrwt beam="1">  1       21 0.57633614E-01 0.94995524E+02</pdfrwt>
<pdfrwt beam="2">  1       21 0.77817042E-02 0.94995524E+02</pdfrwt>
<totfact> 0.36191798E+05</totfact>
</mgrwt>
</event>
<event>
 5    1  0.1595802E+000  0.1470302E+03  0.7546771E-02  0.1204170E+00
         21   -1    0    0  501  502  0.00000000000E+00  0.00000000000E+00  0.90931700506E+02  0.90931700506E+02  0.00000000000E+00 0.  1.
         21   -1    0    0  502  503 -0.00000000000E+00 -0.00000000000E+00 -0.32831464048E+03  0.32831464048E+03  0.00000000000E+00 0.  1.
         24    1    1    2    0    0  0.13297527384E+03  0.34058263982E+00 -0.51594897297E+02  0.16374305735E+03  0.80419002446E+02 0.  1.
          1    1    1    2  501    0 -0.28897189549E+02 -0.16588218770E+02  0.85969359274E+01  0.34411101016E+02  0.00000000000E+00 0. -1.
         -2    1    1    2    0  503 -0.10407808429E+03  0.16247636130E+02 -0.19438497861E+03  0.22109218262E+03  0.00000000000E+00 0.  1.
<mgrwt>
<rscale>  2 0.14703024E+03</rscale>
<asrwt>0</asrwt>
<pdfrwt beam="1">  1       21 0.13989492E-01 0.14703024E+03</pdfrwt>
<pdfrwt beam="2">  1       21 0.50509944E-01 0.14703024E+03</pdfrwt>
<totfact> 0.16847098E+05</totfact>
</mgrwt>
</event>
<event>
 5    1  0.1595802E+000  0.7227470E+02  0.7546771E-02  0.1352524E+00
         21   -1    0    0  501  502  0.00000000000E+00  0.00000000000E+00  0.18263843371E+03  0.18263843371E+03  0.00000000000E+00 0. -1.
         21   -1    0    0  502  503 -0.00000000000E+00 -0.00000000000E+00 -0.29937054817E+02  0.29937054817E+02  0.00000000000E+00 0.  1.
         24    1    1    2    0    0 -0.17600539360E+02 -0.18193626611E+02  0.88270813934E+02  0.12206448944E+03  0.80419002446E+02 0.  1.
          1    1    1    2  501    0  0.18089803408E+02 -0.17129997475E+02  0.41469903598E+02  0.48377998153E+02  0.00000000000E+00 0. -1.
         -2    1    1    2    0  503 -0.48926404814E+00  0.35323624085E+02  0.22960661363E+02  0.42133000938E+02  0.00000000000E+00 0.  1.
<mgrwt>
<rscale>  2 0.72274696E+02</rscale>
<asrwt>0</asrwt>
<pdfrwt beam="1">  1       21 0.28098220E-01 0.72274696E+02</pdfrwt>
<pdfrwt beam="2">  1       21 0.46057009E-02 0.72274696E+02</pdfrwt>
<totfact> 0.35890101E+06</totfact>
</mgrwt>
</event>
<event>
 5    1  0.1595802E+000  0.8342953E+02  0.7546771E-02  0.1319591E+00
         21   -1    0    0  501  502  0.00000000000E+00  0.00000000000E+00  0.18337356243E+02  0.18337356243E+02  0.00000000000E+00 0.  1.
         21   -1    0    0  502  503 -0.00000000000E+00 -0.00000000000E+00 -0.68149549904E+03  0.68149549904E+03  0.00000000000E+00 0.  1.
         24    1    1    2    0    0 -0.61556706619E+02  0.11654270545E+02 -0.24767276515E+03  0.26783215771E+03  0.80419002446E+02 0.  1.
          1    1    1    2  501    0  0.34828665132E+02 -0.15111895242E+02 -0.38561883596E+02  0.54114916235E+02  0.00000000000E+00 0. -1.
         -2    1    1    2    0  503  0.26728041487E+02  0.34576246974E+01 -0.37692349405E+03  0.37788578134E+03  0.00000000000E+00 0.  1.
<mgrwt>
<rscale>  2 0.83429533E+02</rscale>
<asrwt>0</asrwt>
<pdfrwt beam="1">  1       21 0.28211319E-02 0.83429533E+02</pdfrwt>
<pdfrwt beam="2">  1       21 0.10484545E+00 0.83429533E+02</pdfrwt>
<totfact> 0.52287937E+05</totfact>
</mgrwt>
</event>
<event>
 5    1  0.1595802E+000  0.9431466E+02  0.7546771E-02  0.1292727E+00
         21   -1    0    0  503  502  0.00000000000E+00  0.00000000000E+00  0.12751253311E+03  0.12751253311E+03  0.00000000000E+00 0.  1.
         21   -1    0    0  501  503 -0.00000000000E+00 -0.00000000000E+00 -0.92753442057E+02  0.92753442057E+02  0.00000000000E+00 0. -1.
         24    1    1    2    0    0 -0.17956365483E+02 -0.17989384791E+02  0.23313677523E+00  0.84340496404E+02  0.80419002446E+02 0.  0.
          1    1    1    2  501    0  0.34392548600E+01 -0.42217220568E+02 -0.25695263557E+02  0.49541586125E+02  0.00000000000E+00 0. -1.
         -2    1    1    2    0  502  0.14517110623E+02  0.60206605360E+02  0.60221217837E+02  0.86383892640E+02  0.00000000000E+00 0.  1.
<mgrwt>
<rscale>  2 0.94314664E+02</rscale>
<asrwt>0</asrwt>
<pdfrwt beam="1">  1       21 0.19617313E-01 0.94314664E+02</pdfrwt>
<pdfrwt beam="2">  1       21 0.14269760E-01 0.94314664E+02</pdfrwt>
<totfact> 0.10240594E+06</totfact>
</mgrwt>
</event>
<event>
 5    1  0.1595802E+000  0.7789234E+02  0.7546771E-02  0.1335141E+00
         21   -1    0    0  501  502  0.00000000000E+00  0.00000000000E+00  0.11065971176E+03  0.11065971176E+03  0.00000000000E+00 0. -1.
         21   -1    0    0  502  503 -0.00000000000E+00 -0.00000000000E+00 -0.21693883939E+03  0.21693883939E+03  0.00000000000E+00 0.  1.
         24    1    1    2    0    0 -0.57056656490E+02 -0.29989905046E+01 -0.16571044688E+03  0.19285130063E+03  0.80419002446E+02 0.  1.
          1    1    1    2  501    0  0.27360737455E+02  0.14147297176E+01  0.88812805918E+02  0.92942594698E+02  0.00000000000E+00 0. -1.
         -2    1    1    2    0  503  0.29695919035E+02  0.15842607870E+01 -0.29381486669E+02  0.41804655823E+02  0.00000000000E+00 0.  1.
<mgrwt>
<rscale>  2 0.77892337E+02</rscale>
<asrwt>0</asrwt>
<pdfrwt beam="1">  1       21 0.17024571E-01 0.77892337E+02</pdfrwt>
<pdfrwt beam="2">  1       21 0.33375206E-01 0.77892337E+02</pdfrwt>
<totfact> 0.27566994E+05</totfact>
</mgrwt>
</event>
<event>
 5    1  0.1595802E+000  0.8140399E+02  0.7546771E-02  0.1325114E+00
         21   -1    0    0  503  502  0.00000000000E+00  0.00000000000E+00  0.29552786774E+02  0.29552786774E+02  0.00000000000E+00 0. -1.
         21   -1    0    0  501  503 -0.00000000000E+00 -0.00000000000E+00 -0.24851397313E+03  0.24851397313E+03  0.00000000000E+00 0.  1.
         24    1    1    2    0    0  0.19451452209E+02  0.54089275072E+02 -0.11093172419E+03  0.14858355245E+03  0.80419002446E+02 0.  0.
          1    1    1    2  501    0 -0.25207977443E+02 -0.29969933466E+02 -0.91915857784E+02  0.99910779954E+02  0.00000000000E+00 0. -1.
         -2    1    1    2    0  502  0.57565252339E+01 -0.24119341607E+02 -0.16113604377E+02  0.29572427501E+02  0.00000000000E+00 0.  1.
<mgrwt>
<rscale>  2 0.81403994E+02</rscale>
<asrwt>0</asrwt>
<pdfrwt beam="1">  1       21 0.45465825E-02 0.81403994E+02</pdfrwt>
<pdfrwt beam="2">  1       21 0.38232919E-01 0.81403994E+02</pdfrwt>
<totfact> 0.20418928E+06</totfact>
</mgrwt>
</event>
<event>
 5    1  0.1595802E+000  0.1577286E+03  0.7546771E-02  0.1191285E+00
         21   -1    0    0  503  502  0.00000000000E+00  0.00000000000E+00  0.82074680500E+03  0.82074680500E+03  0.00000000000E+00 0.  1.
         21   -1    0    0  501  503 -0.00000000000E+00 -0.00000000000E+00 -0.41194662177E+02  0.41194662177E+02  0.00000000000E+00 0.  1.
         24    1    1    2    0    0 -0.63565034086E+02 -0.13138074954E+03  0.38213712891E+03  0.41689017278E+03  0.80419002446E+02 0.  1.
          1    1    1    2  501    0  0.52940974422E+01  0.40607075443E+02  0.89888077645E+01  0.41925656927E+02  0.00000000000E+00 0. -1.
         -2    1    1    2    0  502  0.58270936644E+02  0.90773674101E+02  0.38842620614E+03  0.40312563747E+03  0.00000000000E+00 0.  1.
<mgrwt>
<rscale>  2 0.15772864E+03</rscale>
<asrwt>0</asrwt>
<pdfrwt beam="1">  1       21 0.12626873E+00 0.15772864E+03</pdfrwt>
<pdfrwt beam="2">  1       21 0.63376409E-02 0.15772864E+03</pdfrwt>
<totfact> 0.84904045E+04</totfact>
</mgrwt>
</event>
<event>
 5    1  0.1595802E+000  0.8494853E+02  0.7546771E-02  0.1315567E+00
         21   -1    0    0  503  502  0.00000000000E+00  0.00000000000E+00  0.68735768973E+02  0.68735768973E+02  0.00000000000E+00 0.  1.
         21   -1    0    0  501  503 -0.00000000000E+00 -0.00000000000E+00 -0.67226773340E+03  0.67226773340E+03  0.00000000000E+00 0. -1.
         24    1    1    2    0    0 -0.47811084243E+02 -0.26309651501E+02 -0.84052282804E+02  0.12849163295E+03  0.80419002446E+02 0.  0.
          1    1    1    2  501    0  0.24959127440E+02 -0.12314739248E+02 -0.55474060250E+03  0.55543833763E+03  0.00000000000E+00 0. -1.
         -2    1    1    2    0  502  0.22851956804E+02  0.38624390750E+02  0.35260920878E+02  0.57073531796E+02  0.00000000000E+00 0.  1.
<mgrwt>
<rscale>  2 0.84948532E+02</rscale>
<asrwt>0</asrwt>
<pdfrwt beam="1">  1       21 0.10574734E-01 0.84948532E+02</pdfrwt>
<pdfrwt beam="2">  1       21 0.10342580E+00 0.84948532E+02</pdfrwt>
<totfact> 0.59258917E+04</totfact>
</mgrwt>
</event>
<event>
 5    1  0.1595802E+000  0.1462257E+03  0.7546771E-02  0.1205189E+00
         21   -1    0    0  501  502  0.00000000000E+00  0.00000000000E+00  0.22179446641E+03  0.22179446641E+03  0.00000000000E+00 0.  1.
         21   -1    0    0  502  503 -0.00000000000E+00 -0.00000000000E+00 -0.11480492034E+03  0.11480492034E+03  0.00000000000E+00 0. -1.
         24    1    1    2    0    0 -0.10682428298E+03  0.11956412590E+02  0.57958029425E+02  0.14622151814E+03  0.80419002446E+02 0.  1.
          1    1    1    2  501    0  0.13201785930E+03 -0.51873965881E+01  0.76358446194E+02  0.15259828492E+03  0.00000000000E+00 0. -1.
         -2    1    1    2    0  503 -0.25193576312E+02 -0.67690160023E+01 -0.27326929546E+02  0.37779583686E+02  0.00000000000E+00 0.  1.
<mgrwt>
<rscale>  2 0.14622568E+03</rscale>
<asrwt>0</asrwt>
<pdfrwt beam="1">  1       21 0.34122226E-01 0.14622568E+03</pdfrwt>
<pdfrwt beam="2">  1       21 0.17662295E-01 0.14622568E+03</pdfrwt>
<totfact> 0.24342274E+05</totfact>
</mgrwt>
</event>
<event>
 5    1  0.1595802E+000  0.6959755E+02  0.7546771E-02  0.1361467E+00
         21   -1    0    0  503  502  0.00000000000E+00  0.00000000000E+00  0.12547452094E+03  0.12547452094E+03  0.00000000000E+00 0. -1.
         21   -1    0    0  501  503 -0.00000000000E+00 -0.00000000000E+00 -0.42846745053E+02  0.42846745053E+02  0.00000000000E+00 0.  1.
         24    1    1    2    0    0 -0.13639936840E+02  0.99097417241E+01  0.72464305386E+02  0.10955611515E+03  0.80419002446E+02 0. -1.
          1    1    1    2  501    0  0.33540850041E+02  0.24013996122E+01  0.10909676318E+02  0.35352176439E+02  0.00000000000E+00 0. -1.
         -2    1    1    2    0  502 -0.19900913201E+02 -0.12311141336E+02 -0.74620581636E+00  0.23412974402E+02  0.00000000000E+00 0.  1.
<mgrwt>
<rscale>  2 0.69597548E+02</rscale>
<asrwt>0</asrwt>
<pdfrwt beam="1">  1       21 0.19303772E-01 0.69597548E+02</pdfrwt>
<pdfrwt beam="2">  1       21 0.65918070E-02 0.69597548E+02</pdfrwt>
<totfact> 0.39440968E+06</totfact>
</mgrwt>
</event>
<event>
 5    1  0.1595802E+000  0.1232337E+03  0.7546771E-02  0.1237856E+00
         21   -1    0    0  501  502  0.00000000000E+00  0.00000000000E+00  0.10103054372E+03  0.10103054372E+03  0.00000000000E+00 0.  1.
         21   -1    0    0  502  503 -0.00000000000E+00 -0.00000000000E+00 -0.17295283976E+03  0.17295283976E+03  0.00000000000E+00 0. -1.
         24    1    1    2    0    0 -0.69222065609E+02 -0.25105944913E+02  0.10519147476E+02  0.10954392386E+03  0.80419002446E+02 0.  1.
          1    1    1    2  501    0  0.97207189731E+02  0.40710680873E+02 -0.43505874885E+02  0.11401472897E+03  0.00000000000E+00 0. -1.
         -2    1    1    2    0  503 -0.27985124122E+02 -0.15604735960E+02 -0.38935568630E+02  0.50424730649E+02  0.00000000000E+00 0.  1.
<mgrwt>
<rscale>  2 0.12323365E+03</rscale>
<asrwt>0</asrwt>
<pdfrwt beam="1">  1       21 0.15543161E-01 0.12323365E+03</pdfrwt>
<pdfrwt beam="2">  1       21 0.26608129E-01 0.12323365E+03</pdfrwt>
<totfact> 0.49836864E+05</totfact>
</mgrwt>
</event>
<event>
 5    1  0.1595802E+000  0.7355018E+02  0.7546771E-02  0.1348420E+00
         21   -1    0    0  503  502  0.00000000000E+00  0.00000000000E+00  0.13053552390E+03  0.13053552390E+03  0.00000000000E+00 0.  1.
         21   -1    0    0  501  503 -0.00000000000E+00 -0.00000000000E+00 -0.12751121102E+03  0.12751121102E+03  0.00000000000E+00 0. -1.
         24    1    1    2    0    0 -0.23399504794E+02 -0.13097283377E+02 -0.71593391433E+02  0.11095902535E+03  0.80419002446E+02 0. -1.
          1    1    1    2  501    0  0.48925289286E+01  0.34034418840E+02 -0.25714874349E+02  0.42936386293E+02  0.00000000000E+00 0. -1.
         -2    1    1    2    0  502  0.18506975865E+02 -0.20937135463E+02  0.10033257867E+03  0.10415132327E+03  0.00000000000E+00 0.  1.
<mgrwt>
<rscale>  2 0.73550179E+02</rscale>
<asrwt>0</asrwt>
<pdfrwt beam="1">  1       21 0.20082388E-01 0.73550179E+02</pdfrwt>
<pdfrwt beam="2">  1       21 0.19617110E-01 0.73550179E+02</pdfrwt>
<totfact> 0.55182454E+05</totfact>
</mgrwt>
</event>
<event>
 5    1  0.1595802E+000  0.2823478E+03  0.7546771E-02  0.1094413E+00
         21   -1    0    0  501  502  0.00000000000E+00  0.00000000000E+00  0.26600914063E+04  0.26600914063E+04  0.00000000000E+00 0.  1.
         21   -1    0    0  502  503 -0.00000000000E+00 -0.00000000000E+00 -0.46478964282E+02  0.46478964282E+02  0.00000000000E+00 0. -1.
         24    1    1    2    0    0  0.24763651761E+03 -0.30030477031E+02  0.78657065830E+03  0.82908762556E+03  0.80419002446E+02 0. -1.
          1    1    1    2  501    0  0.25952418377E+02 -0.60395920199E+01  0.10923431445E+04  0.10926680877E+04  0.00000000000E+00 0. -1.
         -2    1    1    2    0  503 -0.27358893598E+03  0.36070069050E+02  0.73469863921E+03  0.78481465725E+03  0.00000000000E+00 0.  1.
<mgrwt>
<rscale>  2 0.28234782E+03</rscale>
<asrwt>0</asrwt>
<pdfrwt beam="1">  1       21 0.40924471E+00 0.28234782E+03</pdfrwt>
<pdfrwt beam="2">  1       21 0.71506120E-02 0.28234782E+03</pdfrwt>
<totfact> 0.99209331E+02</totfact>
</mgrwt>
</event>
<event>
 5    1  0.1595802E+000  0.8782412E+02  0.7546771E-02  0.1308208E+00
         21   -1    0    0  501  502  0.00000000000E+00  0.00000000000E+00  0.15381743010E+03  0.15381743010E+03  0.00000000000E+00 0.  1.
         21   -1    0    0  502  503 -0.00000000000E+00 -0.00000000000E+00 -0.57181568993E+02  0.57181568993E+02  0.00000000000E+00 0. -1.
         24    1    1    2    0    0 -0.29542254006E+02 -0.35959656932E+02  0.19894481856E+02  0.95020250795E+02  0.80419002446E+02 0.  0.
          1    1    1    2  501    0  0.22155634555E+02 -0.17830281344E+02  0.44564060616E+02  0.52865362705E+02  0.00000000000E+00 0. -1.
         -2    1    1    2    0  503  0.73866194515E+01  0.53789938275E+02  0.32177318634E+02  0.63113385593E+02  0.00000000000E+00 0.  1.
<mgrwt>
<rscale>  2 0.87824124E+02</rscale>
<asrwt>0</asrwt>
<pdfrwt beam="1">  1       21 0.23664220E-01 0.87824124E+02</pdfrwt>
<pdfrwt beam="2">  1       21 0.87971645E-02 0.87824124E+02</pdfrwt>
<totfact> 0.16839933E+06</totfact>
</mgrwt>
</event>
<event>
 5    1  0.1595802E+000  0.8303162E+02  0.7546771E-02  0.1320662E+00
         21   -1    0    0  503  502  0.00000000000E+00  0.00000000000E+00  0.70089925266E+02  0.70089925266E+02  0.00000000000E+00 0. -1.
         21   -1    0    0  501  503 -0.00000000000E+00 -0.00000000000E+00 -0.13348938192E+03  0.13348938192E+03  0.00000000000E+00 0. -1.
         24    1    1    2    0    0 -0.14977144139E+02 -0.60385275258E+02 -0.19690350535E+02  0.10356457972E+03  0.80419002446E+02 0. -1.
          1    1    1    2  501    0  0.17442827397E+01  0.40284092479E+02 -0.59029165728E+02  0.71486313626E+02  0.00000000000E+00 0. -1.
         -2    1    1    2    0  502  0.13232861400E+02  0.20101182778E+02  0.15320059607E+02  0.28528413841E+02  0.00000000000E+00 0.  1.
<mgrwt>
<rscale>  2 0.83031617E+02</rscale>
<asrwt>0</asrwt>
<pdfrwt beam="1">  1       21 0.10783066E-01 0.83031617E+02</pdfrwt>
<pdfrwt beam="2">  1       21 0.20536828E-01 0.83031617E+02</pdfrwt>
<totfact> 0.15358732E+06</totfact>
</mgrwt>
</event>
<event>
 5    1  0.1595802E+000  0.7189755E+02  0.7546771E-02  0.1353757E+00
         21   -1    0    0  503  502  0.00000000000E+00  0.00000000000E+00  0.82424735141E+02  0.82424735141E+02  0.00000000000E+00 0.  1.
         21   -1    0    0  501  503 -0.00000000000E+00 -0.00000000000E+00 -0.45944955946E+03  0.45944955946E+03  0.00000000000E+00 0. -1.
         24    1    1    2    0    0 -0.44309187632E+01  0.13565451380E+02 -0.43797561609E+03  0.44552610558E+03  0.80419002446E+02 0. -1.
          1    1    1    2  501    0 -0.27976090634E+02 -0.90271909774E+01  0.26806767490E+01  0.29518432410E+02  0.00000000000E+00 0. -1.
         -2    1    1    2    0  502  0.32407009397E+02 -0.45382604022E+01  0.58270115014E+02  0.66829756615E+02  0.00000000000E+00 0.  1.
<mgrwt>
<rscale>  2 0.71897545E+02</rscale>
<asrwt>0</asrwt>
<pdfrwt beam="1">  1       21 0.12680729E-01 0.71897545E+02</pdfrwt>
<pdfrwt beam="2">  1       21 0.70684547E-01 0.71897545E+02</pdfrwt>
<totfact> 0.10183003E+05</totfact>
</mgrwt>
</event>
<event>
 5    1  0.1595802E+000  0.7780632E+02  0.7546771E-02  0.1335395E+00
         21   -1    0    0  503  502  0.00000000000E+00  0.00000000000E+00  0.19773399155E+03  0.19773399155E+03  0.00000000000E+00 0. -1.
         21   -1    0    0  501  503 -0.00000000000E+00 -0.00000000000E+00 -0.33304494741E+02  0.33304494741E+02  0.00000000000E+00 0. -1.
         24    1    1    2    0    0 -0.55281006392E+02 -0.87456154795E+01  0.12102384102E+03  0.15571275320E+03  0.80419002446E+02 0. -1.
          1    1    1    2  501    0  0.35629746561E+02 -0.11170487222E+01  0.13303874904E+02  0.38048912275E+02  0.00000000000E+00 0. -1.
         -2    1    1    2    0  502  0.19651259831E+02  0.98626642017E+01  0.30101780878E+02  0.37276820815E+02  0.00000000000E+00 0.  1.
<mgrwt>
<rscale>  2 0.77806316E+02</rscale>
<asrwt>0</asrwt>
<pdfrwt beam="1">  1       21 0.30420614E-01 0.77806316E+02</pdfrwt>
<pdfrwt beam="2">  1       21 0.51237685E-02 0.77806316E+02</pdfrwt>
<totfact> 0.25999461E+06</totfact>
</mgrwt>
</event>
<event>
 5    1  0.1595802E+000  0.7714254E+02  0.7546771E-02  0.1337362E+00
         21   -1    0    0  503  502  0.00000000000E+00  0.00000000000E+00  0.13926845886E+02  0.13926845886E+02  0.00000000000E+00 0. -1.
         21   -1    0    0  501  503 -0.00000000000E+00 -0.00000000000E+00 -0.10516757551E+04  0.10516757551E+04  0.00000000000E+00 0. -1.
         24    1    1    2    0    0  0.44816774969E+02 -0.10800775326E+02 -0.20849357230E+03  0.22817095720E+03  0.80419002446E+02 0. -1.
          1    1    1    2  501    0 -0.30825453033E+02 -0.13418669096E+02 -0.78049377792E+03  0.78121751556E+03  0.00000000000E+00 0. -1.
         -2    1    1    2    0  502 -0.13991321936E+02  0.24219444422E+02 -0.48761559029E+02  0.56214128265E+02  0.00000000000E+00 0.  1.
<mgrwt>
<rscale>  2 0.77142539E+02</rscale>
<asrwt>0</asrwt>
<pdfrwt beam="1">  1       21 0.21425915E-02 0.77142539E+02</pdfrwt>
<pdfrwt beam="2">  1       21 0.16179628E+00 0.77142539E+02</pdfrwt>
<totfact> 0.28175561E+05</totfact>
</mgrwt>
</event>
<event>
 5    1  0.1595802E+000  0.1231652E+03  0.7546771E-02  0.1237965E+00
         21   -1    0    0  501  502  0.00000000000E+00  0.00000000000E+00  0.14700971925E+02  0.14700971925E+02  0.00000000000E+00 0. -1.
         21   -1    0    0  502  503 -0.00000000000E+00 -0.00000000000E+00 -0.11592290290E+04  0.11592290290E+04  0.00000000000E+00 0.  1.
         24    1    1    2    0    0 -0.61216650085E+02  0.24399349937E+02 -0.41513873325E+03  0.42796050090E+03  0.80419002446E+02 0.  1.
          1    1    1    2  501    0  0.88870257768E+01  0.50341578896E+02 -0.13024433655E+03  0.13991726483E+03  0.00000000000E+00 0. -1.
         -2    1    1    2    0  503  0.52329624308E+02 -0.74740928833E+02 -0.59914498724E+03  0.60605223518E+03  0.00000000000E+00 0.  1.
<mgrwt>
<rscale>  2 0.12316524E+03</rscale>
<asrwt>0</asrwt>
<pdfrwt beam="1">  1       21 0.22616873E-02 0.12316524E+03</pdfrwt>
<pdfrwt beam="2">  1       21 0.17834298E+00 0.12316524E+03</pdfrwt>
<totfact> 0.19436836E+05</totfact>
</mgrwt>
</event>
<event>
 5    1  0.1595802E+000  0.8146123E+02  0.7546771E-02  0.1324955E+00
         21   -1    0    0  503  502  0.00000000000E+00  0.00000000000E+00  0.23842391062E+04  0.23842391062E+04  0.00000000000E+00 0. -1.
         21   -1    0    0  501  503 -0.00000000000E+00 -0.00000000000E+00 -0.82038527097E+01  0.82038527097E+01  0.00000000000E+00 0.  1.
         24    1    1    2    0    0  0.68044509959E+01 -0.12078117285E+01  0.21498833058E+04  0.21513979650E+04  0.80419002446E+02 0. -1.
          1    1    1    2  501    0  0.35370279770E+02 -0.13029834126E+02  0.83601566683E+02  0.91706353216E+02  0.00000000000E+00 0. -1.
         -2    1    1    2    0  502 -0.42174730766E+02  0.14237645854E+02  0.14255038104E+03  0.14933864071E+03  0.00000000000E+00 0.  1.
<mgrwt>
<rscale>  2 0.81461233E+02</rscale>
<asrwt>0</asrwt>
<pdfrwt beam="1">  1       21 0.36680546E+00 0.81461233E+02</pdfrwt>
<pdfrwt beam="2">  1       21 0.12621331E-02 0.81461233E+02</pdfrwt>
<totfact> 0.42748423E+04</totfact>
</mgrwt>
</event>
<event>
 5    1  0.1595802E+000  0.8944603E+02  0.7546771E-02  0.1304199E+00
         21   -1    0    0  501  502  0.00000000000E+00  0.00000000000E+00  0.74297022339E+02  0.74297022339E+02  0.00000000000E+00 0.  1.
         21   -1    0    0  502  503 -0.00000000000E+00 -0.00000000000E+00 -0.15018881138E+03  0.15018881138E+03  0.00000000000E+00 0. -1.
         24    1    1    2    0    0 -0.11284882679E+02 -0.67784964119E+02 -0.61757277775E+02  0.12248806983E+03  0.80419002446E+02 0.  0.
          1    1    1    2  501    0  0.17610525640E+02  0.29883085860E+02  0.28288482977E+02  0.44758995778E+02  0.00000000000E+00 0. -1.
         -2    1    1    2    0  503 -0.63256429603E+01  0.37901878258E+02 -0.42422994240E+02  0.57238768109E+02  0.00000000000E+00 0.  1.
<mgrwt>
<rscale>  2 0.89446034E+02</rscale>
<asrwt>0</asrwt>
<pdfrwt beam="1">  1       21 0.11430311E-01 0.89446034E+02</pdfrwt>
<pdfrwt beam="2">  1       21 0.23105971E-01 0.89446034E+02</pdfrwt>
<totfact> 0.11190535E+06</totfact>
</mgrwt>
</event>
<event>
 5    1  0.1595802E+000  0.7558702E+02  0.7546771E-02  0.1342063E+00
         21   -1    0    0  503  502  0.00000000000E+00  0.00000000000E+00  0.56835522305E+02  0.56835522305E+02  0.00000000000E+00 0. -1.
         21   -1    0    0  501  503 -0.00000000000E+00 -0.00000000000E+00 -0.21864556350E+03  0.21864556350E+03  0.00000000000E+00 0. -1.
         24    1    1    2    0    0  0.17818858289E+02  0.43119037397E+02  0.50313633837E+01  0.93109041820E+02  0.80419002446E+02 0. -1.
          1    1    1    2  501    0 -0.21805003987E+02 -0.85793506894E+01 -0.12847767931E+03  0.13059700432E+03  0.00000000000E+00 0. -1.
         -2    1    1    2    0  502  0.39861456978E+01 -0.34539686708E+02 -0.38363725263E+02  0.51775039657E+02  0.00000000000E+00 0.  1.
<mgrwt>
<rscale>  2 0.75587023E+02</rscale>
<asrwt>0</asrwt>
<pdfrwt beam="1">  1       21 0.87439266E-02 0.75587023E+02</pdfrwt>
<pdfrwt beam="2">  1       21 0.33637779E-01 0.75587023E+02</pdfrwt>
<totfact> 0.87148178E+05</totfact>
</mgrwt>
</event>
<event>
 5    1  0.1595802E+000  0.9262645E+02  0.7546771E-02  0.1296613E+00
         21   -1    0    0  503  502  0.00000000000E+00  0.00000000000E+00  0.21375628496E+03  0.21375628496E+03  0.00000000000E+00 0. -1.
         21   -1    0    0  501  503 -0.00000000000E+00 -0.00000000000E+00 -0.69336272333E+02  0.69336272333E+02  0.00000000000E+00 0.  1.
         24    1    1    2    0    0 -0.24130605901E+01 -0.61346937774E+02 -0.14678568810E+02  0.10223475912E+03  0.80419002446E+02 0.  1.
          1    1    1    2  501    0 -0.26001479635E+02  0.43013501045E+02  0.75723630178E+02  0.90886227684E+02  0.00000000000E+00 0. -1.
         -2    1    1    2    0  502  0.28414540225E+02  0.18333436729E+02  0.83374951258E+02  0.89971570486E+02  0.00000000000E+00 0.  1.
<mgrwt>
<rscale>  2 0.92626454E+02</rscale>
<asrwt>0</asrwt>
<pdfrwt beam="1">  1       21 0.32885582E-01 0.92626454E+02</pdfrwt>
<pdfrwt beam="2">  1       21 0.10667119E-01 0.92626454E+02</pdfrwt>
<totfact> 0.64769201E+05</totfact>
</mgrwt>
</event>
<event>
 5    1  0.3306409E+000  0.1220159E+03  0.7546771E-02  0.1239808E+00
         21   -1    0    0  501  502  0.00000000000E+00  0.00000000000E+00  0.10148663292E+03  0.10148663292E+03  0.00000000000E+00 0. -1.
         21   -1    0    0  502  503 -0.00000000000E+00 -0.00000000000E+00 -0.58191551139E+03  0.58191551139E+03  0.00000000000E+00 0.  1.
         24    1    1    2    0    0  0.24489298247E+02 -0.10476562889E+02 -0.33156759324E+02  0.90972912132E+02  0.80419002446E+02 0. -1.
          1    1    1    2  501    0 -0.61521504231E+02 -0.56018727767E+02  0.44804589389E+02  0.94501029485E+02  0.00000000000E+00 0. -1.
         -2    1    1    2    0  503  0.37032205984E+02  0.66495290656E+02 -0.49207670853E+03  0.49792820270E+03  0.00000000000E+00 0.  1.
<mgrwt>
<rscale>  2 0.12201587E+03</rscale>
<asrwt>0</asrwt>
<pdfrwt beam="1">  1       21 0.15613328E-01 0.12201587E+03</pdfrwt>
<pdfrwt beam="2">  1       21 0.89525462E-01 0.12201587E+03</pdfrwt>
<totfact> 0.40358307E+04</totfact>
</mgrwt>
</event>
<event>
 5    1  0.1595802E+000  0.1226514E+03  0.7546771E-02  0.1238786E+00
         21   -1    0    0  501  502  0.00000000000E+00  0.00000000000E+00  0.82178606134E+02  0.82178606134E+02  0.00000000000E+00 0. -1.
         21   -1    0    0  502  503 -0.00000000000E+00 -0.00000000000E+00 -0.40920838032E+03  0.40920838032E+03  0.00000000000E+00 0.  1.
         24    1    1    2    0    0 -0.82993528335E+02 -0.14698185985E+02 -0.23589474120E+03  0.26309220303E+03  0.80419002446E+02 0.  0.
          1    1    1    2  501    0  0.10483198675E+03  0.19025261749E+02  0.25500464633E+02  0.10955354730E+03  0.00000000000E+00 0. -1.
         -2    1    1    2    0  503 -0.21838458411E+02 -0.43270757643E+01 -0.11663549762E+03  0.11874123612E+03  0.00000000000E+00 0.  1.
<mgrwt>
<rscale>  2 0.12265140E+03</rscale>
<asrwt>0</asrwt>
<pdfrwt beam="1">  1       21 0.12642862E-01 0.12265140E+03</pdfrwt>
<pdfrwt beam="2">  1       21 0.62955136E-01 0.12265140E+03</pdfrwt>
<totfact> 0.12801146E+05</totfact>
</mgrwt>
</event>
<event>
 5    1  0.1595802E+000  0.9699058E+02  0.7546771E-02  0.1286755E+00
         21   -1    0    0  501  502  0.00000000000E+00  0.00000000000E+00  0.29085978702E+02  0.29085978702E+02  0.00000000000E+00 0. -1.
         21   -1    0    0  502  503 -0.00000000000E+00 -0.00000000000E+00 -0.36902429217E+03  0.36902429217E+03  0.00000000000E+00 0.  1.
         24    1    1    2    0    0  0.54942896945E+01 -0.29852472719E+02 -0.15426548664E+03  0.17659675441E+03  0.80419002446E+02 0.  1.
          1    1    1    2  501    0  0.24855671684E+02  0.60184863661E+02 -0.59359991115E+02  0.88111467891E+02  0.00000000000E+00 0. -1.
         -2    1    1    2    0  503 -0.30349961378E+02 -0.30332390942E+02 -0.12631283572E+03  0.13340204857E+03  0.00000000000E+00 0.  1.
<mgrwt>
<rscale>  2 0.96990584E+02</rscale>
<asrwt>0</asrwt>
<pdfrwt beam="1">  1       21 0.44747661E-02 0.96990584E+02</pdfrwt>
<pdfrwt beam="2">  1       21 0.56772966E-01 0.96990584E+02</pdfrwt>
<totfact> 0.94716170E+05</totfact>
</mgrwt>
</event>
<event>
 5    1  0.1595802E+000  0.8098712E+02  0.7546771E-02  0.1326273E+00
         21   -1    0    0  501  502  0.00000000000E+00  0.00000000000E+00  0.59834648699E+01  0.59834648699E+01  0.00000000000E+00 0.  1.
         21   -1    0    0  502  503 -0.00000000000E+00 -0.00000000000E+00 -0.11098674247E+04  0.11098674247E+04  0.00000000000E+00 0. -1.
         24    1    1    2    0    0 -0.14725338803E+02  0.17223761141E+02 -0.51033665985E+03  0.51713075319E+03  0.80419002446E+02 0. -1.
          1    1    1    2  501    0  0.39620393852E+02  0.10674067370E+02 -0.29475291884E+03  0.29759535360E+03  0.00000000000E+00 0. -1.
         -2    1    1    2    0  503 -0.24895055049E+02 -0.27897828510E+02 -0.29879438116E+03  0.30112478280E+03  0.00000000000E+00 0.  1.
<mgrwt>
<rscale>  2 0.80987117E+02</rscale>
<asrwt>0</asrwt>
<pdfrwt beam="1">  1       21 0.92053224E-03 0.80987117E+02</pdfrwt>
<pdfrwt beam="2">  1       21 0.17074899E+00 0.80987117E+02</pdfrwt>
<totfact> 0.92470093E+05</totfact>
</mgrwt>
</event>
<event>
 5    1  0.1595802E+000  0.9525045E+02  0.7546771E-02  0.1290613E+00
         21   -1    0    0  501  502  0.00000000000E+00  0.00000000000E+00  0.10669443123E+03  0.10669443123E+03  0.00000000000E+00 0.  1.
         21   -1    0    0  502  503 -0.00000000000E+00 -0.00000000000E+00 -0.23270062289E+03  0.23270062289E+03  0.00000000000E+00 0.  1.
         24    1    1    2    0    0 -0.36687359849E+01 -0.18204657749E+02  0.58739032058E+02  0.10130330216E+03  0.80419002446E+02 0.  1.
          1    1    1    2  501    0 -0.50212730742E+02 -0.24214934537E+01 -0.64366112380E+01  0.50681475150E+02  0.00000000000E+00 0. -1.
         -2    1    1    2    0  503  0.53881466727E+02  0.20626151203E+02 -0.17830861248E+03  0.18741027681E+03  0.00000000000E+00 0.  1.
<mgrwt>
<rscale>  2 0.95250450E+02</rscale>
<asrwt>0</asrwt>
<pdfrwt beam="1">  1       21 0.16414528E-01 0.95250450E+02</pdfrwt>
<pdfrwt beam="2">  1       21 0.35800095E-01 0.95250450E+02</pdfrwt>
<totfact> 0.25601804E+05</totfact>
</mgrwt>
</event>
<event>
 5    1  0.1595802E+000  0.6571572E+02  0.7546771E-02  0.1375299E+00
         21   -1    0    0  501  502  0.00000000000E+00  0.00000000000E+00  0.18919258332E+02  0.18919258332E+02  0.00000000000E+00 0. -1.
         21   -1    0    0  502  503 -0.00000000000E+00 -0.00000000000E+00 -0.33399158403E+03  0.33399158403E+03  0.00000000000E+00 0.  1.
         24    1    1    2    0    0  0.19745316083E+02  0.38980654101E+01 -0.14204733081E+03  0.16446802901E+03  0.80419002446E+02 0. -1.
          1    1    1    2  501    0 -0.58169375691E+01  0.20023388374E+02 -0.10073701399E+02  0.23157122112E+02  0.00000000000E+00 0. -1.
         -2    1    1    2    0  503 -0.13928378514E+02 -0.23921453784E+02 -0.16295129349E+03  0.16528569124E+03  0.00000000000E+00 0.  1.
<mgrwt>
<rscale>  2 0.65715718E+02</rscale>
<asrwt>0</asrwt>
<pdfrwt beam="1">  1       21 0.29106552E-02 0.65715718E+02</pdfrwt>
<pdfrwt beam="2">  1       21 0.51383320E-01 0.65715718E+02</pdfrwt>
<totfact> 0.23197100E+06</totfact>
</mgrwt>
</event>
<event>
 5    1  0.1595802E+000  0.8699549E+02  0.7546771E-02  0.1310295E+00
         21   -1    0    0  503  502  0.00000000000E+00  0.00000000000E+00  0.60923842979E+02  0.60923842979E+02  0.00000000000E+00 0.  1.
         21   -1    0    0  501  503 -0.00000000000E+00 -0.00000000000E+00 -0.15565401547E+03  0.15565401547E+03  0.00000000000E+00 0.  1.
         24    1    1    2    0    0 -0.45255398952E+02  0.33824565833E+01 -0.51854528197E+02  0.10590373079E+03  0.80419002446E+02 0.  1.
          1    1    1    2  501    0 -0.99637758501E+01  0.19484371385E+02 -0.45880046613E+02  0.50832039450E+02  0.00000000000E+00 0. -1.
         -2    1    1    2    0  502  0.55219174802E+02 -0.22866827968E+02  0.30044023231E+01  0.59842088203E+02  0.00000000000E+00 0.  1.
<mgrwt>
<rscale>  2 0.86995491E+02</rscale>
<asrwt>0</asrwt>
<pdfrwt beam="1">  1       21 0.93728990E-02 0.86995491E+02</pdfrwt>
<pdfrwt beam="2">  1       21 0.23946771E-01 0.86995491E+02</pdfrwt>
<totfact> 0.14765400E+06</totfact>
</mgrwt>
</event>
<event>
 5    1  0.1595802E+000  0.6485073E+02  0.7546771E-02  0.1378534E+00
         21   -1    0    0  503  502  0.00000000000E+00  0.00000000000E+00  0.22514416906E+03  0.22514416906E+03  0.00000000000E+00 0.  1.
         21   -1    0    0  501  503 -0.00000000000E+00 -0.00000000000E+00 -0.13208510068E+03  0.13208510068E+03  0.00000000000E+00 0.  1.
         24    1    1    2    0    0  0.13114543687E+02  0.14439814395E+02 -0.62505525861E+02  0.10370465859E+03  0.80419002446E+02 0.  1.
          1    1    1    2  501    0  0.28555539980E+01 -0.26678052403E+02 -0.44763567191E+02  0.52188596612E+02  0.00000000000E+00 0. -1.
         -2    1    1    2    0  502 -0.15970097685E+02  0.12238238008E+02  0.20032816143E+03  0.20133601454E+03  0.00000000000E+00 0.  1.
<mgrwt>
<rscale>  2 0.64850734E+02</rscale>
<asrwt>0</asrwt>
<pdfrwt beam="1">  1       21 0.34637564E-01 0.64850734E+02</pdfrwt>
<pdfrwt beam="2">  1       21 0.20320785E-01 0.64850734E+02</pdfrwt>
<totfact> 0.18705672E+05</totfact>
</mgrwt>
</event>
<event>
 5    1  0.1595802E+000  0.7611470E+02  0.7546771E-02  0.1340453E+00
         21   -1    0    0  501  502  0.00000000000E+00  0.00000000000E+00  0.14608008031E+04  0.14608008031E+04  0.00000000000E+00 0. -1.
         21   -1    0    0  502  503 -0.00000000000E+00 -0.00000000000E+00 -0.10582716631E+02  0.10582716631E+02  0.00000000000E+00 0.  1.
         24    1    1    2    0    0 -0.28207668585E+02 -0.12473843858E+02  0.48957075963E+03  0.49708954323E+03  0.80419002446E+02 0. -1.
          1    1    1    2  501    0 -0.27541622831E+01  0.30264556098E+02  0.91871331303E+03  0.91921579637E+03  0.00000000000E+00 0. -1.
         -2    1    1    2    0  503  0.30961830868E+02 -0.17790712241E+02  0.41934013827E+02  0.55078180148E+02  0.00000000000E+00 0.  1.
<mgrwt>
<rscale>  2 0.76114705E+02</rscale>
<asrwt>0</asrwt>
<pdfrwt beam="1">  1       21 0.22473842E+00 0.76114705E+02</pdfrwt>
<pdfrwt beam="2">  1       21 0.16281114E-02 0.76114705E+02</pdfrwt>
<totfact> 0.17596878E+05</totfact>
</mgrwt>
</event>
<event>
 5    1  0.1595802E+000  0.7991154E+02  0.7546771E-02  0.1329303E+00
         21   -1    0    0  501  502  0.00000000000E+00  0.00000000000E+00  0.10985063392E+04  0.10985063392E+04  0.00000000000E+00 0. -1.
         21   -1    0    0  502  503 -0.00000000000E+00 -0.00000000000E+00 -0.19338759233E+02  0.19338759233E+02  0.00000000000E+00 0.  1.
         24    1    1    2    0    0  0.46014368369E+02  0.17826901893E+02  0.26774174299E+03  0.28388021668E+03  0.80419002446E+02 0. -1.
          1    1    1    2  501    0 -0.25077644594E+02  0.12968494475E+02  0.79097810568E+03  0.79148179624E+03  0.00000000000E+00 0. -1.
         -2    1    1    2    0  503 -0.20936723775E+02 -0.30795396368E+02  0.20447731293E+02  0.42483085516E+02  0.00000000000E+00 0.  1.
<mgrwt>
<rscale>  2 0.79911542E+02</rscale>
<asrwt>0</asrwt>
<pdfrwt beam="1">  1       21 0.16900093E+00 0.79911542E+02</pdfrwt>
<pdfrwt beam="2">  1       21 0.29751946E-02 0.79911542E+02</pdfrwt>
<totfact> 0.14803148E+05</totfact>
</mgrwt>
</event>
<event>
 5    1  0.1595802E+000  0.6865613E+02  0.7546771E-02  0.1364723E+00
         21   -1    0    0  503  502  0.00000000000E+00  0.00000000000E+00  0.37490089173E+03  0.37490089173E+03  0.00000000000E+00 0. -1.
         21   -1    0    0  501  503 -0.00000000000E+00 -0.00000000000E+00 -0.54211867972E+02  0.54211867972E+02  0.00000000000E+00 0. -1.
         24    1    1    2    0    0  0.12959621616E+02 -0.41309697332E+02  0.20808138904E+03  0.22724331300E+03  0.80419002446E+02 0.  0.
          1    1    1    2  501    0  0.12075281356E+01  0.21984854175E+02 -0.40928333905E+02  0.46474944363E+02  0.00000000000E+00 0. -1.
         -2    1    1    2    0  502 -0.14167149751E+02  0.19324843157E+02  0.15353596863E+03  0.15539450234E+03  0.00000000000E+00 0.  1.
<mgrwt>
<rscale>  2 0.68656131E+02</rscale>
<asrwt>0</asrwt>
<pdfrwt beam="1">  1       21 0.57677059E-01 0.68656131E+02</pdfrwt>
<pdfrwt beam="2">  1       21 0.83402876E-02 0.68656131E+02</pdfrwt>
<totfact> 0.32221172E+05</totfact>
</mgrwt>
</event>
<event>
 5    1  0.1595802E+000  0.7130621E+02  0.7546771E-02  0.1355707E+00
         21   -1    0    0  503  502  0.00000000000E+00  0.00000000000E+00  0.11966526251E+03  0.11966526251E+03  0.00000000000E+00 0.  1.
         21   -1    0    0  501  503 -0.00000000000E+00 -0.00000000000E+00 -0.10631183523E+03  0.10631183523E+03  0.00000000000E+00 0. -1.
         24    1    1    2    0    0 -0.32208875903E+02  0.25358550668E+02 -0.25239680356E+02  0.93726864867E+02  0.80419002446E+02 0.  1.
          1    1    1    2  501    0  0.52222076813E+01 -0.24812100039E+02 -0.40998771178E+02  0.48205922867E+02  0.00000000000E+00 0. -1.
         -2    1    1    2    0  502  0.26986668222E+02 -0.54645062839E+00  0.79591878815E+02  0.84044310000E+02  0.00000000000E+00 0.  1.
<mgrwt>
<rscale>  2 0.71306213E+02</rscale>
<asrwt>0</asrwt>
<pdfrwt beam="1">  1       21 0.18410040E-01 0.71306213E+02</pdfrwt>
<pdfrwt beam="2">  1       21 0.16355667E-01 0.71306213E+02</pdfrwt>
<totfact> 0.89568570E+05</totfact>
</mgrwt>
</event>
<event>
 5    1  0.1595802E+000  0.6566847E+02  0.7546771E-02  0.1375474E+00
         21   -1    0    0  501  502  0.00000000000E+00  0.00000000000E+00  0.78874299293E+03  0.78874299293E+03  0.00000000000E+00 0. -1.
         21   -1    0    0  502  503 -0.00000000000E+00 -0.00000000000E+00 -0.56634158162E+01  0.56634158162E+01  0.00000000000E+00 0.  1.
         24    1    1    2    0    0 -0.43132119395E+01  0.10608674298E+02  0.55130961954E+03  0.55726175207E+03  0.80419002446E+02 0. -1.
          1    1    1    2  501    0 -0.20110676065E+02 -0.15258532342E+02  0.10944555760E+03  0.11231915322E+03  0.00000000000E+00 0. -1.
         -2    1    1    2    0  503  0.24423888004E+02  0.46498580434E+01  0.12232439997E+03  0.12482550346E+03  0.00000000000E+00 0.  1.
<mgrwt>
<rscale>  2 0.65668468E+02</rscale>
<asrwt>0</asrwt>
<pdfrwt beam="1">  1       21 0.12134499E+00 0.65668468E+02</pdfrwt>
<pdfrwt beam="2">  1       21 0.87129537E-03 0.65668468E+02</pdfrwt>
<totfact> 0.23614777E+06</totfact>
</mgrwt>
</event>
<event>
 5    1  0.1710311E+000  0.2847588E+03  0.7546771E-02  0.1093118E+00
         21   -1    0    0  501  502  0.00000000000E+00  0.00000000000E+00  0.83776624701E+03  0.83776624701E+03  0.00000000000E+00 0.  1.
         21   -1    0    0  502  503 -0.00000000000E+00 -0.00000000000E+00 -0.11422991031E+03  0.11422991031E+03  0.00000000000E+00 0.  1.
         24    1    1    2    0    0  0.22899147267E+03  0.15356666589E+03  0.54018383838E+03  0.61178886115E+03  0.80419002446E+02 0.  1.
          1    1    1    2  501    0 -0.57085167163E+01 -0.22910195723E+02  0.34294467276E+02  0.41636218811E+02  0.00000000000E+00 0. -1.
         -2    1    1    2    0  503 -0.22328295595E+03 -0.13065647017E+03  0.14905803105E+03  0.29857107736E+03  0.00000000000E+00 0.  1.
<mgrwt>
<rscale>  2 0.28475880E+03</rscale>
<asrwt>0</asrwt>
<pdfrwt beam="1">  1       21 0.12888711E+00 0.28475880E+03</pdfrwt>
<pdfrwt beam="2">  1       21 0.17573833E-01 0.28475880E+03</pdfrwt>
<totfact> 0.12271482E+04</totfact>
</mgrwt>
</event>
<event>
 5    1  0.1595802E+000  0.1155266E+03  0.7546771E-02  0.1250665E+00
         21   -1    0    0  501  502  0.00000000000E+00  0.00000000000E+00  0.44436842887E+03  0.44436842887E+03  0.00000000000E+00 0.  1.
         21   -1    0    0  502  503 -0.00000000000E+00 -0.00000000000E+00 -0.38508562052E+02  0.38508562052E+02  0.00000000000E+00 0. -1.
         24    1    1    2    0    0 -0.26565890259E+02 -0.57419900040E+02  0.10515898514E+03  0.14672566086E+03  0.80419002446E+02 0. -1.
          1    1    1    2  501    0 -0.32495430195E+02 -0.14570602627E+02  0.18113716195E+03  0.18460478565E+03  0.00000000000E+00 0. -1.
         -2    1    1    2    0  503  0.59061320455E+02  0.71990502667E+02  0.11956371973E+03  0.15154654442E+03  0.00000000000E+00 0.  1.
<mgrwt>
<rscale>  2 0.11552657E+03</rscale>
<asrwt>0</asrwt>
<pdfrwt beam="1">  1       21 0.68364370E-01 0.11552657E+03</pdfrwt>
<pdfrwt beam="2">  1       21 0.59243945E-02 0.11552657E+03</pdfrwt>
<totfact> 0.39879192E+05</totfact>
</mgrwt>
</event>
<event>
 5    1  0.1595802E+000  0.6693760E+02  0.7546771E-02  0.1370828E+00
         21   -1    0    0  503  502  0.00000000000E+00  0.00000000000E+00  0.16086782183E+04  0.16086782183E+04  0.00000000000E+00 0.  1.
         21   -1    0    0  501  503 -0.00000000000E+00 -0.00000000000E+00 -0.32761393689E+01  0.32761393689E+01  0.00000000000E+00 0.  1.
         24    1    1    2    0    0 -0.28092481928E+02 -0.69537565199E+01  0.12151142905E+04  0.12181163726E+04  0.80419002446E+02 0.  1.
          1    1    1    2  501    0  0.16551288522E+02 -0.15807558073E+02  0.10797186429E+03  0.11037095416E+03  0.00000000000E+00 0. -1.
         -2    1    1    2    0  502  0.11541193407E+02  0.22761314593E+02  0.28231592411E+03  0.28346703088E+03  0.00000000000E+00 0.  1.
<mgrwt>
<rscale>  2 0.66937601E+02</rscale>
<asrwt>0</asrwt>
<pdfrwt beam="1">  1       21 0.24748833E+00 0.66937601E+02</pdfrwt>
<pdfrwt beam="2">  1       21 0.50402273E-03 0.66937601E+02</pdfrwt>
<totfact> 0.81428465E+05</totfact>
</mgrwt>
</event>
<event>
 5    1  0.1595802E+000  0.1156050E+03  0.7546771E-02  0.1250529E+00
         21   -1    0    0  501  502  0.00000000000E+00  0.00000000000E+00  0.41973169380E+03  0.41973169380E+03  0.00000000000E+00 0.  1.
         21   -1    0    0  502  503 -0.00000000000E+00 -0.00000000000E+00 -0.11729360256E+03  0.11729360256E+03  0.00000000000E+00 0.  1.
         24    1    1    2    0    0 -0.76568856645E+02 -0.62482618822E+01  0.10293089064E+03  0.15153816280E+03  0.80419002446E+02 0.  1.
          1    1    1    2  501    0 -0.20269390222E+02 -0.86101668091E+01  0.26611049591E+03  0.26702018498E+03  0.00000000000E+00 0. -1.
         -2    1    1    2    0  503  0.96838246868E+02  0.14858428691E+02 -0.66603295312E+02  0.11846694858E+03  0.00000000000E+00 0.  1.
<mgrwt>
<rscale>  2 0.11560503E+03</rscale>
<asrwt>0</asrwt>
<pdfrwt beam="1">  1       21 0.64574106E-01 0.11560503E+03</pdfrwt>
<pdfrwt beam="2">  1       21 0.18045170E-01 0.11560503E+03</pdfrwt>
<totfact> 0.64107462E+04</totfact>
</mgrwt>
</event>
<event>
 5    1  0.1595802E+000  0.7422499E+02  0.7546771E-02  0.1346288E+00
         21   -1    0    0  501  502  0.00000000000E+00  0.00000000000E+00  0.14801691755E+03  0.14801691755E+03  0.00000000000E+00 0. -1.
         21   -1    0    0  502  503 -0.00000000000E+00 -0.00000000000E+00 -0.27183921497E+03  0.27183921497E+03  0.00000000000E+00 0.  1.
         24    1    1    2    0    0 -0.16310856127E+02  0.47359570356E+02 -0.96887714068E+02  0.13551168962E+03  0.80419002446E+02 0.  1.
          1    1    1    2  501    0  0.18115947732E+02 -0.22985306308E+02  0.12605860655E+03  0.12941129840E+03  0.00000000000E+00 0. -1.
         -2    1    1    2    0  503 -0.18050916052E+01 -0.24374264048E+02 -0.15299318991E+03  0.15493314450E+03  0.00000000000E+00 0.  1.
<mgrwt>
<rscale>  2 0.74224994E+02</rscale>
<asrwt>0</asrwt>
<pdfrwt beam="1">  1       21 0.22771834E-01 0.74224994E+02</pdfrwt>
<pdfrwt beam="2">  1       21 0.41821417E-01 0.74224994E+02</pdfrwt>
<totfact> 0.10472349E+05</totfact>
</mgrwt>
</event>
<event>
 5    1  0.1595802E+000  0.9812651E+02  0.7546771E-02  0.1284286E+00
         21   -1    0    0  501  502  0.00000000000E+00  0.00000000000E+00  0.65126614733E+02  0.65126614733E+02  0.00000000000E+00 0. -1.
         21   -1    0    0  502  503 -0.00000000000E+00 -0.00000000000E+00 -0.34700086907E+03  0.34700086907E+03  0.00000000000E+00 0.  1.
         24    1    1    2    0    0 -0.29876784262E+02 -0.57290703594E+02 -0.78834046919E+00  0.10316338687E+03  0.80419002446E+02 0. -1.
          1    1    1    2  501    0  0.51389292931E+02  0.35408986125E+02 -0.62811904385E+02  0.88543723994E+02  0.00000000000E+00 0. -1.
         -2    1    1    2    0  503 -0.21512508669E+02  0.21881717469E+02 -0.21827400948E+03  0.22042037293E+03  0.00000000000E+00 0.  1.
<mgrwt>
<rscale>  2 0.98126507E+02</rscale>
<asrwt>0</asrwt>
<pdfrwt beam="1">  1       21 0.10019479E-01 0.98126507E+02</pdfrwt>
<pdfrwt beam="2">  1       21 0.53384751E-01 0.98126507E+02</pdfrwt>
<totfact> 0.27445187E+05</totfact>
</mgrwt>
</event>
<event>
 5    1  0.1595802E+000  0.1431677E+03  0.7546771E-02  0.1209129E+00
         21   -1    0    0  501  502  0.00000000000E+00  0.00000000000E+00  0.13497012181E+04  0.13497012181E+04  0.00000000000E+00 0. -1.
         21   -1    0    0  502  503 -0.00000000000E+00 -0.00000000000E+00 -0.21573159687E+02  0.21573159687E+02  0.00000000000E+00 0. -1.
         24    1    1    2    0    0 -0.31578577560E+02  0.97494836493E+02  0.35159775811E+03  0.37495419609E+03  0.80419002446E+02 0. -1.
          1    1    1    2  501    0  0.64624842313E+02 -0.10394617189E+03  0.93442861727E+03  0.94241074786E+03  0.00000000000E+00 0. -1.
         -2    1    1    2    0  503 -0.33046264753E+02  0.64513354008E+01  0.42101683008E+02  0.53909433818E+02  0.00000000000E+00 0.  1.
<mgrwt>
<rscale>  2 0.14316769E+03</rscale>
<asrwt>0</asrwt>
<pdfrwt beam="1">  1       21 0.20764627E+00 0.14316769E+03</pdfrwt>
<pdfrwt beam="2">  1       21 0.33189487E-02 0.14316769E+03</pdfrwt>
<totfact> 0.66440274E+04</totfact>
</mgrwt>
</event>
<event>
 5    1  0.1595802E+000  0.7077366E+02  0.7546771E-02  0.1357482E+00
         21   -1    0    0  503  502  0.00000000000E+00  0.00000000000E+00  0.12086391513E+04  0.12086391513E+04  0.00000000000E+00 0.  1.
         21   -1    0    0  501  503 -0.00000000000E+00 -0.00000000000E+00 -0.64701243438E+02  0.64701243438E+02  0.00000000000E+00 0. -1.
         24    1    1    2    0    0 -0.82847982467E+01  0.22897710141E+02  0.29263660623E+03  0.30446074012E+03  0.80419002446E+02 0.  0.
          1    1    1    2  501    0 -0.22228740837E+02 -0.87528928207E+01 -0.56037665156E+02  0.60917566990E+02  0.00000000000E+00 0. -1.
         -2    1    1    2    0  502  0.30513539083E+02 -0.14144817321E+02  0.90733896674E+03  0.90796208758E+03  0.00000000000E+00 0.  1.
<mgrwt>
<rscale>  2 0.70773656E+02</rscale>
<asrwt>0</asrwt>
<pdfrwt beam="1">  1       21 0.18594447E+00 0.70773656E+02</pdfrwt>
<pdfrwt beam="2">  1       21 0.99540383E-02 0.70773656E+02</pdfrwt>
<totfact> 0.15519296E+04</totfact>
</mgrwt>
</event>
<event>
 5    1  0.1595802E+000  0.7860604E+02  0.7546771E-02  0.1333054E+00
         21   -1    0    0  501  502  0.00000000000E+00  0.00000000000E+00  0.11897406838E+02  0.11897406838E+02  0.00000000000E+00 0.  1.
         21   -1    0    0  502  503 -0.00000000000E+00 -0.00000000000E+00 -0.67808087674E+03  0.67808087674E+03  0.00000000000E+00 0. -1.
         24    1    1    2    0    0 -0.34153674600E+01 -0.30068650811E+02 -0.20764780980E+03  0.22472342416E+03  0.80419002446E+02 0.  1.
          1    1    1    2  501    0 -0.30592427713E+02  0.13056796649E+02 -0.11786255879E+03  0.12246615588E+03  0.00000000000E+00 0. -1.
         -2    1    1    2    0  503  0.34007795173E+02  0.17011854162E+02 -0.34067310131E+03  0.34278870354E+03  0.00000000000E+00 0.  1.
<mgrwt>
<rscale>  2 0.78606040E+02</rscale>
<asrwt>0</asrwt>
<pdfrwt beam="1">  1       21 0.18303695E-02 0.78606040E+02</pdfrwt>
<pdfrwt beam="2">  1       21 0.10432018E+00 0.78606040E+02</pdfrwt>
<totfact> 0.10583547E+06</totfact>
</mgrwt>
</event>
<event>
 5    1  0.1595802E+000  0.8317360E+02  0.7546771E-02  0.1320279E+00
         21   -1    0    0  501  502  0.00000000000E+00  0.00000000000E+00  0.19550611797E+03  0.19550611797E+03  0.00000000000E+00 0.  1.
         21   -1    0    0  502  503 -0.00000000000E+00 -0.00000000000E+00 -0.45023765845E+02  0.45023765845E+02  0.00000000000E+00 0. -1.
         24    1    1    2    0    0  0.54793151269E+02 -0.92048177549E+01  0.49570093645E+02  0.10959666160E+03  0.80419002446E+02 0. -1.
          1    1    1    2  501    0 -0.36763597769E+02  0.25141391591E+02  0.96754667219E+02  0.10651346075E+03  0.00000000000E+00 0. -1.
         -2    1    1    2    0  503 -0.18029553500E+02 -0.15936573836E+02  0.41575912649E+01  0.24419761468E+02  0.00000000000E+00 0.  1.
<mgrwt>
<rscale>  2 0.83173600E+02</rscale>
<asrwt>0</asrwt>
<pdfrwt beam="1">  1       21 0.30077864E-01 0.83173600E+02</pdfrwt>
<pdfrwt beam="2">  1       21 0.69267333E-02 0.83173600E+02</pdfrwt>
<totfact> 0.16080776E+06</totfact>
</mgrwt>
</event>
<event>
 5    1  0.2027147E+000  0.7604163E+02  0.7546771E-02  0.1340675E+00
         21   -1    0    0  501  502  0.00000000000E+00  0.00000000000E+00  0.58867995632E+03  0.58867995632E+03  0.00000000000E+00 0. -1.
         21   -1    0    0  502  503 -0.00000000000E+00 -0.00000000000E+00 -0.11336183811E+03  0.11336183811E+03  0.00000000000E+00 0.  1.
         24    1    1    2    0    0 -0.37933273722E+01 -0.36363687505E+02  0.16473064839E+03  0.18692273692E+03  0.80419002446E+02 0.  1.
          1    1    1    2  501    0 -0.21472590877E+02  0.26833258121E+01  0.40822086828E+03  0.40879401867E+03  0.00000000000E+00 0. -1.
         -2    1    1    2    0  503  0.25265918249E+02  0.33680361693E+02 -0.97633398471E+02  0.10632503885E+03  0.00000000000E+00 0.  1.
<mgrwt>
<rscale>  2 0.76041629E+02</rscale>
<asrwt>0</asrwt>
<pdfrwt beam="1">  1       21 0.90566146E-01 0.76041629E+02</pdfrwt>
<pdfrwt beam="2">  1       21 0.17440283E-01 0.76041629E+02</pdfrwt>
<totfact> 0.33456149E+04</totfact>
</mgrwt>
</event>
<event>
 5    1  0.1595802E+000  0.1007136E+03  0.7546771E-02  0.1278803E+00
         21   -1    0    0  501  502  0.00000000000E+00  0.00000000000E+00  0.67016420756E+02  0.67016420756E+02  0.00000000000E+00 0.  1.
         21   -1    0    0  502  503 -0.00000000000E+00 -0.00000000000E+00 -0.19795267299E+03  0.19795267299E+03  0.00000000000E+00 0.  1.
         24    1    1    2    0    0 -0.16493158049E+02  0.64277919773E+02 -0.21479251869E+02  0.10645303870E+03  0.80419002446E+02 0.  1.
          1    1    1    2  501    0  0.22654634171E+02  0.84469713240E+01  0.30906558802E+01  0.24374903646E+02  0.00000000000E+00 0. -1.
         -2    1    1    2    0  503 -0.61614761228E+01 -0.72724891097E+02 -0.11254765624E+03  0.13414115140E+03  0.00000000000E+00 0.  1.
<mgrwt>
<rscale>  2 0.10071358E+03</rscale>
<asrwt>0</asrwt>
<pdfrwt beam="1">  1       21 0.10310219E-01 0.10071358E+03</pdfrwt>
<pdfrwt beam="2">  1       21 0.30454257E-01 0.10071358E+03</pdfrwt>
<totfact> 0.79718057E+05</totfact>
</mgrwt>
</event>
<event>
 5    1  0.1595802E+000  0.1082456E+03  0.7546771E-02  0.1263854E+00
         21   -1    0    0  501  502  0.00000000000E+00  0.00000000000E+00  0.50222748400E+02  0.50222748400E+02  0.00000000000E+00 0. -1.
         21   -1    0    0  502  503 -0.00000000000E+00 -0.00000000000E+00 -0.80260079800E+03  0.80260079800E+03  0.00000000000E+00 0. -1.
         24    1    1    2    0    0 -0.57620995192E+02 -0.20768878831E+02 -0.43071149470E+03  0.44241511394E+03  0.80419002446E+02 0. -1.
          1    1    1    2  501    0 -0.15193656427E+02 -0.25103898552E+02  0.33749112141E+02  0.44721979925E+02  0.00000000000E+00 0. -1.
         -2    1    1    2    0  503  0.72814651619E+02  0.45872777383E+02 -0.35541566704E+03  0.36568645254E+03  0.00000000000E+00 0.  1.
<mgrwt>
<rscale>  2 0.10824564E+03</rscale>
<asrwt>0</asrwt>
<pdfrwt beam="1">  1       21 0.77265764E-02 0.10824564E+03</pdfrwt>
<pdfrwt beam="2">  1       21 0.12347705E+00 0.10824564E+03</pdfrwt>
<totfact> 0.65656529E+04</totfact>
</mgrwt>
</event>
<event>
 5    1  0.1595802E+000  0.7642592E+02  0.7546771E-02  0.1339511E+00
         21   -1    0    0  501  502  0.00000000000E+00  0.00000000000E+00  0.12037400329E+03  0.12037400329E+03  0.00000000000E+00 0. -1.
         21   -1    0    0  502  503 -0.00000000000E+00 -0.00000000000E+00 -0.70987405346E+03  0.70987405346E+03  0.00000000000E+00 0.  1.
         24    1    1    2    0    0  0.12641823172E+02  0.44475126106E+02 -0.23914644650E+03  0.25650748792E+03  0.80419002446E+02 0.  1.
          1    1    1    2  501    0  0.13314714682E+02 -0.22187787198E+02  0.10955083166E+03  0.11256537764E+03  0.00000000000E+00 0. -1.
         -2    1    1    2    0  503 -0.25956537854E+02 -0.22287338908E+02 -0.45990443533E+03  0.46117519119E+03  0.00000000000E+00 0.  1.
<mgrwt>
<rscale>  2 0.76425918E+02</rscale>
<asrwt>0</asrwt>
<pdfrwt beam="1">  1       21 0.18519077E-01 0.76425918E+02</pdfrwt>
<pdfrwt beam="2">  1       21 0.10921139E+00 0.76425918E+02</pdfrwt>
<totfact> 0.19521984E+04</totfact>
</mgrwt>
</event>
<event>
 5    1  0.1595802E+000  0.7198592E+02  0.7546771E-02  0.1353467E+00
         21   -1    0    0  501  502  0.00000000000E+00  0.00000000000E+00  0.10975431520E+03  0.10975431520E+03  0.00000000000E+00 0. -1.
         21   -1    0    0  502  503 -0.00000000000E+00 -0.00000000000E+00 -0.12666928053E+03  0.12666928053E+03  0.00000000000E+00 0. -1.
         24    1    1    2    0    0  0.59910960830E+01  0.12280040020E+02 -0.57828157276E+02  0.99990021220E+02  0.80419002446E+02 0. -1.
          1    1    1    2  501    0  0.26419991108E+02  0.29595196138E+01  0.79475983733E+02  0.83804574319E+02  0.00000000000E+00 0. -1.
         -2    1    1    2    0  503 -0.32411087191E+02 -0.15239559634E+02 -0.38562791792E+02  0.52629000195E+02  0.00000000000E+00 0.  1.
<mgrwt>
<rscale>  2 0.71985924E+02</rscale>
<asrwt>0</asrwt>
<pdfrwt beam="1">  1       21 0.16885279E-01 0.71985924E+02</pdfrwt>
<pdfrwt beam="2">  1       21 0.19487582E-01 0.71985924E+02</pdfrwt>
<totfact> 0.76351518E+05</totfact>
</mgrwt>
</event>
<event>
 5    1  0.1595802E+000  0.1639542E+03  0.7546771E-02  0.1184303E+00
         21   -1    0    0  501  502  0.00000000000E+00  0.00000000000E+00  0.14223297320E+04  0.14223297320E+04  0.00000000000E+00 0. -1.
         21   -1    0    0  502  503 -0.00000000000E+00 -0.00000000000E+00 -0.26236330893E+02  0.26236330893E+02  0.00000000000E+00 0.  1.
         24    1    1    2    0    0 -0.12515773125E+03 -0.25475933679E+02  0.70081793550E+03  0.71688665461E+03  0.80419002446E+02 0. -1.
          1    1    1    2  501    0  0.11130086804E+03 -0.33627212063E+02  0.63701762191E+03  0.64754159962E+03  0.00000000000E+00 0. -1.
         -2    1    1    2    0  503  0.13856863209E+02  0.59103145742E+02  0.58257843719E+02  0.84137808680E+02  0.00000000000E+00 0.  1.
<mgrwt>
<rscale>  2 0.16395419E+03</rscale>
<asrwt>0</asrwt>
<pdfrwt beam="1">  1       21 0.21881990E+00 0.16395419E+03</pdfrwt>
<pdfrwt beam="2">  1       21 0.40363597E-02 0.16395419E+03</pdfrwt>
<totfact> 0.40344419E+04</totfact>
</mgrwt>
</event>
<event>
 5    1  0.1595802E+000  0.8506357E+02  0.7546771E-02  0.1315266E+00
         21   -1    0    0  501  502  0.00000000000E+00  0.00000000000E+00  0.58306549943E+02  0.58306549943E+02  0.00000000000E+00 0. -1.
         21   -1    0    0  502  503 -0.00000000000E+00 -0.00000000000E+00 -0.32039863900E+03  0.32039863900E+03  0.00000000000E+00 0.  1.
         24    1    1    2    0    0  0.25864232987E+02  0.26213017705E+02 -0.22205582366E+03  0.23902319055E+03  0.80419002446E+02 0.  1.
          1    1    1    2  501    0  0.24868241158E+02 -0.66867999712E+00  0.36622643741E+02  0.44272955467E+02  0.00000000000E+00 0. -1.
         -2    1    1    2    0  503 -0.50732474144E+02 -0.25544337708E+02 -0.76658909136E+02  0.95409042924E+02  0.00000000000E+00 0.  1.
<mgrwt>
<rscale>  2 0.85063567E+02</rscale>
<asrwt>0</asrwt>
<pdfrwt beam="1">  1       21 0.89702381E-02 0.85063567E+02</pdfrwt>
<pdfrwt beam="2">  1       21 0.49292100E-01 0.85063567E+02</pdfrwt>
<totfact> 0.39208119E+05</totfact>
</mgrwt>
</event>
<event>
 5    1  0.1595802E+000  0.8554904E+02  0.7546771E-02  0.1314003E+00
         21   -1    0    0  501  502  0.00000000000E+00  0.00000000000E+00  0.14369065409E+03  0.14369065409E+03  0.00000000000E+00 0. -1.
         21   -1    0    0  502  503 -0.00000000000E+00 -0.00000000000E+00 -0.11564155490E+03  0.11564155490E+03  0.00000000000E+00 0.  1.
         24    1    1    2    0    0 -0.17659235944E+02  0.17379560255E+02 -0.58032484067E+01  0.84349222731E+02  0.80419002446E+02 0.  0.
          1    1    1    2  501    0 -0.74752123771E+01 -0.47291550898E+02  0.92707046180E+02  0.10434062487E+03  0.00000000000E+00 0. -1.
         -2    1    1    2    0  503  0.25134448322E+02  0.29911990643E+02 -0.58854698592E+02  0.70642361392E+02  0.00000000000E+00 0.  1.
<mgrwt>
<rscale>  2 0.85549043E+02</rscale>
<asrwt>0</asrwt>
<pdfrwt beam="1">  1       21 0.22106254E-01 0.85549043E+02</pdfrwt>
<pdfrwt beam="2">  1       21 0.17791008E-01 0.85549043E+02</pdfrwt>
<totfact> 0.55293023E+05</totfact>
</mgrwt>
</event>
<event>
 5    1  0.1595802E+000  0.1003563E+03  0.7546771E-02  0.1279548E+00
         21   -1    0    0  503  502  0.00000000000E+00  0.00000000000E+00  0.11006417834E+03  0.11006417834E+03  0.00000000000E+00 0.  1.
         21   -1    0    0  501  503 -0.00000000000E+00 -0.00000000000E+00 -0.16241759218E+03  0.16241759218E+03  0.00000000000E+00 0. -1.
         24    1    1    2    0    0  0.35613229188E+02  0.69616652420E+02 -0.11728511302E+03  0.16228922970E+03  0.80419002446E+02 0. -1.
          1    1    1    2  501    0 -0.42168781188E+02 -0.39698782770E+02  0.36887291300E+02  0.68664923503E+02  0.00000000000E+00 0. -1.
         -2    1    1    2    0  502  0.65555519994E+01 -0.29917869650E+02  0.28044407880E+02  0.41527617313E+02  0.00000000000E+00 0.  1.
<mgrwt>
<rscale>  2 0.10035631E+03</rscale>
<asrwt>0</asrwt>
<pdfrwt beam="1">  1       21 0.16932951E-01 0.10035631E+03</pdfrwt>
<pdfrwt beam="2">  1       21 0.24987322E-01 0.10035631E+03</pdfrwt>
<totfact> 0.48135223E+05</totfact>
</mgrwt>
</event>
<event>
 5    1  0.1595802E+000  0.8462294E+02  0.7546771E-02  0.1316422E+00
         21   -1    0    0  503  502  0.00000000000E+00  0.00000000000E+00  0.17130493641E+02  0.17130493641E+02  0.00000000000E+00 0.  1.
         21   -1    0    0  501  503 -0.00000000000E+00 -0.00000000000E+00 -0.11815179675E+04  0.11815179675E+04  0.00000000000E+00 0. -1.
         24    1    1    2    0    0 -0.24712216084E+02  0.11735379786E+02 -0.19461728711E+03  0.21234763281E+03  0.80419002446E+02 0.  0.
          1    1    1    2  501    0  0.23020856728E+02 -0.45236478883E+02 -0.94024466976E+03  0.94161368824E+03  0.00000000000E+00 0. -1.
         -2    1    1    2    0  502  0.16913593567E+01  0.33501099098E+02 -0.29525517018E+02  0.44687140124E+02  0.00000000000E+00 0.  1.
<mgrwt>
<rscale>  2 0.84622939E+02</rscale>
<asrwt>0</asrwt>
<pdfrwt beam="1">  1       21 0.26354593E-02 0.84622939E+02</pdfrwt>
<pdfrwt beam="2">  1       21 0.18177208E+00 0.84622939E+02</pdfrwt>
<totfact> 0.14766874E+05</totfact>
</mgrwt>
</event>
<event>
 5    1  0.1595802E+000  0.1029145E+03  0.7546771E-02  0.1274284E+00
         21   -1    0    0  501  502  0.00000000000E+00  0.00000000000E+00  0.49550828830E+02  0.49550828830E+02  0.00000000000E+00 0.  1.
         21   -1    0    0  502  503 -0.00000000000E+00 -0.00000000000E+00 -0.37197898582E+03  0.37197898582E+03  0.00000000000E+00 0. -1.
         24    1    1    2    0    0 -0.45540917942E+02 -0.21491883349E+02 -0.26725798651E+03  0.28360169880E+03  0.80419002446E+02 0. -1.
          1    1    1    2  501    0 -0.12449833550E+02  0.46245167049E+02  0.81369260767E+01  0.48578013513E+02  0.00000000000E+00 0. -1.
         -2    1    1    2    0  503  0.57990751492E+02 -0.24753283701E+02 -0.63307096556E+02  0.89350102333E+02  0.00000000000E+00 0.  1.
<mgrwt>
<rscale>  2 0.10291454E+03</rscale>
<asrwt>0</asrwt>
<pdfrwt beam="1">  1       21 0.76232043E-02 0.10291454E+03</pdfrwt>
<pdfrwt beam="2">  1       21 0.57227537E-01 0.10291454E+03</pdfrwt>
<totfact> 0.38002680E+05</totfact>
</mgrwt>
</event>
<event>
 5    1  0.1595802E+000  0.1439357E+03  0.7546771E-02  0.1208129E+00
         21   -1    0    0  503  502  0.00000000000E+00  0.00000000000E+00  0.22922830299E+03  0.22922830299E+03  0.00000000000E+00 0. -1.
         21   -1    0    0  501  503 -0.00000000000E+00 -0.00000000000E+00 -0.11564078926E+03  0.11564078926E+03  0.00000000000E+00 0. -1.
         24    1    1    2    0    0 -0.35615967649E+02 -0.11998484739E+03  0.11870455161E+03  0.19032300776E+03  0.80419002446E+02 0. -1.
          1    1    1    2  501    0  0.52553683352E+02  0.80470519660E+02 -0.34893833087E+02  0.10224956604E+03  0.00000000000E+00 0. -1.
         -2    1    1    2    0  502 -0.16937715703E+02  0.39514327729E+02  0.29776795210E+02  0.52296518451E+02  0.00000000000E+00 0.  1.
<mgrwt>
<rscale>  2 0.14393569E+03</rscale>
<asrwt>0</asrwt>
<pdfrwt beam="1">  1       21 0.35265893E-01 0.14393569E+03</pdfrwt>
<pdfrwt beam="2">  1       21 0.17790891E-01 0.14393569E+03</pdfrwt>
<totfact> 0.22522797E+05</totfact>
</mgrwt>
</event>
<event>
 5    1  0.1595802E+000  0.7961898E+02  0.7546771E-02  0.1330136E+00
         21   -1    0    0  501  502  0.00000000000E+00  0.00000000000E+00  0.91747692208E+03  0.91747692208E+03  0.00000000000E+00 0.  1.
         21   -1    0    0  502  503 -0.00000000000E+00 -0.00000000000E+00 -0.18546401735E+02  0.18546401735E+02  0.00000000000E+00 0. -1.
         24    1    1    2    0    0  0.15034137776E+02 -0.23027368859E+02  0.22283167578E+03  0.23848995094E+03  0.80419002446E+02 0.  1.
          1    1    1    2  501    0 -0.40397531105E+02  0.26978090891E+02  0.66918971496E+03  0.67095055892E+03  0.00000000000E+00 0. -1.
         -2    1    1    2    0  503  0.25363393329E+02 -0.39507220326E+01  0.69091296045E+01  0.26582813952E+02  0.00000000000E+00 0.  1.
<mgrwt>
<rscale>  2 0.79618984E+02</rscale>
<asrwt>0</asrwt>
<pdfrwt beam="1">  1       21 0.14115026E+00 0.79618984E+02</pdfrwt>
<pdfrwt beam="2">  1       21 0.28532933E-02 0.79618984E+02</pdfrwt>
<totfact> 0.25126814E+05</totfact>
</mgrwt>
</event>
<event>
 5    1  0.1595802E+000  0.1065493E+03  0.7546771E-02  0.1267097E+00
         21   -1    0    0  501  502  0.00000000000E+00  0.00000000000E+00  0.46453616000E+02  0.46453616000E+02  0.00000000000E+00 0. -1.
         21   -1    0    0  502  503 -0.00000000000E+00 -0.00000000000E+00 -0.61726170029E+03  0.61726170029E+03  0.00000000000E+00 0.  1.
         24    1    1    2    0    0  0.28849395329E+02 -0.40286602626E+02 -0.69787824449E+02  0.11744298343E+03  0.80419002446E+02 0.  0.
          1    1    1    2  501    0 -0.64049906871E+02 -0.14176772638E+01 -0.27668558821E+02  0.69785023653E+02  0.00000000000E+00 0. -1.
         -2    1    1    2    0  503  0.35200511542E+02  0.41704279890E+02 -0.47335170102E+03  0.47648730921E+03  0.00000000000E+00 0.  1.
<mgrwt>
<rscale>  2 0.10654933E+03</rscale>
<asrwt>0</asrwt>
<pdfrwt beam="1">  1       21 0.71467105E-02 0.10654933E+03</pdfrwt>
<pdfrwt beam="2">  1       21 0.94963334E-01 0.10654933E+03</pdfrwt>
<totfact> 0.13981964E+05</totfact>
</mgrwt>
</event>
<event>
 5    1  0.1595802E+000  0.1272385E+03  0.7546771E-02  0.1231612E+00
         21   -1    0    0  503  502  0.00000000000E+00  0.00000000000E+00  0.12193294350E+04  0.12193294350E+04  0.00000000000E+00 0. -1.
         21   -1    0    0  501  503 -0.00000000000E+00 -0.00000000000E+00 -0.22212522544E+02  0.22212522544E+02  0.00000000000E+00 0.  1.
         24    1    1    2    0    0 -0.37577156257E+02 -0.75159217774E+02  0.55171344630E+03  0.56384030848E+03  0.80419002446E+02 0. -1.
          1    1    1    2  501    0 -0.11793327440E+02 -0.24365271111E+02  0.47453165714E+01  0.27482122148E+02  0.00000000000E+00 0. -1.
         -2    1    1    2    0  502  0.49370483696E+02  0.99524488885E+02  0.64065814962E+03  0.65021952695E+03  0.00000000000E+00 0.  1.
<mgrwt>
<rscale>  2 0.12723855E+03</rscale>
<asrwt>0</asrwt>
<pdfrwt beam="1">  1       21 0.18758909E+00 0.12723855E+03</pdfrwt>
<pdfrwt beam="2">  1       21 0.34173121E-02 0.12723855E+03</pdfrwt>
<totfact> 0.85835754E+04</totfact>
</mgrwt>
</event>
<event>
 5    1  0.1595802E+000  0.6798011E+02  0.7546771E-02  0.1367100E+00
         21   -1    0    0  501  502  0.00000000000E+00  0.00000000000E+00  0.93191391399E+02  0.93191391399E+02  0.00000000000E+00 0.  1.
         21   -1    0    0  502  503 -0.00000000000E+00 -0.00000000000E+00 -0.18919567732E+03  0.18919567732E+03  0.00000000000E+00 0.  1.
         24    1    1    2    0    0  0.14496685840E+02  0.92015227111E+01 -0.47095273198E+01  0.82366361596E+02  0.80419002446E+02 0.  1.
          1    1    1    2  501    0 -0.28461468465E+02  0.98406276278E+01  0.49129584980E+02  0.57624727849E+02  0.00000000000E+00 0. -1.
         -2    1    1    2    0  503  0.13964782625E+02 -0.19042150339E+02 -0.14042434358E+03  0.14239597927E+03  0.00000000000E+00 0.  1.
<mgrwt>
<rscale>  2 0.67980114E+02</rscale>
<asrwt>0</asrwt>
<pdfrwt beam="1">  1       21 0.14337137E-01 0.67980114E+02</pdfrwt>
<pdfrwt beam="2">  1       21 0.29107027E-01 0.67980114E+02</pdfrwt>
<totfact> 0.48598582E+05</totfact>
</mgrwt>
</event>
<event>
 5    1  0.1595802E+000  0.6891728E+02  0.7546771E-02  0.1363814E+00
         21   -1    0    0  501  502  0.00000000000E+00  0.00000000000E+00  0.90496575392E+02  0.90496575392E+02  0.00000000000E+00 0.  1.
         21   -1    0    0  502  503 -0.00000000000E+00 -0.00000000000E+00 -0.54374592493E+02  0.54374592493E+02  0.00000000000E+00 0. -1.
         24    1    1    2    0    0  0.15501010808E+02  0.76246956879E+01  0.14742173828E+02  0.83564136829E+02  0.80419002446E+02 0.  0.
          1    1    1    2  501    0 -0.29781902794E+02  0.11316552047E+02  0.19847520072E+02  0.37535984566E+02  0.00000000000E+00 0. -1.
         -2    1    1    2    0  503  0.14280891986E+02 -0.18941247735E+02  0.15322889987E+01  0.23771046491E+02  0.00000000000E+00 0.  1.
<mgrwt>
<rscale>  2 0.68917276E+02</rscale>
<asrwt>0</asrwt>
<pdfrwt beam="1">  1       21 0.13922550E-01 0.68917276E+02</pdfrwt>
<pdfrwt beam="2">  1       21 0.83653219E-02 0.68917276E+02</pdfrwt>
<totfact> 0.47234279E+06</totfact>
</mgrwt>
</event>
<event>
 5    1  0.1595802E+000  0.8267971E+02  0.7546771E-02  0.1321614E+00
         21   -1    0    0  503  502  0.00000000000E+00  0.00000000000E+00  0.44526259043E+01  0.44526259043E+01  0.00000000000E+00 0.  1.
         21   -1    0    0  501  503 -0.00000000000E+00 -0.00000000000E+00 -0.17207685513E+04  0.17207685513E+04  0.00000000000E+00 0.  1.
         24    1    1    2    0    0  0.11107832293E+02  0.16870923141E+02 -0.97944600897E+03  0.98294949637E+03  0.80419002446E+02 0.  1.
          1    1    1    2  501    0  0.17957808168E+02  0.25421900316E+02 -0.43138632478E+03  0.43250770756E+03  0.00000000000E+00 0. -1.
         -2    1    1    2    0  502 -0.29065640461E+02 -0.42292823456E+02 -0.30548359169E+03  0.30976397331E+03  0.00000000000E+00 0.  1.
<mgrwt>
<rscale>  2 0.82679711E+02</rscale>
<asrwt>0</asrwt>
<pdfrwt beam="1">  1       21 0.68501874E-03 0.82679711E+02</pdfrwt>
<pdfrwt beam="2">  1       21 0.26473387E+00 0.82679711E+02</pdfrwt>
<totfact> 0.40316790E+05</totfact>
</mgrwt>
</event>
<event>
 5    1  0.1595802E+000  0.9173933E+02  0.7546771E-02  0.1298693E+00
         21   -1    0    0  501  502  0.00000000000E+00  0.00000000000E+00  0.89764766076E+02  0.89764766076E+02  0.00000000000E+00 0. -1.
         21   -1    0    0  502  503 -0.00000000000E+00 -0.00000000000E+00 -0.26646508303E+03  0.26646508303E+03  0.00000000000E+00 0. -1.
         24    1    1    2    0    0 -0.27259466231E+02 -0.47548333594E+01 -0.21592248837E+03  0.23206771399E+03  0.80419002446E+02 0. -1.
          1    1    1    2  501    0  0.31028075817E+02 -0.41615228409E+02  0.54432228975E+02  0.75215930996E+02  0.00000000000E+00 0. -1.
         -2    1    1    2    0  503 -0.37686095858E+01  0.46370061768E+02 -0.15210057562E+02  0.48946204119E+02  0.00000000000E+00 0.  1.
<mgrwt>
<rscale>  2 0.91739331E+02</rscale>
<asrwt>0</asrwt>
<pdfrwt beam="1">  1       21 0.13809964E-01 0.91739331E+02</pdfrwt>
<pdfrwt beam="2">  1       21 0.40994627E-01 0.91739331E+02</pdfrwt>
<totfact> 0.26723050E+05</totfact>
</mgrwt>
</event>
<event>
 5    1  0.1595802E+000  0.6895975E+02  0.7546771E-02  0.1363667E+00
         21   -1    0    0  501  502  0.00000000000E+00  0.00000000000E+00  0.92094042686E+03  0.92094042686E+03  0.00000000000E+00 0.  1.
         21   -1    0    0  502  503 -0.00000000000E+00 -0.00000000000E+00 -0.93153276765E+01  0.93153276765E+01  0.00000000000E+00 0.  1.
         24    1    1    2    0    0 -0.29260245481E+02  0.38002366641E+01  0.45937973875E+03  0.46729815331E+03  0.80419002446E+02 0.  1.
          1    1    1    2  501    0  0.19244633251E+02  0.19192373561E+02  0.42522229643E+03  0.42609001923E+03  0.00000000000E+00 0. -1.
         -2    1    1    2    0  503  0.10015612230E+02 -0.22992610225E+02  0.27023064010E+02  0.36867581991E+02  0.00000000000E+00 0.  1.
<mgrwt>
<rscale>  2 0.68959747E+02</rscale>
<asrwt>0</asrwt>
<pdfrwt beam="1">  1       21 0.14168307E+00 0.68959747E+02</pdfrwt>
<pdfrwt beam="2">  1       21 0.14331281E-02 0.68959747E+02</pdfrwt>
<totfact> 0.74739528E+05</totfact>
</mgrwt>
</event>
<event>
 5    1  0.1595802E+000  0.7714338E+02  0.7546771E-02  0.1337359E+00
         21   -1    0    0  501  502  0.00000000000E+00  0.00000000000E+00  0.96146468685E+02  0.96146468685E+02  0.00000000000E+00 0. -1.
         21   -1    0    0  502  503 -0.00000000000E+00 -0.00000000000E+00 -0.47919709806E+03  0.47919709806E+03  0.00000000000E+00 0. -1.
         24    1    1    2    0    0  0.38852067501E+02  0.37035781710E+02 -0.33392904141E+03  0.34764486611E+03  0.80419002446E+02 0. -1.
          1    1    1    2  501    0 -0.13229359334E+02 -0.27028195124E+02  0.85320314297E+02  0.90471516577E+02  0.00000000000E+00 0. -1.
         -2    1    1    2    0  503 -0.25622708167E+02 -0.10007586587E+02 -0.13444190226E+03  0.13722718406E+03  0.00000000000E+00 0.  1.
<mgrwt>
<rscale>  2 0.77143381E+02</rscale>
<asrwt>0</asrwt>
<pdfrwt beam="1">  1       21 0.14791765E-01 0.77143381E+02</pdfrwt>
<pdfrwt beam="2">  1       21 0.73722628E-01 0.77143381E+02</pdfrwt>
<totfact> 0.70641475E+04</totfact>
</mgrwt>
</event>
<event>
 5    1  0.1595802E+000  0.7006879E+02  0.7546771E-02  0.1359859E+00
         21   -1    0    0  503  502  0.00000000000E+00  0.00000000000E+00  0.16347256698E+02  0.16347256698E+02  0.00000000000E+00 0. -1.
         21   -1    0    0  501  503 -0.00000000000E+00 -0.00000000000E+00 -0.34057054964E+03  0.34057054964E+03  0.00000000000E+00 0.  1.
         24    1    1    2    0    0 -0.33164889409E+02  0.62131658485E+01 -0.22119928227E+03  0.23777058639E+03  0.80419002446E+02 0.  1.
          1    1    1    2  501    0  0.14390632719E+02 -0.23401809568E+02 -0.80846875152E+02  0.85387072927E+02  0.00000000000E+00 0. -1.
         -2    1    1    2    0  502  0.18774256690E+02  0.17188643720E+02 -0.22177135517E+02  0.33760147022E+02  0.00000000000E+00 0.  1.
<mgrwt>
<rscale>  2 0.70068794E+02</rscale>
<asrwt>0</asrwt>
<pdfrwt beam="1">  1       21 0.25149627E-02 0.70068794E+02</pdfrwt>
<pdfrwt beam="2">  1       21 0.52395466E-01 0.70068794E+02</pdfrwt>
<totfact> 0.28286995E+06</totfact>
</mgrwt>
</event>
<event>
 5    1  0.1595802E+000  0.7298193E+02  0.7546771E-02  0.1350237E+00
         21   -1    0    0  503  502  0.00000000000E+00  0.00000000000E+00  0.16079583138E+03  0.16079583138E+03  0.00000000000E+00 0.  1.
         21   -1    0    0  501  503 -0.00000000000E+00 -0.00000000000E+00 -0.46086891703E+02  0.46086891703E+02  0.00000000000E+00 0. -1.
         24    1    1    2    0    0 -0.36863025924E+02  0.10605859726E+02  0.74009835242E+02  0.11582762455E+03  0.80419002446E+02 0.  1.
          1    1    1    2  501    0  0.21120335887E+02  0.15625670573E+02 -0.12954417345E+02  0.29292440963E+02  0.00000000000E+00 0. -1.
         -2    1    1    2    0  502  0.15742690038E+02 -0.26231530299E+02  0.53653521777E+02  0.61762657573E+02  0.00000000000E+00 0.  1.
<mgrwt>
<rscale>  2 0.72981928E+02</rscale>
<asrwt>0</asrwt>
<pdfrwt beam="1">  1       21 0.24737820E-01 0.72981928E+02</pdfrwt>
<pdfrwt beam="2">  1       21 0.70902911E-02 0.72981928E+02</pdfrwt>
<totfact> 0.22206711E+06</totfact>
</mgrwt>
</event>
<event>
 5    1  0.1595802E+000  0.8716337E+02  0.7546771E-02  0.1309870E+00
         21   -1    0    0  501  502  0.00000000000E+00  0.00000000000E+00  0.31885525081E+03  0.31885525081E+03  0.00000000000E+00 0. -1.
         21   -1    0    0  502  503 -0.00000000000E+00 -0.00000000000E+00 -0.43491614629E+02  0.43491614629E+02  0.00000000000E+00 0.  1.
         24    1    1    2    0    0 -0.50372730931E+01  0.13571439324E+02  0.13808935414E+03  0.16045386803E+03  0.80419002446E+02 0. -1.
          1    1    1    2  501    0 -0.43188002127E+02 -0.94835567416E+01  0.14614583797E+03  0.15268839947E+03  0.00000000000E+00 0. -1.
         -2    1    1    2    0  503  0.48225275220E+02 -0.40878825823E+01 -0.88715559255E+01  0.49204597942E+02  0.00000000000E+00 0.  1.
<mgrwt>
<rscale>  2 0.87163366E+02</rscale>
<asrwt>0</asrwt>
<pdfrwt beam="1">  1       21 0.49054653E-01 0.87163366E+02</pdfrwt>
<pdfrwt beam="2">  1       21 0.66910178E-02 0.87163366E+02</pdfrwt>
<totfact> 0.65225259E+05</totfact>
</mgrwt>
</event>
<event>
 5    1  0.1595802E+000  0.6718623E+02  0.7546771E-02  0.1369931E+00
         21   -1    0    0  501  502  0.00000000000E+00  0.00000000000E+00  0.22988352133E+03  0.22988352133E+03  0.00000000000E+00 0.  1.
         21   -1    0    0  502  503 -0.00000000000E+00 -0.00000000000E+00 -0.20164332568E+02  0.20164332568E+02  0.00000000000E+00 0. -1.
         24    1    1    2    0    0 -0.72849976433E+01 -0.27547635268E+01  0.10838111899E+03  0.13518262766E+03  0.80419002446E+02 0. -1.
          1    1    1    2  501    0 -0.13395536479E+02  0.21719063432E+02  0.56112594336E+02  0.61642366575E+02  0.00000000000E+00 0. -1.
         -2    1    1    2    0  503  0.20680534122E+02 -0.18964299905E+02  0.45225475442E+02  0.53222859670E+02  0.00000000000E+00 0.  1.
<mgrwt>
<rscale>  2 0.67186229E+02</rscale>
<asrwt>0</asrwt>
<pdfrwt beam="1">  1       21 0.35366694E-01 0.67186229E+02</pdfrwt>
<pdfrwt beam="2">  1       21 0.31022052E-02 0.67186229E+02</pdfrwt>
<totfact> 0.43880973E+06</totfact>
</mgrwt>
</event>
<event>
 5    1  0.1595802E+000  0.7373568E+02  0.7546771E-02  0.1347832E+00
         21   -1    0    0  501  502  0.00000000000E+00  0.00000000000E+00  0.13997094897E+02  0.13997094897E+02  0.00000000000E+00 0.  1.
         21   -1    0    0  502  503 -0.00000000000E+00 -0.00000000000E+00 -0.44015441992E+03  0.44015441992E+03  0.00000000000E+00 0.  1.
         24    1    1    2    0    0 -0.13380761086E+02 -0.15512515041E+02 -0.18234296399E+03  0.20033935050E+03  0.80419002446E+02 0.  1.
          1    1    1    2  501    0 -0.21612367958E+02 -0.71837942226E+01 -0.42451560727E+02  0.48175059485E+02  0.00000000000E+00 0. -1.
         -2    1    1    2    0  503  0.34993129044E+02  0.22696309264E+02 -0.20136280031E+03  0.20563710483E+03  0.00000000000E+00 0.  1.
<mgrwt>
<rscale>  2 0.73735684E+02</rscale>
<asrwt>0</asrwt>
<pdfrwt beam="1">  1       21 0.21533997E-02 0.73735684E+02</pdfrwt>
<pdfrwt beam="2">  1       21 0.67716050E-01 0.73735684E+02</pdfrwt>
<totfact> 0.21295636E+06</totfact>
</mgrwt>
</event>
<event>
 5    1  0.1595802E+000  0.7578400E+02  0.7546771E-02  0.1341460E+00
         21   -1    0    0  501  502  0.00000000000E+00  0.00000000000E+00  0.23279729660E+04  0.23279729660E+04  0.00000000000E+00 0. -1.
         21   -1    0    0  502  503 -0.00000000000E+00 -0.00000000000E+00 -0.39811906992E+01  0.39811906992E+01  0.00000000000E+00 0.  1.
         24    1    1    2    0    0  0.12947998984E+02 -0.52482099566E+01  0.52527706882E+03  0.53158104684E+03  0.80419002446E+02 0.  1.
          1    1    1    2  501    0 -0.34531275788E+01 -0.31653219200E+02  0.12143979171E+04  0.12148152746E+04  0.00000000000E+00 0. -1.
         -2    1    1    2    0  503 -0.94948714051E+01  0.36901429157E+02  0.58431678942E+03  0.58555783528E+03  0.00000000000E+00 0.  1.
<mgrwt>
<rscale>  2 0.75783996E+02</rscale>
<asrwt>0</asrwt>
<pdfrwt beam="1">  1       21 0.35814860E+00 0.75783996E+02</pdfrwt>
<pdfrwt beam="2">  1       21 0.61249274E-03 0.75783996E+02</pdfrwt>
<totfact> 0.14889075E+05</totfact>
</mgrwt>
</event>
<event>
 5    1  0.1595802E+000  0.9370746E+02  0.7546771E-02  0.1294114E+00
         21   -1    0    0  501  502  0.00000000000E+00  0.00000000000E+00  0.85215120515E+03  0.85215120515E+03  0.00000000000E+00 0.  1.
         21   -1    0    0  502  503 -0.00000000000E+00 -0.00000000000E+00 -0.14069055311E+02  0.14069055311E+02  0.00000000000E+00 0. -1.
         24    1    1    2    0    0 -0.10779391031E+02 -0.13944691353E+02  0.43265383776E+03  0.44041708524E+03  0.80419002446E+02 0.  1.
          1    1    1    2  501    0  0.46717937556E+02 -0.24255038358E+02  0.32853875503E+03  0.33272899803E+03  0.00000000000E+00 0. -1.
         -2    1    1    2    0  503 -0.35938546524E+02  0.38199729710E+02  0.76889557046E+02  0.93074177187E+02  0.00000000000E+00 0.  1.
<mgrwt>
<rscale>  2 0.93707464E+02</rscale>
<asrwt>0</asrwt>
<pdfrwt beam="1">  1       21 0.13110014E+00 0.93707464E+02</pdfrwt>
<pdfrwt beam="2">  1       21 0.21644707E-02 0.93707464E+02</pdfrwt>
<totfact> 0.46876360E+05</totfact>
</mgrwt>
</event>
<event>
 5    1  0.1595802E+000  0.9754040E+02  0.7546771E-02  0.1285555E+00
         21   -1    0    0  501  502  0.00000000000E+00  0.00000000000E+00  0.98354791887E+01  0.98354791887E+01  0.00000000000E+00 0. -1.
         21   -1    0    0  502  503 -0.00000000000E+00 -0.00000000000E+00 -0.33376728183E+04  0.33376728183E+04  0.00000000000E+00 0.  1.
         24    1    1    2    0    0 -0.43191267845E+02 -0.11989047617E+02 -0.86039138531E+03  0.86530328484E+03  0.80419002446E+02 0.  0.
          1    1    1    2  501    0  0.24613149700E+02 -0.40467049955E+02 -0.72425236520E+02  0.86537876997E+02  0.00000000000E+00 0. -1.
         -2    1    1    2    0  503  0.18578118146E+02  0.52456097572E+02 -0.23950207173E+04  0.23956671357E+04  0.00000000000E+00 0.  1.
<mgrwt>
<rscale>  2 0.97540403E+02</rscale>
<asrwt>0</asrwt>
<pdfrwt beam="1">  1       21 0.15131500E-02 0.97540403E+02</pdfrwt>
<pdfrwt beam="2">  1       21 0.51348835E+00 0.97540403E+02</pdfrwt>
<totfact> 0.35673613E+03</totfact>
</mgrwt>
</event>
<event>
 5    1  0.1595802E+000  0.7053067E+02  0.7546771E-02  0.1358298E+00
         21   -1    0    0  503  502  0.00000000000E+00  0.00000000000E+00  0.31715617868E+02  0.31715617868E+02  0.00000000000E+00 0.  1.
         21   -1    0    0  501  503 -0.00000000000E+00 -0.00000000000E+00 -0.40624108609E+03  0.40624108609E+03  0.00000000000E+00 0.  1.
         24    1    1    2    0    0  0.76034625753E+01  0.29045736552E+02 -0.27779798787E+03  0.29075832829E+03  0.80419002446E+02 0.  1.
          1    1    1    2  501    0  0.19514940567E+02 -0.15416105094E+02 -0.11093379472E+03  0.11368727287E+03  0.00000000000E+00 0. -1.
         -2    1    1    2    0  502 -0.27118403142E+02 -0.13629631458E+02  0.14206314365E+02  0.33511102794E+02  0.00000000000E+00 0.  1.
<mgrwt>
<rscale>  2 0.70530669E+02</rscale>
<asrwt>0</asrwt>
<pdfrwt beam="1">  1       21 0.48793257E-02 0.70530669E+02</pdfrwt>
<pdfrwt beam="2">  1       21 0.62498630E-01 0.70530669E+02</pdfrwt>
<totfact> 0.66870781E+05</totfact>
</mgrwt>
</event>
<event>
 5    1  0.1595802E+000  0.7816997E+02  0.7546771E-02  0.1334326E+00
         21   -1    0    0  503  502  0.00000000000E+00  0.00000000000E+00  0.66662358812E+02  0.66662358812E+02  0.00000000000E+00 0. -1.
         21   -1    0    0  501  503 -0.00000000000E+00 -0.00000000000E+00 -0.11599058036E+03  0.11599058036E+03  0.00000000000E+00 0.  1.
         24    1    1    2    0    0  0.18740365299E+02  0.16296926553E+02 -0.35585349008E+02  0.91380107928E+02  0.80419002446E+02 0.  0.
          1    1    1    2  501    0 -0.43159449282E+02 -0.63661334121E+00 -0.34784736750E+02  0.55435739822E+02  0.00000000000E+00 0. -1.
         -2    1    1    2    0  502  0.24419083982E+02 -0.15660313212E+02  0.21041864207E+02  0.35837091424E+02  0.00000000000E+00 0.  1.
<mgrwt>
<rscale>  2 0.78169973E+02</rscale>
<asrwt>0</asrwt>
<pdfrwt beam="1">  1       21 0.10255748E-01 0.78169973E+02</pdfrwt>
<pdfrwt beam="2">  1       21 0.17844705E-01 0.78169973E+02</pdfrwt>
<totfact> 0.21574624E+06</totfact>
</mgrwt>
</event>
<event>
 5    1  0.2103341E+000  0.7786484E+02  0.7546771E-02  0.1335222E+00
         21   -1    0    0  501  502  0.00000000000E+00  0.00000000000E+00  0.17239425273E+03  0.17239425273E+03  0.00000000000E+00 0.  1.
         21   -1    0    0  502  503 -0.00000000000E+00 -0.00000000000E+00 -0.15657221530E+03  0.15657221530E+03  0.00000000000E+00 0.  1.
         24    1    1    2    0    0  0.18749875730E+02  0.51710866718E+02  0.14533897888E+03  0.17497487338E+03  0.80419002446E+02 0.  1.
          1    1    1    2  501    0 -0.15873395647E+02 -0.16231670504E+02 -0.34106988377E+01  0.22957889347E+02  0.00000000000E+00 0. -1.
         -2    1    1    2    0  503 -0.28764800829E+01 -0.35479196214E+02 -0.12610624261E+03  0.13103370531E+03  0.00000000000E+00 0.  1.
<mgrwt>
<rscale>  2 0.77864836E+02</rscale>
<asrwt>0</asrwt>
<pdfrwt beam="1">  1       21 0.26522193E-01 0.77864836E+02</pdfrwt>
<pdfrwt beam="2">  1       21 0.24088033E-01 0.77864836E+02</pdfrwt>
<totfact> 0.22640868E+05</totfact>
</mgrwt>
</event>
<event>
 5    1  0.1595802E+000  0.1184834E+03  0.7546771E-02  0.1245620E+00
         21   -1    0    0  503  502  0.00000000000E+00  0.00000000000E+00  0.35499986290E+03  0.35499986290E+03  0.00000000000E+00 0.  1.
         21   -1    0    0  501  503 -0.00000000000E+00 -0.00000000000E+00 -0.40703618676E+02  0.40703618676E+02  0.00000000000E+00 0. -1.
         24    1    1    2    0    0 -0.37080704737E+02 -0.92694528699E+01  0.92799914673E+02  0.12860770404E+03  0.80419002446E+02 0.  1.
          1    1    1    2  501    0  0.18423690470E+02 -0.66959489668E+02  0.86308442858E+02  0.11077974966E+03  0.00000000000E+00 0. -1.
         -2    1    1    2    0  502  0.18657014268E+02  0.76228942538E+02  0.13518788670E+03  0.15631602788E+03  0.00000000000E+00 0.  1.
<mgrwt>
<rscale>  2 0.11848336E+03</rscale>
<asrwt>0</asrwt>
<pdfrwt beam="1">  1       21 0.54615361E-01 0.11848336E+03</pdfrwt>
<pdfrwt beam="2">  1       21 0.62620954E-02 0.11848336E+03</pdfrwt>
<totfact> 0.58482105E+05</totfact>
</mgrwt>
</event>
<event>
 5    1  0.1595802E+000  0.1206052E+03  0.7546771E-02  0.1242102E+00
         21   -1    0    0  503  502  0.00000000000E+00  0.00000000000E+00  0.24409513793E+03  0.24409513793E+03  0.00000000000E+00 0. -1.
         21   -1    0    0  501  503 -0.00000000000E+00 -0.00000000000E+00 -0.88969534506E+02  0.88969534506E+02  0.00000000000E+00 0. -1.
         24    1    1    2    0    0  0.24936426852E+01 -0.43451768605E+02  0.80546291640E+02  0.12185727512E+03  0.80419002446E+02 0. -1.
          1    1    1    2  501    0 -0.27499779407E+02  0.91532666415E+02 -0.24152959159E+02  0.98579066361E+02  0.00000000000E+00 0. -1.
         -2    1    1    2    0  502  0.25006136721E+02 -0.48080897810E+02  0.98732270947E+02  0.11262833096E+03  0.00000000000E+00 0.  1.
<mgrwt>
<rscale>  2 0.12060521E+03</rscale>
<asrwt>0</asrwt>
<pdfrwt beam="1">  1       21 0.37553098E-01 0.12060521E+03</pdfrwt>
<pdfrwt beam="2">  1       21 0.13687621E-01 0.12060521E+03</pdfrwt>
<totfact> 0.32124941E+05</totfact>
</mgrwt>
</event>
<event>
 5    1  0.1595802E+000  0.8392142E+02  0.7546771E-02  0.1318277E+00
         21   -1    0    0  501  502  0.00000000000E+00  0.00000000000E+00  0.14740859504E+02  0.14740859504E+02  0.00000000000E+00 0.  1.
         21   -1    0    0  502  503 -0.00000000000E+00 -0.00000000000E+00 -0.51729715248E+03  0.51729715248E+03  0.00000000000E+00 0. -1.
         24    1    1    2    0    0 -0.15625499886E+02 -0.19469092265E+02 -0.27482675346E+03  0.28743723171E+03  0.80419002446E+02 0.  0.
          1    1    1    2  501    0 -0.29687621408E+02  0.23895104315E+02 -0.62400711067E+02  0.73117573926E+02  0.00000000000E+00 0. -1.
         -2    1    1    2    0  503  0.45313121293E+02 -0.44260120500E+01 -0.16532882846E+03  0.17148320636E+03  0.00000000000E+00 0.  1.
<mgrwt>
<rscale>  2 0.83921422E+02</rscale>
<asrwt>0</asrwt>
<pdfrwt beam="1">  1       21 0.22678241E-02 0.83921422E+02</pdfrwt>
<pdfrwt beam="2">  1       21 0.79584192E-01 0.83921422E+02</pdfrwt>
<totfact> 0.13873247E+06</totfact>
</mgrwt>
</event>
<event>
 5    1  0.1595802E+000  0.1834836E+03  0.7546771E-02  0.1164474E+00
         21   -1    0    0  503  502  0.00000000000E+00  0.00000000000E+00  0.14445624942E+03  0.14445624942E+03  0.00000000000E+00 0.  1.
         21   -1    0    0  501  503 -0.00000000000E+00 -0.00000000000E+00 -0.68611940021E+03  0.68611940021E+03  0.00000000000E+00 0.  1.
         24    1    1    2    0    0  0.66691834984E+02 -0.13451736022E+03  0.72729628251E+02  0.18520133864E+03  0.80419002446E+02 0.  1.
          1    1    1    2  501    0  0.36536471336E+02  0.17217196315E+02 -0.15298696384E+03  0.15822881119E+03  0.00000000000E+00 0. -1.
         -2    1    1    2    0  502 -0.10322830632E+03  0.11730016390E+03 -0.46140581520E+03  0.48714549981E+03  0.00000000000E+00 0.  1.
<mgrwt>
<rscale>  2 0.18348364E+03</rscale>
<asrwt>0</asrwt>
<pdfrwt beam="1">  1       21 0.22224038E-01 0.18348364E+03</pdfrwt>
<pdfrwt beam="2">  1       21 0.10555683E+00 0.18348364E+03</pdfrwt>
<totfact> 0.13745652E+04</totfact>
</mgrwt>
</event>
<event>
 5    1  0.1595802E+000  0.8438062E+02  0.7546771E-02  0.1317060E+00
         21   -1    0    0  501  502  0.00000000000E+00  0.00000000000E+00  0.20343160669E+03  0.20343160669E+03  0.00000000000E+00 0.  1.
         21   -1    0    0  502  503 -0.00000000000E+00 -0.00000000000E+00 -0.41169871207E+02  0.41169871207E+02  0.00000000000E+00 0.  1.
         24    1    1    2    0    0 -0.24294592002E+02  0.31952160769E+02  0.13250817614E+03  0.16011496019E+03  0.80419002446E+02 0.  1.
          1    1    1    2  501    0 -0.17870083841E+02 -0.32074378650E+02  0.10914756246E+02  0.38304537149E+02  0.00000000000E+00 0. -1.
         -2    1    1    2    0  503  0.42164675844E+02  0.12221788122E+00  0.18838803099E+02  0.46181980560E+02  0.00000000000E+00 0.  1.
<mgrwt>
<rscale>  2 0.84380620E+02</rscale>
<asrwt>0</asrwt>
<pdfrwt beam="1">  1       21 0.31297170E-01 0.84380620E+02</pdfrwt>
<pdfrwt beam="2">  1       21 0.63338264E-02 0.84380620E+02</pdfrwt>
<totfact> 0.17341583E+06</totfact>
</mgrwt>
</event>
<event>
 5    1  0.1595802E+000  0.9515871E+02  0.7546771E-02  0.1290819E+00
         21   -1    0    0  501  502  0.00000000000E+00  0.00000000000E+00  0.65331676705E+02  0.65331676705E+02  0.00000000000E+00 0. -1.
         21   -1    0    0  502  503 -0.00000000000E+00 -0.00000000000E+00 -0.14610449799E+03  0.14610449799E+03  0.00000000000E+00 0. -1.
         24    1    1    2    0    0  0.46468786287E+01  0.55706959111E+02 -0.40138896441E+02  0.10584519704E+03  0.80419002446E+02 0.  0.
          1    1    1    2  501    0 -0.30518542567E+02 -0.58873629203E+02 -0.12947180069E+02  0.67565635701E+02  0.00000000000E+00 0. -1.
         -2    1    1    2    0  503  0.25871663938E+02  0.31666700919E+01 -0.27686744771E+02  0.38025341950E+02  0.00000000000E+00 0.  1.
<mgrwt>
<rscale>  2 0.95158710E+02</rscale>
<asrwt>0</asrwt>
<pdfrwt beam="1">  1       21 0.10051027E-01 0.95158710E+02</pdfrwt>
<pdfrwt beam="2">  1       21 0.22477615E-01 0.95158710E+02</pdfrwt>
<totfact> 0.14757372E+06</totfact>
</mgrwt>
</event>
<event>
 5    1  0.1595802E+000  0.7330358E+02  0.7546771E-02  0.1349206E+00
         21   -1    0    0  501  502  0.00000000000E+00  0.00000000000E+00  0.16173951466E+03  0.16173951466E+03  0.00000000000E+00 0.  1.
         21   -1    0    0  502  503 -0.00000000000E+00 -0.00000000000E+00 -0.47453371722E+02  0.47453371722E+02  0.00000000000E+00 0. -1.
         24    1    1    2    0    0 -0.15476812740E+01  0.11770706201E+02  0.37992468917E+02  0.89730644100E+02  0.80419002446E+02 0. -1.
          1    1    1    2  501    0 -0.18071562827E+02 -0.32242447383E+02  0.82530692694E+02  0.90429375940E+02  0.00000000000E+00 0. -1.
         -2    1    1    2    0  503  0.19619244101E+02  0.20471741182E+02 -0.62370186725E+01  0.29032866342E+02  0.00000000000E+00 0.  1.
<mgrwt>
<rscale>  2 0.73303585E+02</rscale>
<asrwt>0</asrwt>
<pdfrwt beam="1">  1       21 0.24883002E-01 0.73303585E+02</pdfrwt>
<pdfrwt beam="2">  1       21 0.73005188E-02 0.73303585E+02</pdfrwt>
<totfact> 0.20914533E+06</totfact>
</mgrwt>
</event>
<event>
 5    1  0.1595802E+000  0.6471581E+02  0.7546771E-02  0.1379044E+00
         21   -1    0    0  503  502  0.00000000000E+00  0.00000000000E+00  0.71466349372E+03  0.71466349372E+03  0.00000000000E+00 0.  1.
         21   -1    0    0  501  503 -0.00000000000E+00 -0.00000000000E+00 -0.68097075516E+02  0.68097075516E+02  0.00000000000E+00 0.  1.
         24    1    1    2    0    0 -0.11839905164E+02 -0.15307429384E+02  0.18514221920E+02  0.84761389302E+02  0.80419002446E+02 0.  1.
          1    1    1    2  501    0 -0.11789035239E+02  0.19434175360E+02 -0.31038855072E+02  0.38471795487E+02  0.00000000000E+00 0. -1.
         -2    1    1    2    0  502  0.23628940404E+02 -0.41267459752E+01  0.65909105136E+03  0.65952738445E+03  0.00000000000E+00 0.  1.
<mgrwt>
<rscale>  2 0.64715806E+02</rscale>
<asrwt>0</asrwt>
<pdfrwt beam="1">  1       21 0.10994822E+00 0.64715806E+02</pdfrwt>
<pdfrwt beam="2">  1       21 0.10476474E-01 0.64715806E+02</pdfrwt>
<totfact> 0.53193981E+04</totfact>
</mgrwt>
</event>
<event>
 5    1  0.1595802E+000  0.9941687E+02  0.7546771E-02  0.1281527E+00
         21   -1    0    0  503  502  0.00000000000E+00  0.00000000000E+00  0.79311352262E+02  0.79311352262E+02  0.00000000000E+00 0. -1.
         21   -1    0    0  501  503 -0.00000000000E+00 -0.00000000000E+00 -0.24971345369E+03  0.24971345369E+03  0.00000000000E+00 0.  1.
         24    1    1    2    0    0  0.53446541097E+02  0.19275185623E+02 -0.19746749874E+03  0.22065514847E+03  0.80419002446E+02 0.  1.
          1    1    1    2  501    0 -0.39471101309E+02 -0.51709165581E+02  0.20384171545E+01  0.65084259142E+02  0.00000000000E+00 0. -1.
         -2    1    1    2    0  502 -0.13975439788E+02  0.32433979957E+02  0.25026980157E+02  0.43285398334E+02  0.00000000000E+00 0.  1.
<mgrwt>
<rscale>  2 0.99416873E+02</rscale>
<asrwt>0</asrwt>
<pdfrwt beam="1">  1       21 0.12201747E-01 0.99416873E+02</pdfrwt>
<pdfrwt beam="2">  1       21 0.38417454E-01 0.99416873E+02</pdfrwt>
<totfact> 0.37774596E+05</totfact>
</mgrwt>
</event>
<event>
 5    1  0.1595802E+000  0.7014931E+02  0.7546771E-02  0.1359586E+00
         21   -1    0    0  501  502  0.00000000000E+00  0.00000000000E+00  0.37545157135E+02  0.37545157135E+02  0.00000000000E+00 0. -1.
         21   -1    0    0  502  503 -0.00000000000E+00 -0.00000000000E+00 -0.19187783917E+03  0.19187783917E+03  0.00000000000E+00 0.  1.
         24    1    1    2    0    0 -0.26814195065E+02 -0.25461658916E+02 -0.11599932872E+03  0.14591215628E+03  0.80419002446E+02 0.  1.
          1    1    1    2  501    0 -0.94592623067E+00  0.23966839966E+02  0.11383119039E+02  0.26549568611E+02  0.00000000000E+00 0. -1.
         -2    1    1    2    0  503  0.27760121296E+02  0.14948189502E+01 -0.49716472348E+02  0.56961271411E+02  0.00000000000E+00 0.  1.
<mgrwt>
<rscale>  2 0.70149311E+02</rscale>
<asrwt>0</asrwt>
<pdfrwt beam="1">  1       21 0.57761779E-02 0.70149311E+02</pdfrwt>
<pdfrwt beam="2">  1       21 0.29519668E-01 0.70149311E+02</pdfrwt>
<totfact> 0.22433308E+06</totfact>
</mgrwt>
</event>
<event>
 5    1  0.1595802E+000  0.7183332E+02  0.7546771E-02  0.1353967E+00
         21   -1    0    0  501  502  0.00000000000E+00  0.00000000000E+00  0.10086072433E+04  0.10086072433E+04  0.00000000000E+00 0.  1.
         21   -1    0    0  502  503 -0.00000000000E+00 -0.00000000000E+00 -0.60627373033E+01  0.60627373033E+01  0.00000000000E+00 0. -1.
         24    1    1    2    0    0  0.19255978726E+01  0.70060652080E+01  0.51324422511E+03  0.51955716090E+03  0.80419002446E+02 0.  0.
          1    1    1    2  501    0  0.25103989652E+02 -0.20775109008E+02  0.38805837496E+03  0.38942408481E+03  0.00000000000E+00 0. -1.
         -2    1    1    2    0  503 -0.27029587525E+02  0.13769043800E+02  0.10124190593E+03  0.10568873490E+03  0.00000000000E+00 0.  1.
<mgrwt>
<rscale>  2 0.71833318E+02</rscale>
<asrwt>0</asrwt>
<pdfrwt beam="1">  1       21 0.15517021E+00 0.71833318E+02</pdfrwt>
<pdfrwt beam="2">  1       21 0.93272962E-03 0.71833318E+02</pdfrwt>
<totfact> 0.11624712E+06</totfact>
</mgrwt>
</event>
<event>
 5    1  0.1595802E+000  0.1253352E+03  0.7546771E-02  0.1234546E+00
         21   -1    0    0  501  502  0.00000000000E+00  0.00000000000E+00  0.16887007603E+02  0.16887007603E+02  0.00000000000E+00 0. -1.
         21   -1    0    0  502  503 -0.00000000000E+00 -0.00000000000E+00 -0.13225303339E+04  0.13225303339E+04  0.00000000000E+00 0. -1.
         24    1    1    2    0    0 -0.56337716439E+02  0.93895546186E+02 -0.10525046701E+04  0.10612368296E+04  0.80419002446E+02 0. -1.
          1    1    1    2  501    0  0.17983810704E+02 -0.63135362471E+02 -0.13130958088E+03  0.14680496406E+03  0.00000000000E+00 0. -1.
         -2    1    1    2    0  503  0.38353905735E+02 -0.30760183714E+02 -0.12182907529E+03  0.13137554785E+03  0.00000000000E+00 0.  1.
<mgrwt>
<rscale>  2 0.12533517E+03</rscale>
<asrwt>0</asrwt>
<pdfrwt beam="1">  1       21 0.25980024E-02 0.12533517E+03</pdfrwt>
<pdfrwt beam="2">  1       21 0.20346611E+00 0.12533517E+03</pdfrwt>
<totfact> 0.10675526E+05</totfact>
</mgrwt>
</event>
<event>
 5    1  0.1595802E+000  0.9754969E+02  0.7546771E-02  0.1285535E+00
         21   -1    0    0  503  502  0.00000000000E+00  0.00000000000E+00  0.78810331111E+03  0.78810331111E+03  0.00000000000E+00 0.  1.
         21   -1    0    0  501  503 -0.00000000000E+00 -0.00000000000E+00 -0.40964991083E+02  0.40964991083E+02  0.00000000000E+00 0. -1.
         24    1    1    2    0    0 -0.18501080213E+02 -0.74060703982E+02  0.35218814658E+03  0.36923025931E+03  0.80419002446E+02 0. -1.
          1    1    1    2  501    0 -0.20199317280E+01  0.58322896060E+02 -0.54424721094E+01  0.58611098196E+02  0.00000000000E+00 0. -1.
         -2    1    1    2    0  502  0.20521011941E+02  0.15737807922E+02  0.40039264556E+03  0.40122694469E+03  0.00000000000E+00 0.  1.
<mgrwt>
<rscale>  2 0.97549694E+02</rscale>
<asrwt>0</asrwt>
<pdfrwt beam="1">  1       21 0.12124665E+00 0.97549694E+02</pdfrwt>
<pdfrwt beam="2">  1       21 0.63023069E-02 0.97549694E+02</pdfrwt>
<totfact> 0.97723698E+04</totfact>
</mgrwt>
</event>
<event>
 5    1  0.1595802E+000  0.1102732E+03  0.7546771E-02  0.1260065E+00
         21   -1    0    0  503  502  0.00000000000E+00  0.00000000000E+00  0.44951534130E+02  0.44951534130E+02  0.00000000000E+00 0.  1.
         21   -1    0    0  501  503 -0.00000000000E+00 -0.00000000000E+00 -0.43809112266E+03  0.43809112266E+03  0.00000000000E+00 0. -1.
         24    1    1    2    0    0 -0.81107527254E+02 -0.13096909287E+01 -0.61740922690E+02  0.12984338164E+03  0.80419002446E+02 0.  1.
          1    1    1    2  501    0  0.63686042653E+02  0.31815965991E+02 -0.29137006551E+03  0.29994113222E+03  0.00000000000E+00 0. -1.
         -2    1    1    2    0  502  0.17421484600E+02 -0.30506275063E+02 -0.40028600334E+02  0.53258142932E+02  0.00000000000E+00 0.  1.
<mgrwt>
<rscale>  2 0.11027323E+03</rscale>
<asrwt>0</asrwt>
<pdfrwt beam="1">  1       21 0.69156206E-02 0.11027323E+03</pdfrwt>
<pdfrwt beam="2">  1       21 0.67398634E-01 0.11027323E+03</pdfrwt>
<totfact> 0.31662064E+05</totfact>
</mgrwt>
</event>
<event>
 5    1  0.1595802E+000  0.7399636E+02  0.7546771E-02  0.1347007E+00
         21   -1    0    0  503  502  0.00000000000E+00  0.00000000000E+00  0.74931061970E+02  0.74931061970E+02  0.00000000000E+00 0. -1.
         21   -1    0    0  501  503 -0.00000000000E+00 -0.00000000000E+00 -0.98544439516E+02  0.98544439516E+02  0.00000000000E+00 0.  1.
         24    1    1    2    0    0 -0.23132657162E+02 -0.90479885518E+00 -0.17028887211E+02  0.85399867929E+02  0.80419002446E+02 0.  0.
          1    1    1    2  501    0 -0.15553396685E+02 -0.15798552664E+02 -0.31952779166E+02  0.38890648120E+02  0.00000000000E+00 0. -1.
         -2    1    1    2    0  502  0.38686053847E+02  0.16703351519E+02  0.25368288832E+02  0.49184985437E+02  0.00000000000E+00 0.  1.
<mgrwt>
<rscale>  2 0.73996363E+02</rscale>
<asrwt>0</asrwt>
<pdfrwt beam="1">  1       21 0.11527856E-01 0.73996363E+02</pdfrwt>
<pdfrwt beam="2">  1       21 0.15160683E-01 0.73996363E+02</pdfrwt>
<totfact> 0.23519295E+06</totfact>
</mgrwt>
</event>
<event>
 5    1  0.1595802E+000  0.7270629E+02  0.7546771E-02  0.1351125E+00
         21   -1    0    0  501  502  0.00000000000E+00  0.00000000000E+00  0.75209995374E+03  0.75209995374E+03  0.00000000000E+00 0.  1.
         21   -1    0    0  502  503 -0.00000000000E+00 -0.00000000000E+00 -0.95811368917E+01  0.95811368917E+01  0.00000000000E+00 0.  1.
         24    1    1    2    0    0  0.25292802350E+02 -0.20655323866E+02  0.47543119519E+03  0.48328915316E+03  0.80419002446E+02 0.  1.
          1    1    1    2  501    0  0.70305953316E+00  0.30728902678E+02  0.22973495322E+03  0.23178202795E+03  0.00000000000E+00 0. -1.
         -2    1    1    2    0  503 -0.25995861883E+02 -0.10073578811E+02  0.37352668450E+02  0.46609909520E+02  0.00000000000E+00 0.  1.
<mgrwt>
<rscale>  2 0.72706291E+02</rscale>
<asrwt>0</asrwt>
<pdfrwt beam="1">  1       21 0.11570764E+00 0.72706291E+02</pdfrwt>
<pdfrwt beam="2">  1       21 0.14740217E-02 0.72706291E+02</pdfrwt>
<totfact> 0.11680465E+06</totfact>
</mgrwt>
</event>
<event>
 5    1  0.1595802E+000  0.8229468E+02  0.7546771E-02  0.1322663E+00
         21   -1    0    0  501  502  0.00000000000E+00  0.00000000000E+00  0.10684545162E+03  0.10684545162E+03  0.00000000000E+00 0. -1.
         21   -1    0    0  502  503 -0.00000000000E+00 -0.00000000000E+00 -0.14009268579E+03  0.14009268579E+03  0.00000000000E+00 0.  1.
         24    1    1    2    0    0  0.12414775548E+02 -0.26861296973E+02 -0.35665720155E+02  0.92816568971E+02  0.80419002446E+02 0.  0.
          1    1    1    2  501    0  0.30861085464E+02  0.97772912705E+01  0.67067222986E+02  0.74471567861E+02  0.00000000000E+00 0. -1.
         -2    1    1    2    0  503 -0.43275861012E+02  0.17084005703E+02 -0.64648736995E+02  0.79650000579E+02  0.00000000000E+00 0.  1.
<mgrwt>
<rscale>  2 0.82294681E+02</rscale>
<asrwt>0</asrwt>
<pdfrwt beam="1">  1       21 0.16437762E-01 0.82294681E+02</pdfrwt>
<pdfrwt beam="2">  1       21 0.21552721E-01 0.82294681E+02</pdfrwt>
<totfact> 0.66787757E+05</totfact>
</mgrwt>
</event>
<event>
 5    1  0.1595802E+000  0.8034320E+02  0.7546771E-02  0.1328080E+00
         21   -1    0    0  501  502  0.00000000000E+00  0.00000000000E+00  0.63780586168E+02  0.63780586168E+02  0.00000000000E+00 0.  1.
         21   -1    0    0  502  503 -0.00000000000E+00 -0.00000000000E+00 -0.11455940179E+03  0.11455940179E+03  0.00000000000E+00 0.  1.
         24    1    1    2    0    0  0.29327987878E+02 -0.17491961294E+02 -0.50649850403E+02  0.10098872652E+03  0.80419002446E+02 0.  1.
          1    1    1    2  501    0  0.19789386043E+02 -0.31508472732E+01  0.11091779526E+02  0.22903606955E+02  0.00000000000E+00 0. -1.
         -2    1    1    2    0  503 -0.49117373921E+02  0.20642808567E+02 -0.11220744744E+02  0.54447654486E+02  0.00000000000E+00 0.  1.
<mgrwt>
<rscale>  2 0.80343204E+02</rscale>
<asrwt>0</asrwt>
<pdfrwt beam="1">  1       21 0.98123978E-02 0.80343204E+02</pdfrwt>
<pdfrwt beam="2">  1       21 0.17624523E-01 0.80343204E+02</pdfrwt>
<totfact> 0.23842821E+06</totfact>
</mgrwt>
</event>
<event>
 5    1  0.1595802E+000  0.1090128E+03  0.7546771E-02  0.1262409E+00
         21   -1    0    0  503  502  0.00000000000E+00  0.00000000000E+00  0.57254990365E+03  0.57254990365E+03  0.00000000000E+00 0.  1.
         21   -1    0    0  501  503 -0.00000000000E+00 -0.00000000000E+00 -0.35827702456E+02  0.35827702456E+02  0.00000000000E+00 0. -1.
         24    1    1    2    0    0 -0.64792520880E+02  0.15595281314E+02  0.11060563963E+03  0.15212530044E+03  0.80419002446E+02 0. -1.
          1    1    1    2  501    0  0.66074905319E+02 -0.47673565577E+02  0.10199006596E+03  0.13053978521E+03  0.00000000000E+00 0. -1.
         -2    1    1    2    0  502 -0.12823844386E+01  0.32078284262E+02  0.32412649560E+03  0.32571252046E+03  0.00000000000E+00 0.  1.
<mgrwt>
<rscale>  2 0.10901283E+03</rscale>
<asrwt>0</asrwt>
<pdfrwt beam="1">  1       21 0.88084594E-01 0.10901283E+03</pdfrwt>
<pdfrwt beam="2">  1       21 0.55119546E-02 0.10901283E+03</pdfrwt>
<totfact> 0.25738629E+05</totfact>
</mgrwt>
</event>
<event>
 5    1  0.1595802E+000  0.1338359E+03  0.7546771E-02  0.1221872E+00
         21   -1    0    0  503  502  0.00000000000E+00  0.00000000000E+00  0.44744381018E+03  0.44744381018E+03  0.00000000000E+00 0. -1.
         21   -1    0    0  501  503 -0.00000000000E+00 -0.00000000000E+00 -0.42927449598E+02  0.42927449598E+02  0.00000000000E+00 0. -1.
         24    1    1    2    0    0 -0.11049841208E+03  0.22056093808E+02  0.26971031703E+03  0.30316207120E+03  0.80419002446E+02 0. -1.
          1    1    1    2  501    0  0.75549856259E+02  0.16363858116E+02  0.89761279226E+02  0.11845946092E+03  0.00000000000E+00 0. -1.
         -2    1    1    2    0  502  0.34948555823E+02 -0.38419951924E+02  0.45044764325E+02  0.68749727658E+02  0.00000000000E+00 0.  1.
<mgrwt>
<rscale>  2 0.13383587E+03</rscale>
<asrwt>0</asrwt>
<pdfrwt beam="1">  1       21 0.68837506E-01 0.13383587E+03</pdfrwt>
<pdfrwt beam="2">  1       21 0.66042233E-02 0.13383587E+03</pdfrwt>
<totfact> 0.32568035E+05</totfact>
</mgrwt>
</event>
<event>
 5    1  0.1595802E+000  0.7736986E+02  0.7546771E-02  0.1336686E+00
         21   -1    0    0  503  502  0.00000000000E+00  0.00000000000E+00  0.56049749085E+03  0.56049749085E+03  0.00000000000E+00 0. -1.
         21   -1    0    0  501  503 -0.00000000000E+00 -0.00000000000E+00 -0.15102446859E+02  0.15102446859E+02  0.00000000000E+00 0.  1.
         24    1    1    2    0    0  0.40624084954E+02 -0.25872243328E+02  0.17806961671E+03  0.20123541836E+03  0.80419002446E+02 0.  1.
          1    1    1    2  501    0 -0.20789991961E+02  0.33766785579E+02  0.12589888530E+03  0.13199601848E+03  0.00000000000E+00 0. -1.
         -2    1    1    2    0  502 -0.19834092992E+02 -0.78945422507E+01  0.24142654198E+03  0.24236850087E+03  0.00000000000E+00 0.  1.
<mgrwt>
<rscale>  2 0.77369862E+02</rscale>
<asrwt>0</asrwt>
<pdfrwt beam="1">  1       21 0.86230367E-01 0.77369862E+02</pdfrwt>
<pdfrwt beam="2">  1       21 0.23234538E-02 0.77369862E+02</pdfrwt>
<totfact> 0.11153514E+06</totfact>
</mgrwt>
</event>
<event>
 5    1  0.1595802E+000  0.7962807E+02  0.7546771E-02  0.1330110E+00
         21   -1    0    0  501  502  0.00000000000E+00  0.00000000000E+00  0.28809046385E+03  0.28809046385E+03  0.00000000000E+00 0. -1.
         21   -1    0    0  502  503 -0.00000000000E+00 -0.00000000000E+00 -0.32602716581E+03  0.32602716581E+03  0.00000000000E+00 0.  1.
         24    1    1    2    0    0 -0.43042167422E+01  0.20925321822E+02 -0.19088464513E+02  0.85369671470E+02  0.80419002446E+02 0. -1.
          1    1    1    2  501    0  0.24126207484E+01 -0.48424085026E+02  0.25193881457E+03  0.25656164763E+03  0.00000000000E+00 0. -1.
         -2    1    1    2    0  503  0.18915959938E+01  0.27498763204E+02 -0.27078705201E+03  0.27218631055E+03  0.00000000000E+00 0.  1.
<mgrwt>
<rscale>  2 0.79628068E+02</rscale>
<asrwt>0</asrwt>
<pdfrwt beam="1">  1       21 0.44321610E-01 0.79628068E+02</pdfrwt>
<pdfrwt beam="2">  1       21 0.50158026E-01 0.79628068E+02</pdfrwt>
<totfact> 0.20208292E+04</totfact>
</mgrwt>
</event>
<event>
 5    1  0.1595802E+000  0.9081000E+02  0.7546771E-02  0.1300902E+00
         21   -1    0    0  503  502  0.00000000000E+00  0.00000000000E+00  0.17661680966E+03  0.17661680966E+03  0.00000000000E+00 0. -1.
         21   -1    0    0  501  503 -0.00000000000E+00 -0.00000000000E+00 -0.48504862897E+02  0.48504862897E+02  0.00000000000E+00 0. -1.
         24    1    1    2    0    0  0.60332020312E+02 -0.40966071325E+02  0.72090018218E+02  0.13031637793E+03  0.80419002446E+02 0. -1.
          1    1    1    2  501    0 -0.34641006808E+02  0.26143709581E+02  0.19022893717E+02  0.47385265523E+02  0.00000000000E+00 0. -1.
         -2    1    1    2    0  502 -0.25691013504E+02  0.14822361744E+02  0.36999034830E+02  0.47420029111E+02  0.00000000000E+00 0.  1.
<mgrwt>
<rscale>  2 0.90810002E+02</rscale>
<asrwt>0</asrwt>
<pdfrwt beam="1">  1       21 0.27171816E-01 0.90810002E+02</pdfrwt>
<pdfrwt beam="2">  1       21 0.74622867E-02 0.90810002E+02</pdfrwt>
<totfact> 0.17240797E+06</totfact>
</mgrwt>
</event>
<event>
 5    1  0.1595802E+000  0.7439524E+02  0.7546771E-02  0.1345754E+00
         21   -1    0    0  501  502  0.00000000000E+00  0.00000000000E+00  0.61743543828E+02  0.61743543828E+02  0.00000000000E+00 0. -1.
         21   -1    0    0  502  503 -0.00000000000E+00 -0.00000000000E+00 -0.11420899617E+03  0.11420899617E+03  0.00000000000E+00 0. -1.
         24    1    1    2    0    0 -0.24416294058E+02 -0.69404121874E+01 -0.48701452903E+02  0.97382607308E+02  0.80419002446E+02 0.  1.
          1    1    1    2  501    0  0.17716239853E+02 -0.25658332300E+02  0.20559579689E+02  0.37348513866E+02  0.00000000000E+00 0. -1.
         -2    1    1    2    0  503  0.67000542045E+01  0.32598744488E+02 -0.24323579133E+02  0.41221418830E+02  0.00000000000E+00 0.  1.
<mgrwt>
<rscale>  2 0.74395237E+02</rscale>
<asrwt>0</asrwt>
<pdfrwt beam="1">  1       21 0.94990069E-02 0.74395237E+02</pdfrwt>
<pdfrwt beam="2">  1       21 0.17570614E-01 0.74395237E+02</pdfrwt>
<totfact> 0.25255158E+06</totfact>
</mgrwt>
</event>
<event>
 5    1  0.1784243E+000  0.9494910E+02  0.7546771E-02  0.1291291E+00
         21   -1    0    0  501  502  0.00000000000E+00  0.00000000000E+00  0.42695890192E+02  0.42695890192E+02  0.00000000000E+00 0. -1.
         21   -1    0    0  502  503 -0.00000000000E+00 -0.00000000000E+00 -0.85351663311E+03  0.85351663311E+03  0.00000000000E+00 0.  1.
         24    1    1    2    0    0  0.25884114660E+02 -0.32561921898E+02 -0.48448555603E+02  0.10268760706E+03  0.80419002446E+02 0.  0.
          1    1    1    2  501    0 -0.57377610761E+02  0.51540691369E+01 -0.40438046927E+02  0.70384588403E+02  0.00000000000E+00 0. -1.
         -2    1    1    2    0  503  0.31493496101E+02  0.27407852762E+02 -0.72193414039E+03  0.72314032784E+03  0.00000000000E+00 0.  1.
<mgrwt>
<rscale>  2 0.94949100E+02</rscale>
<asrwt>0</asrwt>
<pdfrwt beam="1">  1       21 0.65685985E-02 0.94949100E+02</pdfrwt>
<pdfrwt beam="2">  1       21 0.13131025E+00 0.94949100E+02</pdfrwt>
<totfact> 0.75119014E+04</totfact>
</mgrwt>
</event>
<event>
 5    1  0.1595802E+000  0.1163665E+03  0.7546771E-02  0.1249215E+00
         21   -1    0    0  503  502  0.00000000000E+00  0.00000000000E+00  0.19037764164E+03  0.19037764164E+03  0.00000000000E+00 0.  1.
         21   -1    0    0  501  503 -0.00000000000E+00 -0.00000000000E+00 -0.13099502672E+03  0.13099502672E+03  0.00000000000E+00 0. -1.
         24    1    1    2    0    0 -0.34508255852E+02 -0.77249827716E+02  0.17202523164E+02  0.11798939936E+03  0.80419002446E+02 0.  1.
          1    1    1    2  501    0  0.34056428189E+02 -0.44121725274E+01 -0.62081738591E+02  0.70946809892E+02  0.00000000000E+00 0. -1.
         -2    1    1    2    0  502  0.45182766263E+00  0.81662000243E+02  0.10426183035E+03  0.13243645910E+03  0.00000000000E+00 0.  1.
<mgrwt>
<rscale>  2 0.11636646E+03</rscale>
<asrwt>0</asrwt>
<pdfrwt beam="1">  1       21 0.29288868E-01 0.11636646E+03</pdfrwt>
<pdfrwt beam="2">  1       21 0.20153081E-01 0.11636646E+03</pdfrwt>
<totfact> 0.25855554E+05</totfact>
</mgrwt>
</event>
<event>
 5    1  0.1595802E+000  0.1127019E+03  0.7546771E-02  0.1255647E+00
         21   -1    0    0  503  502  0.00000000000E+00  0.00000000000E+00  0.64235917057E+03  0.64235917057E+03  0.00000000000E+00 0.  1.
         21   -1    0    0  501  503 -0.00000000000E+00 -0.00000000000E+00 -0.23878180353E+02  0.23878180353E+02  0.00000000000E+00 0. -1.
         24    1    1    2    0    0  0.21664558058E+02  0.89493842715E+02  0.42116553895E+03  0.43855002920E+03  0.80419002446E+02 0.  1.
          1    1    1    2  501    0 -0.35416775502E+02 -0.49549685193E+02  0.66297916290E+02  0.90027401351E+02  0.00000000000E+00 0. -1.
         -2    1    1    2    0  502  0.13752217444E+02 -0.39944157522E+02  0.13101753497E+03  0.13765992037E+03  0.00000000000E+00 0.  1.
<mgrwt>
<rscale>  2 0.11270186E+03</rscale>
<asrwt>0</asrwt>
<pdfrwt beam="1">  1       21 0.98824475E-01 0.11270186E+03</pdfrwt>
<pdfrwt beam="2">  1       21 0.36735667E-02 0.11270186E+03</pdfrwt>
<totfact> 0.38814493E+05</totfact>
</mgrwt>
</event>
<event>
 5    1  0.1595802E+000  0.7388921E+02  0.7546771E-02  0.1347346E+00
         21   -1    0    0  503  502  0.00000000000E+00  0.00000000000E+00  0.59697277810E+02  0.59697277810E+02  0.00000000000E+00 0.  1.
         21   -1    0    0  501  503 -0.00000000000E+00 -0.00000000000E+00 -0.11979010283E+03  0.11979010283E+03  0.00000000000E+00 0. -1.
         24    1    1    2    0    0  0.20149314997E+02 -0.36429489663E+02 -0.76892831804E+02  0.11879741642E+03  0.80419002446E+02 0.  0.
          1    1    1    2  501    0  0.99958970912E+01  0.21223370194E+02  0.12705828720E+02  0.26679345654E+02  0.00000000000E+00 0. -1.
         -2    1    1    2    0  502 -0.30145212088E+02  0.15206119468E+02  0.40941780624E+01  0.34010618564E+02  0.00000000000E+00 0.  1.
<mgrwt>
<rscale>  2 0.73889215E+02</rscale>
<asrwt>0</asrwt>
<pdfrwt beam="1">  1       21 0.91841967E-02 0.73889215E+02</pdfrwt>
<pdfrwt beam="2">  1       21 0.18429246E-01 0.73889215E+02</pdfrwt>
<totfact> 0.24544299E+06</totfact>
</mgrwt>
</event>
<event>
 5    1  0.1595802E+000  0.8205966E+02  0.7546771E-02  0.1323306E+00
         21   -1    0    0  501  502  0.00000000000E+00  0.00000000000E+00  0.19024353683E+02  0.19024353683E+02  0.00000000000E+00 0. -1.
         21   -1    0    0  502  503 -0.00000000000E+00 -0.00000000000E+00 -0.89108822056E+03  0.89108822056E+03  0.00000000000E+00 0. -1.
         24    1    1    2    0    0  0.35108342183E+02  0.75917175697E+00 -0.57786098608E+03  0.58448584861E+03  0.80419002446E+02 0. -1.
          1    1    1    2  501    0  0.13112145857E+02 -0.20440920441E+02  0.24760788782E+01  0.24410869793E+02  0.00000000000E+00 0. -1.
         -2    1    1    2    0  503 -0.48220488039E+02  0.19681748684E+02 -0.29667895967E+03  0.30121585584E+03  0.00000000000E+00 0.  1.
<mgrwt>
<rscale>  2 0.82059660E+02</rscale>
<asrwt>0</asrwt>
<pdfrwt beam="1">  1       21 0.29268239E-02 0.82059660E+02</pdfrwt>
<pdfrwt beam="2">  1       21 0.13709048E+00 0.82059660E+02</pdfrwt>
<totfact> 0.25903737E+05</totfact>
</mgrwt>
</event>
<event>
 5    1  0.1595802E+000  0.6811551E+02  0.7546771E-02  0.1366621E+00
         21   -1    0    0  503  502  0.00000000000E+00  0.00000000000E+00  0.10470178196E+04  0.10470178196E+04  0.00000000000E+00 0. -1.
         21   -1    0    0  501  503 -0.00000000000E+00 -0.00000000000E+00 -0.10423855158E+02  0.10423855158E+02  0.00000000000E+00 0. -1.
         24    1    1    2    0    0 -0.11877033558E+01  0.17229707812E+02  0.95237134924E+03  0.95591666806E+03  0.80419002446E+02 0. -1.
          1    1    1    2  501    0 -0.13190358707E+02 -0.31235449897E+02  0.36850434265E+02  0.50075876414E+02  0.00000000000E+00 0. -1.
         -2    1    1    2    0  502  0.14378062062E+02  0.14005742086E+02  0.47372180923E+02  0.51449130269E+02  0.00000000000E+00 0.  1.
<mgrwt>
<rscale>  2 0.68115514E+02</rscale>
<asrwt>0</asrwt>
<pdfrwt beam="1">  1       21 0.16107958E+00 0.68115514E+02</pdfrwt>
<pdfrwt beam="2">  1       21 0.16036709E-02 0.68115514E+02</pdfrwt>
<totfact> 0.45303640E+05</totfact>
</mgrwt>
</event>
<event>
 5    1  0.1595802E+000  0.9904280E+02  0.7546771E-02  0.1282322E+00
         21   -1    0    0  501  502  0.00000000000E+00  0.00000000000E+00  0.82136223114E+03  0.82136223114E+03  0.00000000000E+00 0. -1.
         21   -1    0    0  502  503 -0.00000000000E+00 -0.00000000000E+00 -0.14080509492E+02  0.14080509492E+02  0.00000000000E+00 0. -1.
         24    1    1    2    0    0 -0.70180927396E+01 -0.55098452448E+02  0.41020409560E+03  0.42168674284E+03  0.80419002446E+02 0. -1.
          1    1    1    2  501    0 -0.29981440292E+02  0.55798876714E+02  0.33916575710E+03  0.34503016128E+03  0.00000000000E+00 0. -1.
         -2    1    1    2    0  503  0.36999533031E+02 -0.70042426507E+00  0.57911868948E+02  0.68725836508E+02  0.00000000000E+00 0.  1.
<mgrwt>
<rscale>  2 0.99042798E+02</rscale>
<asrwt>0</asrwt>
<pdfrwt beam="1">  1       21 0.12636338E+00 0.99042798E+02</pdfrwt>
<pdfrwt beam="2">  1       21 0.21662329E-02 0.99042798E+02</pdfrwt>
<totfact> 0.51182562E+05</totfact>
</mgrwt>
</event>
<event>
 5    1  0.1595802E+000  0.6375944E+02  0.7546771E-02  0.1382700E+00
         21   -1    0    0  501  502  0.00000000000E+00  0.00000000000E+00  0.22098751144E+03  0.22098751144E+03  0.00000000000E+00 0.  1.
         21   -1    0    0  502  503 -0.00000000000E+00 -0.00000000000E+00 -0.19570920495E+02  0.19570920495E+02  0.00000000000E+00 0. -1.
         24    1    1    2    0    0 -0.32837890429E+01 -0.99868969467E+01  0.98038613610E+02  0.12723720798E+03  0.80419002446E+02 0. -1.
          1    1    1    2  501    0 -0.11559973506E+02  0.23597232908E+02  0.59166455486E+02  0.64738951514E+02  0.00000000000E+00 0. -1.
         -2    1    1    2    0  503  0.14843762548E+02 -0.13610335962E+02  0.44211521851E+02  0.48582272445E+02  0.00000000000E+00 0.  1.
<mgrwt>
<rscale>  2 0.63759441E+02</rscale>
<asrwt>0</asrwt>
<pdfrwt beam="1">  1       21 0.33998077E-01 0.63759441E+02</pdfrwt>
<pdfrwt beam="2">  1       21 0.30109110E-02 0.63759441E+02</pdfrwt>
<totfact> 0.49489401E+06</totfact>
</mgrwt>
</event>
<event>
 5    1  0.1595802E+000  0.8736344E+02  0.7546771E-02  0.1309365E+00
         21   -1    0    0  503  502  0.00000000000E+00  0.00000000000E+00  0.11702515337E+04  0.11702515337E+04  0.00000000000E+00 0.  1.
         21   -1    0    0  501  503 -0.00000000000E+00 -0.00000000000E+00 -0.32123807515E+02  0.32123807515E+02  0.00000000000E+00 0. -1.
         24    1    1    2    0    0 -0.22143935395E+01  0.66838648026E+02  0.35919921585E+03  0.37411709534E+03  0.80419002446E+02 0. -1.
          1    1    1    2  501    0  0.11730212133E+02 -0.37355041975E+02 -0.86277625231E+01  0.40092833821E+02  0.00000000000E+00 0. -1.
         -2    1    1    2    0  502 -0.95158185937E+01 -0.29483606051E+02  0.78755627289E+03  0.78816541208E+03  0.00000000000E+00 0.  1.
<mgrwt>
<rscale>  2 0.87363436E+02</rscale>
<asrwt>0</asrwt>
<pdfrwt beam="1">  1       21 0.18003866E+00 0.87363436E+02</pdfrwt>
<pdfrwt beam="2">  1       21 0.49421251E-02 0.87363436E+02</pdfrwt>
<totfact> 0.54009781E+04</totfact>
</mgrwt>
</event>
<event>
 5    1  0.1595802E+000  0.6879087E+02  0.7546771E-02  0.1364254E+00
         21   -1    0    0  503  502  0.00000000000E+00  0.00000000000E+00  0.15414027010E+03  0.15414027010E+03  0.00000000000E+00 0. -1.
         21   -1    0    0  501  503 -0.00000000000E+00 -0.00000000000E+00 -0.45681470471E+02  0.45681470471E+02  0.00000000000E+00 0.  1.
         24    1    1    2    0    0 -0.30847894199E+02  0.25230004277E+02  0.11170738792E+03  0.14329655322E+03  0.80419002446E+02 0. -1.
          1    1    1    2  501    0  0.87826255274E+01 -0.24195927885E+02 -0.16680277664E+02  0.30672611567E+02  0.00000000000E+00 0. -1.
         -2    1    1    2    0  502  0.22065268671E+02 -0.10340763921E+01  0.13431689365E+02  0.25852575785E+02  0.00000000000E+00 0.  1.
<mgrwt>
<rscale>  2 0.68790866E+02</rscale>
<asrwt>0</asrwt>
<pdfrwt beam="1">  1       21 0.23713887E-01 0.68790866E+02</pdfrwt>
<pdfrwt beam="2">  1       21 0.70279186E-02 0.68790866E+02</pdfrwt>
<totfact> 0.24296769E+06</totfact>
</mgrwt>
</event>
<event>
 5    1  0.1595802E+000  0.9343294E+02  0.7546771E-02  0.1294745E+00
         21   -1    0    0  501  502  0.00000000000E+00  0.00000000000E+00  0.39896774202E+03  0.39896774202E+03  0.00000000000E+00 0. -1.
         21   -1    0    0  502  503 -0.00000000000E+00 -0.00000000000E+00 -0.85226981215E+02  0.85226981215E+02  0.00000000000E+00 0.  1.
         24    1    1    2    0    0 -0.36932910939E+02  0.65963910879E+02  0.21221059026E+03  0.23919830272E+03  0.80419002446E+02 0.  1.
          1    1    1    2  501    0  0.26220505605E+02 -0.35037192900E+02  0.16655008606E+03  0.17220351613E+03  0.00000000000E+00 0. -1.
         -2    1    1    2    0  503  0.10712405335E+02 -0.30926717979E+02 -0.65019915527E+02  0.72792904380E+02  0.00000000000E+00 0.  1.
<mgrwt>
<rscale>  2 0.93432937E+02</rscale>
<asrwt>0</asrwt>
<pdfrwt beam="1">  1       21 0.61379651E-01 0.93432937E+02</pdfrwt>
<pdfrwt beam="2">  1       21 0.13111844E-01 0.93432937E+02</pdfrwt>
<totfact> 0.12819718E+05</totfact>
</mgrwt>
</event>
<event>
 5    1  0.1595802E+000  0.6921483E+02  0.7546771E-02  0.1362784E+00
         21   -1    0    0  503  502  0.00000000000E+00  0.00000000000E+00  0.18757614864E+04  0.18757614864E+04  0.00000000000E+00 0. -1.
         21   -1    0    0  501  503 -0.00000000000E+00 -0.00000000000E+00 -0.39037542564E+01  0.39037542564E+01  0.00000000000E+00 0.  1.
         24    1    1    2    0    0 -0.24110816614E+02 -0.34416549641E+02  0.16483172101E+04  0.16508127306E+04  0.80419002446E+02 0. -1.
          1    1    1    2  501    0  0.53825133992E+01  0.27030800320E+02  0.10210297134E+03  0.10575751686E+03  0.00000000000E+00 0. -1.
         -2    1    1    2    0  502  0.18728303215E+02  0.73857493213E+01  0.12143755071E+03  0.12309499322E+03  0.00000000000E+00 0.  1.
<mgrwt>
<rscale>  2 0.69214827E+02</rscale>
<asrwt>0</asrwt>
<pdfrwt beam="1">  1       21 0.28857797E+00 0.69214827E+02</pdfrwt>
<pdfrwt beam="2">  1       21 0.60057908E-03 0.69214827E+02</pdfrwt>
<totfact> 0.37244119E+05</totfact>
</mgrwt>
</event>
<event>
 5    1  0.1595802E+000  0.1637878E+03  0.7546771E-02  0.1184485E+00
         21   -1    0    0  503  502  0.00000000000E+00  0.00000000000E+00  0.46022009912E+03  0.46022009912E+03  0.00000000000E+00 0.  1.
         21   -1    0    0  501  503 -0.00000000000E+00 -0.00000000000E+00 -0.12068143293E+03  0.12068143293E+03  0.00000000000E+00 0. -1.
         24    1    1    2    0    0  0.40481587360E+02  0.51581354678E+02  0.53912784652E+02  0.11693245644E+03  0.80419002446E+02 0.  1.
          1    1    1    2  501    0 -0.11762278345E+02  0.84205296377E+02 -0.51491541674E+02  0.99399507010E+02  0.00000000000E+00 0. -1.
         -2    1    1    2    0  502 -0.28719309015E+02 -0.13578665105E+03  0.33711742322E+03  0.36456956860E+03  0.00000000000E+00 0.  1.
<mgrwt>
<rscale>  2 0.16378783E+03</rscale>
<asrwt>0</asrwt>
<pdfrwt beam="1">  1       21 0.70803091E-01 0.16378783E+03</pdfrwt>
<pdfrwt beam="2">  1       21 0.18566375E-01 0.16378783E+03</pdfrwt>
<totfact> 0.48599736E+04</totfact>
</mgrwt>
</event>
<event>
 5    1  0.1595802E+000  0.1003882E+03  0.7546771E-02  0.1279482E+00
         21   -1    0    0  501  502  0.00000000000E+00  0.00000000000E+00  0.44091536935E+02  0.44091536935E+02  0.00000000000E+00 0.  1.
         21   -1    0    0  502  503 -0.00000000000E+00 -0.00000000000E+00 -0.25442650761E+03  0.25442650761E+03  0.00000000000E+00 0.  1.
         24    1    1    2    0    0 -0.71177870089E+02 -0.20555109451E+02 -0.68527158364E+02  0.12904258639E+03  0.80419002446E+02 0.  1.
          1    1    1    2  501    0  0.16537972935E+02 -0.18088162047E+02 -0.26071220979E+02  0.35782603571E+02  0.00000000000E+00 0. -1.
         -2    1    1    2    0  503  0.54639897154E+02  0.38643271498E+02 -0.11573659133E+03  0.13369285458E+03  0.00000000000E+00 0.  1.
<mgrwt>
<rscale>  2 0.10038823E+03</rscale>
<asrwt>0</asrwt>
<pdfrwt beam="1">  1       21 0.67833132E-02 0.10038823E+03</pdfrwt>
<pdfrwt beam="2">  1       21 0.39142541E-01 0.10038823E+03</pdfrwt>
<totfact> 0.10037590E+06</totfact>
</mgrwt>
</event>
<event>
 5    1  0.2227969E+000  0.8167299E+02  0.7546771E-02  0.1324370E+00
         21   -1    0    0  501  502  0.00000000000E+00  0.00000000000E+00  0.22270497737E+03  0.22270497737E+03  0.00000000000E+00 0.  1.
         21   -1    0    0  502  503 -0.00000000000E+00 -0.00000000000E+00 -0.45262986183E+03  0.45262986183E+03  0.00000000000E+00 0.  1.
         24    1    1    2    0    0 -0.36920047584E+01  0.12067366890E+02  0.19821323101E+03  0.21427774767E+03  0.80419002446E+02 0.  1.
          1    1    1    2  501    0  0.30791361263E+02 -0.34875153866E+02 -0.18781552690E+02  0.50171017601E+02  0.00000000000E+00 0. -1.
         -2    1    1    2    0  503 -0.27099356505E+02  0.22807786977E+02 -0.40935656278E+03  0.41088607394E+03  0.00000000000E+00 0.  1.
<mgrwt>
<rscale>  2 0.81672989E+02</rscale>
<asrwt>0</asrwt>
<pdfrwt beam="1">  1       21 0.34262305E-01 0.81672989E+02</pdfrwt>
<pdfrwt beam="2">  1       21 0.69635362E-01 0.81672989E+02</pdfrwt>
<totfact> 0.16844520E+04</totfact>
</mgrwt>
</event>
<event>
 5    1  0.1595802E+000  0.1395982E+03  0.7546771E-02  0.1213871E+00
         21   -1    0    0  501  502  0.00000000000E+00  0.00000000000E+00  0.22542994403E+03  0.22542994403E+03  0.00000000000E+00 0. -1.
         21   -1    0    0  502  503 -0.00000000000E+00 -0.00000000000E+00 -0.16124689347E+03  0.16124689347E+03  0.00000000000E+00 0.  1.
         24    1    1    2    0    0 -0.18318407851E+02  0.76511416345E+02 -0.26486154640E+02  0.11557808287E+03  0.80419002446E+02 0.  0.
          1    1    1    2  501    0 -0.16640555374E+02 -0.11413167228E+03  0.15219163411E+03  0.19095873950E+03  0.00000000000E+00 0. -1.
         -2    1    1    2    0  503  0.34958963225E+02  0.37620255934E+02 -0.61522428902E+02  0.80140015126E+02  0.00000000000E+00 0.  1.
<mgrwt>
<rscale>  2 0.13959824E+03</rscale>
<asrwt>0</asrwt>
<pdfrwt beam="1">  1       21 0.34681530E-01 0.13959824E+03</pdfrwt>
<pdfrwt beam="2">  1       21 0.24807214E-01 0.13959824E+03</pdfrwt>
<totfact> 0.12547509E+05</totfact>
</mgrwt>
</event>
<event>
 5    1  0.1595802E+000  0.7394549E+02  0.7546771E-02  0.1347168E+00
         21   -1    0    0  503  502  0.00000000000E+00  0.00000000000E+00  0.39798115641E+03  0.39798115641E+03  0.00000000000E+00 0. -1.
         21   -1    0    0  501  503 -0.00000000000E+00 -0.00000000000E+00 -0.26910269451E+02  0.26910269451E+02  0.00000000000E+00 0. -1.
         24    1    1    2    0    0  0.37059211758E+01  0.28717014267E+02  0.25243879265E+03  0.26651634236E+03  0.80419002446E+02 0. -1.
          1    1    1    2  501    0 -0.28878552744E+02 -0.84175236480E+01 -0.50800792594E+01  0.30506273425E+02  0.00000000000E+00 0. -1.
         -2    1    1    2    0  502  0.25172631569E+02 -0.20299490619E+02  0.12371217357E+03  0.12786881007E+03  0.00000000000E+00 0.  1.
<mgrwt>
<rscale>  2 0.73945489E+02</rscale>
<asrwt>0</asrwt>
<pdfrwt beam="1">  1       21 0.61227866E-01 0.73945489E+02</pdfrwt>
<pdfrwt beam="2">  1       21 0.41400417E-02 0.73945489E+02</pdfrwt>
<totfact> 0.91562607E+05</totfact>
</mgrwt>
</event>
<event>
 5    1  0.1595802E+000  0.8105974E+02  0.7546771E-02  0.1326071E+00
         21   -1    0    0  503  502  0.00000000000E+00  0.00000000000E+00  0.14272360935E+02  0.14272360935E+02  0.00000000000E+00 0.  1.
         21   -1    0    0  501  503 -0.00000000000E+00 -0.00000000000E+00 -0.46615188750E+03  0.46615188750E+03  0.00000000000E+00 0.  1.
         24    1    1    2    0    0 -0.22523575937E+02 -0.51836427637E+02 -0.26005089391E+03  0.27800721228E+03  0.80419002446E+02 0.  1.
          1    1    1    2  501    0 -0.29347880059E+01  0.30410346202E+02 -0.10762097309E+03  0.11187348205E+03  0.00000000000E+00 0. -1.
         -2    1    1    2    0  502  0.25458363943E+02  0.21426081435E+02 -0.84207659569E+02  0.90543554107E+02  0.00000000000E+00 0.  1.
<mgrwt>
<rscale>  2 0.81059736E+02</rscale>
<asrwt>0</asrwt>
<pdfrwt beam="1">  1       21 0.21957478E-02 0.81059736E+02</pdfrwt>
<pdfrwt beam="2">  1       21 0.71715677E-01 0.81059736E+02</pdfrwt>
<totfact> 0.18315349E+06</totfact>
</mgrwt>
</event>
<event>
 5    1  0.1595802E+000  0.6484731E+02  0.7546771E-02  0.1378547E+00
         21   -1    0    0  501  502  0.00000000000E+00  0.00000000000E+00  0.67419876731E+03  0.67419876731E+03  0.00000000000E+00 0.  1.
         21   -1    0    0  502  503 -0.00000000000E+00 -0.00000000000E+00 -0.71325159112E+01  0.71325159112E+01  0.00000000000E+00 0. -1.
         24    1    1    2    0    0  0.98103020189E+01  0.15018024325E+02  0.29904996337E+03  0.31019329398E+03  0.80419002446E+02 0. -1.
          1    1    1    2  501    0 -0.24072548932E+02  0.30669398089E+01  0.22102386089E+03  0.22235206501E+03  0.00000000000E+00 0. -1.
         -2    1    1    2    0  503  0.14262246913E+02 -0.18084964134E+02  0.14699242714E+03  0.14878592423E+03  0.00000000000E+00 0.  1.
<mgrwt>
<rscale>  2 0.64847307E+02</rscale>
<asrwt>0</asrwt>
<pdfrwt beam="1">  1       21 0.10372284E+00 0.64847307E+02</pdfrwt>
<pdfrwt beam="2">  1       21 0.10973107E-02 0.64847307E+02</pdfrwt>
<totfact> 0.23839004E+06</totfact>
</mgrwt>
</event>
<event>
 5    1  0.1595802E+000  0.7330367E+02  0.7546771E-02  0.1349206E+00
         21   -1    0    0  503  502  0.00000000000E+00  0.00000000000E+00  0.79498943858E+02  0.79498943858E+02  0.00000000000E+00 0. -1.
         21   -1    0    0  501  503 -0.00000000000E+00 -0.00000000000E+00 -0.82072564636E+02  0.82072564636E+02  0.00000000000E+00 0.  1.
         24    1    1    2    0    0 -0.32184976574E+02  0.31805283182E+02 -0.28675729921E+02  0.96627957633E+02  0.80419002446E+02 0.  0.
          1    1    1    2  501    0  0.26667518055E+02 -0.52110959517E+01 -0.14622216767E+00  0.27172291423E+02  0.00000000000E+00 0. -1.
         -2    1    1    2    0  502  0.55174585190E+01 -0.26594187230E+02  0.26248331311E+02  0.37771259438E+02  0.00000000000E+00 0.  1.
<mgrwt>
<rscale>  2 0.73303673E+02</rscale>
<asrwt>0</asrwt>
<pdfrwt beam="1">  1       21 0.12230607E-01 0.73303673E+02</pdfrwt>
<pdfrwt beam="2">  1       21 0.12626548E-01 0.73303673E+02</pdfrwt>
<totfact> 0.29273722E+06</totfact>
</mgrwt>
</event>
<event>
 5    1  0.1595802E+000  0.9867279E+02  0.7546771E-02  0.1283112E+00
         21   -1    0    0  501  502  0.00000000000E+00  0.00000000000E+00  0.51905268008E+02  0.51905268008E+02  0.00000000000E+00 0. -1.
         21   -1    0    0  502  503 -0.00000000000E+00 -0.00000000000E+00 -0.66158265348E+03  0.66158265348E+03  0.00000000000E+00 0.  1.
         24    1    1    2    0    0 -0.43414983618E+02  0.59037420551E+02 -0.18513723665E+03  0.21474005257E+03  0.80419002446E+02 0.  1.
          1    1    1    2  501    0  0.22169974613E+02  0.35482205106E+01  0.31089694521E+02  0.38349273117E+02  0.00000000000E+00 0. -1.
         -2    1    1    2    0  503  0.21245009004E+02 -0.62585641062E+02 -0.45562984333E+03  0.46039859580E+03  0.00000000000E+00 0.  1.
<mgrwt>
<rscale>  2 0.98672790E+02</rscale>
<asrwt>0</asrwt>
<pdfrwt beam="1">  1       21 0.79854261E-02 0.98672790E+02</pdfrwt>
<pdfrwt beam="2">  1       21 0.10178194E+00 0.98672790E+02</pdfrwt>
<totfact> 0.98913009E+04</totfact>
</mgrwt>
</event>
<event>
 5    1  0.1595802E+000  0.7993336E+02  0.7546771E-02  0.1329241E+00
         21   -1    0    0  501  502  0.00000000000E+00  0.00000000000E+00  0.20428878573E+03  0.20428878573E+03  0.00000000000E+00 0. -1.
         21   -1    0    0  502  503 -0.00000000000E+00 -0.00000000000E+00 -0.73355078170E+02  0.73355078170E+02  0.00000000000E+00 0. -1.
         24    1    1    2    0    0 -0.56614195398E+02 -0.18627219830E+02 -0.15390556888E+02  0.10127302521E+03  0.80419002446E+02 0. -1.
          1    1    1    2  501    0  0.36232951575E+02  0.14182154484E+02  0.15019611098E+03  0.15515422018E+03  0.00000000000E+00 0. -1.
         -2    1    1    2    0  503  0.20381243823E+02  0.44450653455E+01 -0.38718465311E+01  0.21216618516E+02  0.00000000000E+00 0.  1.
<mgrwt>
<rscale>  2 0.79933358E+02</rscale>
<asrwt>0</asrwt>
<pdfrwt beam="1">  1       21 0.31429044E-01 0.79933358E+02</pdfrwt>
<pdfrwt beam="2">  1       21 0.11285397E-01 0.79933358E+02</pdfrwt>
<totfact> 0.63981773E+05</totfact>
</mgrwt>
</event>
<event>
 5    1  0.1595802E+000  0.6989305E+02  0.7546771E-02  0.1360457E+00
         21   -1    0    0  501  502  0.00000000000E+00  0.00000000000E+00  0.10990453859E+03  0.10990453859E+03  0.00000000000E+00 0. -1.
         21   -1    0    0  502  503 -0.00000000000E+00 -0.00000000000E+00 -0.50728654649E+02  0.50728654649E+02  0.00000000000E+00 0.  1.
         24    1    1    2    0    0 -0.10637558063E+02 -0.35876391042E+00  0.14235060208E+02  0.82359815727E+02  0.80419002446E+02 0.  1.
          1    1    1    2  501    0 -0.14021717126E+02 -0.21529828073E+02  0.35784533511E+02  0.44053091681E+02  0.00000000000E+00 0. -1.
         -2    1    1    2    0  503  0.24659275189E+02  0.21888591984E+02  0.91562902250E+01  0.34220285834E+02  0.00000000000E+00 0.  1.
<mgrwt>
<rscale>  2 0.69893047E+02</rscale>
<asrwt>0</asrwt>
<pdfrwt beam="1">  1       21 0.16908390E-01 0.69893047E+02</pdfrwt>
<pdfrwt beam="2">  1       21 0.78044084E-02 0.69893047E+02</pdfrwt>
<totfact> 0.37676089E+06</totfact>
</mgrwt>
</event>
<event>
 5    1  0.1595802E+000  0.1053381E+03  0.7546771E-02  0.1269455E+00
         21   -1    0    0  501  502  0.00000000000E+00  0.00000000000E+00  0.57976906968E+02  0.57976906968E+02  0.00000000000E+00 0. -1.
         21   -1    0    0  502  503 -0.00000000000E+00 -0.00000000000E+00 -0.22122580431E+03  0.22122580431E+03  0.00000000000E+00 0. -1.
         24    1    1    2    0    0 -0.51480618262E+01 -0.64766112195E+02 -0.84508983033E+02  0.13352953230E+03  0.80419002446E+02 0. -1.
          1    1    1    2  501    0 -0.31783650500E+02  0.62707769934E+02 -0.14858512765E+02  0.71855690455E+02  0.00000000000E+00 0. -1.
         -2    1    1    2    0  503  0.36931712326E+02  0.20583422610E+01 -0.63881401541E+02  0.73817488518E+02  0.00000000000E+00 0.  1.
<mgrwt>
<rscale>  2 0.10533813E+03</rscale>
<asrwt>0</asrwt>
<pdfrwt beam="1">  1       21 0.89195240E-02 0.10533813E+03</pdfrwt>
<pdfrwt beam="2">  1       21 0.34034740E-01 0.10533813E+03</pdfrwt>
<totfact> 0.82713204E+05</totfact>
</mgrwt>
</event>
<event>
 5    1  0.1595802E+000  0.1283765E+03  0.7546771E-02  0.1229885E+00
         21   -1    0    0  503  502  0.00000000000E+00  0.00000000000E+00  0.28747327368E+03  0.28747327368E+03  0.00000000000E+00 0.  1.
         21   -1    0    0  501  503 -0.00000000000E+00 -0.00000000000E+00 -0.84914478326E+02  0.84914478326E+02  0.00000000000E+00 0. -1.
         24    1    1    2    0    0 -0.43854877563E+02 -0.48178135448E+02  0.42560402472E+02  0.11190615191E+03  0.80419002446E+02 0. -1.
          1    1    1    2  501    0  0.92844450743E+02  0.14899092324E+02  0.45599108571E+01  0.94142805210E+02  0.00000000000E+00 0. -1.
         -2    1    1    2    0  502 -0.48989573179E+02  0.33279043123E+02  0.15543848203E+03  0.16633879489E+03  0.00000000000E+00 0.  1.
<mgrwt>
<rscale>  2 0.12837654E+03</rscale>
<asrwt>0</asrwt>
<pdfrwt beam="1">  1       21 0.44226657E-01 0.12837654E+03</pdfrwt>
<pdfrwt beam="2">  1       21 0.13063766E-01 0.12837654E+03</pdfrwt>
<totfact> 0.25125647E+05</totfact>
</mgrwt>
</event>
<event>
 5    1  0.1595802E+000  0.7905822E+02  0.7546771E-02  0.1331745E+00
         21   -1    0    0  501  502  0.00000000000E+00  0.00000000000E+00  0.40495410160E+02  0.40495410160E+02  0.00000000000E+00 0. -1.
         21   -1    0    0  502  503 -0.00000000000E+00 -0.00000000000E+00 -0.13664593224E+04  0.13664593224E+04  0.00000000000E+00 0.  1.
         24    1    1    2    0    0  0.48463216748E+02 -0.26100012216E+02 -0.92004022730E+03  0.92518707829E+03  0.80419002446E+02 0.  1.
          1    1    1    2  501    0 -0.22983511191E+02 -0.15847133335E+01  0.33543370963E+02  0.40692884373E+02  0.00000000000E+00 0. -1.
         -2    1    1    2    0  503 -0.25479705557E+02  0.27684725550E+02 -0.43946705588E+03  0.44107476989E+03  0.00000000000E+00 0.  1.
<mgrwt>
<rscale>  2 0.79058223E+02</rscale>
<asrwt>0</asrwt>
<pdfrwt beam="1">  1       21 0.62300630E-02 0.79058223E+02</pdfrwt>
<pdfrwt beam="2">  1       21 0.21022451E+00 0.79058223E+02</pdfrwt>
<totfact> 0.24069103E+04</totfact>
</mgrwt>
</event>
<event>
 5    1  0.1595802E+000  0.7459862E+02  0.7546771E-02  0.1345118E+00
         21   -1    0    0  503  502  0.00000000000E+00  0.00000000000E+00  0.84913681211E+03  0.84913681211E+03  0.00000000000E+00 0.  1.
         21   -1    0    0  501  503 -0.00000000000E+00 -0.00000000000E+00 -0.10760024430E+02  0.10760024430E+02  0.00000000000E+00 0. -1.
         24    1    1    2    0    0 -0.31311171924E+01 -0.45822581346E+02  0.31997484299E+03  0.33310753363E+03  0.80419002446E+02 0.  0.
          1    1    1    2  501    0  0.17886475408E+02  0.19885794924E+02  0.44291852312E+02  0.51741076752E+02  0.00000000000E+00 0. -1.
         -2    1    1    2    0  502 -0.14755358216E+02  0.25936786422E+02  0.47411009237E+03  0.47504822616E+03  0.00000000000E+00 0.  1.
<mgrwt>
<rscale>  2 0.74598623E+02</rscale>
<asrwt>0</asrwt>
<pdfrwt beam="1">  1       21 0.13063638E+00 0.74598623E+02</pdfrwt>
<pdfrwt beam="2">  1       21 0.16553890E-02 0.74598623E+02</pdfrwt>
<totfact> 0.72683963E+05</totfact>
</mgrwt>
</event>
<event>
 5    1  0.1595802E+000  0.7385065E+02  0.7546771E-02  0.1347468E+00
         21   -1    0    0  501  502  0.00000000000E+00  0.00000000000E+00  0.14908924348E+02  0.14908924348E+02  0.00000000000E+00 0. -1.
         21   -1    0    0  502  503 -0.00000000000E+00 -0.00000000000E+00 -0.81125314624E+03  0.81125314624E+03  0.00000000000E+00 0. -1.
         24    1    1    2    0    0 -0.17284516775E+02 -0.26230491071E+02 -0.49786166167E+03  0.50529223554E+03  0.80419002446E+02 0. -1.
          1    1    1    2  501    0  0.31182269917E+02 -0.55630391813E+00 -0.12986050150E+02  0.33782849639E+02  0.00000000000E+00 0. -1.
         -2    1    1    2    0  503 -0.13897753143E+02  0.26786794989E+02 -0.28549651007E+03  0.28708698541E+03  0.00000000000E+00 0.  1.
<mgrwt>
<rscale>  2 0.73850655E+02</rscale>
<asrwt>0</asrwt>
<pdfrwt beam="1">  1       21 0.22936807E-02 0.73850655E+02</pdfrwt>
<pdfrwt beam="2">  1       21 0.12480818E+00 0.73850655E+02</pdfrwt>
<totfact> 0.48337160E+05</totfact>
</mgrwt>
</event>
<event>
 5    1  0.1699943E+000  0.1371148E+03  0.7546771E-02  0.1217265E+00
         21   -1    0    0  501  502  0.00000000000E+00  0.00000000000E+00  0.90476044091E+02  0.90476044091E+02  0.00000000000E+00 0.  1.
         21   -1    0    0  502  503 -0.00000000000E+00 -0.00000000000E+00 -0.45786851297E+03  0.45786851297E+03  0.00000000000E+00 0. -1.
         24    1    1    2    0    0 -0.52397006605E+02 -0.60059552728E+02 -0.15150142944E+02  0.11423370326E+03  0.80419002446E+02 0.  1.
          1    1    1    2  501    0 -0.30397189996E+02 -0.27147814218E+02  0.18204117430E+02  0.44636116183E+02  0.00000000000E+00 0. -1.
         -2    1    1    2    0  503  0.82794196602E+02  0.87207366946E+02 -0.37044644336E+03  0.38947473762E+03  0.00000000000E+00 0.  1.
<mgrwt>
<rscale>  2 0.13711482E+03</rscale>
<asrwt>0</asrwt>
<pdfrwt beam="1">  1       21 0.13919392E-01 0.13711482E+03</pdfrwt>
<pdfrwt beam="2">  1       21 0.70441309E-01 0.13711482E+03</pdfrwt>
<totfact> 0.84059412E+04</totfact>
</mgrwt>
</event>
<event>
 5    1  0.1595802E+000  0.1052589E+03  0.7546771E-02  0.1269610E+00
         21   -1    0    0  501  502  0.00000000000E+00  0.00000000000E+00  0.13746785663E+03  0.13746785663E+03  0.00000000000E+00 0.  1.
         21   -1    0    0  502  503 -0.00000000000E+00 -0.00000000000E+00 -0.11137801693E+03  0.11137801693E+03  0.00000000000E+00 0.  1.
         24    1    1    2    0    0 -0.60148086629E+02 -0.41920205050E+02 -0.51174484686E+02  0.12025447914E+03  0.80419002446E+02 0.  1.
          1    1    1    2  501    0  0.33811604869E+01  0.44731393018E+02  0.43476421542E+02  0.62470224889E+02  0.00000000000E+00 0. -1.
         -2    1    1    2    0  503  0.56766926143E+02 -0.28111879678E+01  0.33787902844E+02  0.66121169530E+02  0.00000000000E+00 0.  1.
<mgrwt>
<rscale>  2 0.10525894E+03</rscale>
<asrwt>0</asrwt>
<pdfrwt beam="1">  1       21 0.21148901E-01 0.10525894E+03</pdfrwt>
<pdfrwt beam="2">  1       21 0.17135079E-01 0.10525894E+03</pdfrwt>
<totfact> 0.64271159E+05</totfact>
</mgrwt>
</event>
<event>
 5    1  0.1595802E+000  0.8872298E+02  0.7546771E-02  0.1305974E+00
         21   -1    0    0  503  502  0.00000000000E+00  0.00000000000E+00  0.87562680617E+03  0.87562680617E+03  0.00000000000E+00 0. -1.
         21   -1    0    0  501  503 -0.00000000000E+00 -0.00000000000E+00 -0.14248836203E+02  0.14248836203E+02  0.00000000000E+00 0.  1.
         24    1    1    2    0    0 -0.63740065344E+02  0.21131234951E+02  0.21351767338E+03  0.23783678820E+03  0.80419002446E+02 0.  0.
          1    1    1    2  501    0  0.40051918671E+02  0.12729436636E+01  0.30243937086E+03  0.30508252919E+03  0.00000000000E+00 0. -1.
         -2    1    1    2    0  502  0.23688146673E+02 -0.22404178614E+02  0.34542092572E+03  0.34695632497E+03  0.00000000000E+00 0.  1.
<mgrwt>
<rscale>  2 0.88722985E+02</rscale>
<asrwt>0</asrwt>
<pdfrwt beam="1">  1       21 0.13471177E+00 0.88722985E+02</pdfrwt>
<pdfrwt beam="2">  1       21 0.21921293E-02 0.88722985E+02</pdfrwt>
<totfact> 0.43006790E+05</totfact>
</mgrwt>
</event>
<event>
 5    1  0.1595802E+000  0.7818084E+02  0.7546771E-02  0.1334295E+00
         21   -1    0    0  503  502  0.00000000000E+00  0.00000000000E+00  0.13351789571E+03  0.13351789571E+03  0.00000000000E+00 0.  1.
         21   -1    0    0  501  503 -0.00000000000E+00 -0.00000000000E+00 -0.19621094211E+03  0.19621094211E+03  0.00000000000E+00 0.  1.
         24    1    1    2    0    0  0.16639074318E+02 -0.53816312378E+02 -0.90123699372E+02  0.13327622224E+03  0.80419002446E+02 0.  1.
          1    1    1    2  501    0 -0.14158382176E+02  0.21363184840E+02 -0.80101978332E+02  0.84102154461E+02  0.00000000000E+00 0. -1.
         -2    1    1    2    0  502 -0.24806921418E+01  0.32453127537E+02  0.10753263129E+03  0.11235046112E+03  0.00000000000E+00 0.  1.
<mgrwt>
<rscale>  2 0.78180837E+02</rscale>
<asrwt>0</asrwt>
<pdfrwt beam="1">  1       21 0.20541215E-01 0.78180837E+02</pdfrwt>
<pdfrwt beam="2">  1       21 0.30186299E-01 0.78180837E+02</pdfrwt>
<totfact> 0.23773567E+05</totfact>
</mgrwt>
</event>
<event>
 5    1  0.1595802E+000  0.1165423E+03  0.7546771E-02  0.1248913E+00
         21   -1    0    0  501  502  0.00000000000E+00  0.00000000000E+00  0.71959511200E+02  0.71959511200E+02  0.00000000000E+00 0.  1.
         21   -1    0    0  502  503 -0.00000000000E+00 -0.00000000000E+00 -0.39784839658E+03  0.39784839658E+03  0.00000000000E+00 0.  1.
         24    1    1    2    0    0 -0.28762398677E+02 -0.56858001030E+02 -0.13900360246E+02  0.10354005905E+03  0.80419002446E+02 0.  1.
          1    1    1    2  501    0  0.72877042201E+02  0.40899842803E+02 -0.44465563927E+02  0.94662805772E+02  0.00000000000E+00 0. -1.
         -2    1    1    2    0  503 -0.44114643524E+02  0.15958158227E+02 -0.26752296121E+03  0.27160504296E+03  0.00000000000E+00 0.  1.
<mgrwt>
<rscale>  2 0.11654227E+03</rscale>
<asrwt>0</asrwt>
<pdfrwt beam="1">  1       21 0.11070694E-01 0.11654227E+03</pdfrwt>
<pdfrwt beam="2">  1       21 0.61207447E-01 0.11654227E+03</pdfrwt>
<totfact> 0.17223118E+05</totfact>
</mgrwt>
</event>
<event>
 5    1  0.1595802E+000  0.8026652E+02  0.7546771E-02  0.1328297E+00
         21   -1    0    0  501  502  0.00000000000E+00  0.00000000000E+00  0.32409551301E+01  0.32409551301E+01  0.00000000000E+00 0. -1.
         21   -1    0    0  502  503 -0.00000000000E+00 -0.00000000000E+00 -0.23012704607E+04  0.23012704607E+04  0.00000000000E+00 0.  1.
         24    1    1    2    0    0 -0.12835164034E+02 -0.36594967963E+02 -0.12879381311E+04  0.12910289612E+04  0.80419002446E+02 0.  0.
          1    1    1    2  501    0  0.28486268953E+02 -0.30308266037E+01 -0.17707503344E+03  0.17937731433E+03  0.00000000000E+00 0. -1.
         -2    1    1    2    0  503 -0.15651104919E+02  0.39625794567E+02 -0.83301634098E+03  0.83410514027E+03  0.00000000000E+00 0.  1.
<mgrwt>
<rscale>  2 0.80266522E+02</rscale>
<asrwt>0</asrwt>
<pdfrwt beam="1">  1       21 0.49860831E-03 0.80266522E+02</pdfrwt>
<pdfrwt beam="2">  1       21 0.35404173E+00 0.80266522E+02</pdfrwt>
<totfact> 0.21324671E+05</totfact>
</mgrwt>
</event>
<event>
 5    1  0.1595802E+000  0.9394784E+02  0.7546771E-02  0.1293564E+00
         21   -1    0    0  501  502  0.00000000000E+00  0.00000000000E+00  0.35416924397E+03  0.35416924397E+03  0.00000000000E+00 0. -1.
         21   -1    0    0  502  503 -0.00000000000E+00 -0.00000000000E+00 -0.24699289122E+03  0.24699289122E+03  0.00000000000E+00 0.  1.
         24    1    1    2    0    0 -0.59119572557E+02 -0.36715739574E+02  0.92269830901E+02  0.14079810738E+03  0.80419002446E+02 0. -1.
          1    1    1    2  501    0  0.14189388276E+02  0.33639912816E+02  0.23392820094E+03  0.23676018598E+03  0.00000000000E+00 0. -1.
         -2    1    1    2    0  503  0.44930184282E+02  0.30758267580E+01 -0.21902167909E+03  0.22360384183E+03  0.00000000000E+00 0.  1.
<mgrwt>
<rscale>  2 0.93947836E+02</rscale>
<asrwt>0</asrwt>
<pdfrwt beam="1">  1       21 0.54487576E-01 0.93947836E+02</pdfrwt>
<pdfrwt beam="2">  1       21 0.37998906E-01 0.93947836E+02</pdfrwt>
<totfact> 0.22784924E+04</totfact>
</mgrwt>
</event>
<event>
 5    1  0.1595802E+000  0.1178628E+03  0.7546771E-02  0.1246665E+00
         21   -1    0    0  503  502  0.00000000000E+00  0.00000000000E+00  0.18033832759E+03  0.18033832759E+03  0.00000000000E+00 0. -1.
         21   -1    0    0  501  503 -0.00000000000E+00 -0.00000000000E+00 -0.98372420021E+02  0.98372420021E+02  0.00000000000E+00 0. -1.
         24    1    1    2    0    0  0.44373173567E+02 -0.57722873806E+02  0.91684123854E+02  0.14203557024E+03  0.80419002446E+02 0. -1.
          1    1    1    2  501    0 -0.76345561146E+02  0.22319846214E+02 -0.29768700804E+02  0.84929357640E+02  0.00000000000E+00 0. -1.
         -2    1    1    2    0  502  0.31972387578E+02  0.35403027592E+02  0.20050484522E+02  0.51745819732E+02  0.00000000000E+00 0.  1.
<mgrwt>
<rscale>  2 0.11786282E+03</rscale>
<asrwt>0</asrwt>
<pdfrwt beam="1">  1       21 0.27744358E-01 0.11786282E+03</pdfrwt>
<pdfrwt beam="2">  1       21 0.15134218E-01 0.11786282E+03</pdfrwt>
<totfact> 0.48308560E+05</totfact>
</mgrwt>
</event>
<event>
 5    1  0.1595802E+000  0.9732136E+02  0.7546771E-02  0.1286032E+00
         21   -1    0    0  501  502  0.00000000000E+00  0.00000000000E+00  0.53003459761E+03  0.53003459761E+03  0.00000000000E+00 0. -1.
         21   -1    0    0  502  503 -0.00000000000E+00 -0.00000000000E+00 -0.24783448863E+02  0.24783448863E+02  0.00000000000E+00 0.  1.
         24    1    1    2    0    0 -0.33648010577E+02  0.67435525514E+02  0.24919170396E+03  0.27247653109E+03  0.80419002446E+02 0. -1.
          1    1    1    2  501    0  0.12912702179E+02 -0.61528978233E+02  0.25284391638E+03  0.26054289300E+03  0.00000000000E+00 0. -1.
         -2    1    1    2    0  503  0.20735308398E+02 -0.59065472805E+01  0.32155284071E+01  0.21798622389E+02  0.00000000000E+00 0.  1.
<mgrwt>
<rscale>  2 0.97321356E+02</rscale>
<asrwt>0</asrwt>
<pdfrwt beam="1">  1       21 0.81543776E-01 0.97321356E+02</pdfrwt>
<pdfrwt beam="2">  1       21 0.38128387E-02 0.97321356E+02</pdfrwt>
<totfact> 0.56597348E+05</totfact>
</mgrwt>
</event>
<event>
 5    1  0.1595802E+000  0.9689279E+02  0.7546771E-02  0.1286969E+00
         21   -1    0    0  501  502  0.00000000000E+00  0.00000000000E+00  0.66925699383E+03  0.66925699383E+03  0.00000000000E+00 0.  1.
         21   -1    0    0  502  503 -0.00000000000E+00 -0.00000000000E+00 -0.18238083530E+02  0.18238083530E+02  0.00000000000E+00 0. -1.
         24    1    1    2    0    0  0.19767166433E+02 -0.40857882824E+02  0.19420284087E+03  0.21503968660E+03  0.80419002446E+02 0.  0.
          1    1    1    2  501    0 -0.48326093697E+02  0.51814940189E+02  0.41290747404E+03  0.41894245605E+03  0.00000000000E+00 0. -1.
         -2    1    1    2    0  503  0.28558927264E+02 -0.10957057364E+02  0.43908595395E+02  0.53512934718E+02  0.00000000000E+00 0.  1.
<mgrwt>
<rscale>  2 0.96892794E+02</rscale>
<asrwt>0</asrwt>
<pdfrwt beam="1">  1       21 0.10296260E+00 0.96892794E+02</pdfrwt>
<pdfrwt beam="2">  1       21 0.28058595E-02 0.96892794E+02</pdfrwt>
<totfact> 0.54955600E+05</totfact>
</mgrwt>
</event>
<event>
 5    1  0.1595802E+000  0.6269829E+02  0.7546771E-02  0.1386845E+00
         21   -1    0    0  503  502  0.00000000000E+00  0.00000000000E+00  0.13048925585E+04  0.13048925585E+04  0.00000000000E+00 0. -1.
         21   -1    0    0  501  503 -0.00000000000E+00 -0.00000000000E+00 -0.43954740500E+01  0.43954740500E+01  0.00000000000E+00 0.  1.
         24    1    1    2    0    0  0.71601443296E+01 -0.36078206426E+01  0.76987842645E+03  0.77410870781E+03  0.80419002446E+02 0. -1.
          1    1    1    2  501    0 -0.15543267840E+02 -0.16575930458E+02  0.61696092063E+02  0.65747717995E+02  0.00000000000E+00 0. -1.
         -2    1    1    2    0  502  0.83831235103E+01  0.20183751100E+02  0.46892256594E+03  0.46943160675E+03  0.00000000000E+00 0.  1.
<mgrwt>
<rscale>  2 0.62698291E+02</rscale>
<asrwt>0</asrwt>
<pdfrwt beam="1">  1       21 0.20075239E+00 0.62698291E+02</pdfrwt>
<pdfrwt beam="2">  1       21 0.67622782E-03 0.62698291E+02</pdfrwt>
<totfact> 0.96349945E+05</totfact>
</mgrwt>
</event>
<event>
 5    1  0.1595802E+000  0.8650367E+02  0.7546771E-02  0.1311546E+00
         21   -1    0    0  503  502  0.00000000000E+00  0.00000000000E+00  0.92669907187E+02  0.92669907187E+02  0.00000000000E+00 0.  1.
         21   -1    0    0  501  503 -0.00000000000E+00 -0.00000000000E+00 -0.19423405472E+03  0.19423405472E+03  0.00000000000E+00 0.  1.
         24    1    1    2    0    0 -0.64746768901E+02  0.99462929758E+01 -0.50174957242E+02  0.11522072346E+03  0.80419002446E+02 0.  1.
          1    1    1    2  501    0  0.19657273751E+02 -0.13820638546E+02 -0.10141602642E+03  0.10422393619E+03  0.00000000000E+00 0. -1.
         -2    1    1    2    0  502  0.45089495150E+02  0.38743455700E+01  0.50026836130E+02  0.67459302247E+02  0.00000000000E+00 0.  1.
<mgrwt>
<rscale>  2 0.86503673E+02</rscale>
<asrwt>0</asrwt>
<pdfrwt beam="1">  1       21 0.14256909E-01 0.86503673E+02</pdfrwt>
<pdfrwt beam="2">  1       21 0.29882162E-01 0.86503673E+02</pdfrwt>
<totfact> 0.46731047E+05</totfact>
</mgrwt>
</event>
<event>
 5    1  0.1595802E+000  0.8100143E+02  0.7546771E-02  0.1326233E+00
         21   -1    0    0  503  502  0.00000000000E+00  0.00000000000E+00  0.25906517406E+03  0.25906517406E+03  0.00000000000E+00 0. -1.
         21   -1    0    0  501  503 -0.00000000000E+00 -0.00000000000E+00 -0.57485267107E+02  0.57485267107E+02  0.00000000000E+00 0.  1.
         24    1    1    2    0    0 -0.43710903920E+02 -0.16479743517E+01  0.21657304265E+03  0.23512647171E+03  0.80419002446E+02 0. -1.
          1    1    1    2  501    0  0.61463292943E+01 -0.24128774430E+02 -0.24447850543E+02  0.34895164643E+02  0.00000000000E+00 0. -1.
         -2    1    1    2    0  502  0.37564574626E+02  0.25776748781E+02  0.94547148423E+01  0.46528804813E+02  0.00000000000E+00 0.  1.
<mgrwt>
<rscale>  2 0.81001426E+02</rscale>
<asrwt>0</asrwt>
<pdfrwt beam="1">  1       21 0.39856180E-01 0.81001426E+02</pdfrwt>
<pdfrwt beam="2">  1       21 0.88438874E-02 0.81001426E+02</pdfrwt>
<totfact> 0.61477169E+05</totfact>
</mgrwt>
</event>
<event>
 5    1  0.1595802E+000  0.7757729E+02  0.7546771E-02  0.1336071E+00
         21   -1    0    0  503  502  0.00000000000E+00  0.00000000000E+00  0.47594675223E+02  0.47594675223E+02  0.00000000000E+00 0.  1.
         21   -1    0    0  501  503 -0.00000000000E+00 -0.00000000000E+00 -0.21632808947E+03  0.21632808947E+03  0.00000000000E+00 0. -1.
         24    1    1    2    0    0  0.78814647035E+01  0.20742733270E+02 -0.13964135150E+03  0.16266315339E+03  0.80419002446E+02 0. -1.
          1    1    1    2  501    0 -0.32365766669E+02 -0.31338641193E+02 -0.50045240873E+02  0.67336315744E+02  0.00000000000E+00 0. -1.
         -2    1    1    2    0  502  0.24484301966E+02  0.10595907923E+02  0.20953178127E+02  0.33923295552E+02  0.00000000000E+00 0.  1.
<mgrwt>
<rscale>  2 0.77577291E+02</rscale>
<asrwt>0</asrwt>
<pdfrwt beam="1">  1       21 0.73222576E-02 0.77577291E+02</pdfrwt>
<pdfrwt beam="2">  1       21 0.33281245E-01 0.77577291E+02</pdfrwt>
<totfact> 0.12034703E+06</totfact>
</mgrwt>
</event>
<event>
 5    1  0.1595802E+000  0.6665611E+02  0.7546771E-02  0.1371848E+00
         21   -1    0    0  503  502  0.00000000000E+00  0.00000000000E+00  0.29472799026E+03  0.29472799026E+03  0.00000000000E+00 0. -1.
         21   -1    0    0  501  503 -0.00000000000E+00 -0.00000000000E+00 -0.73116383191E+02  0.73116383191E+02  0.00000000000E+00 0.  1.
         24    1    1    2    0    0  0.11581349834E+02  0.39463846486E+01  0.25834051838E+03  0.27084449599E+03  0.80419002446E+02 0. -1.
          1    1    1    2  501    0 -0.46450541730E+01  0.23348128309E+02 -0.57350467261E+02  0.62094989483E+02  0.00000000000E+00 0. -1.
         -2    1    1    2    0  502 -0.69362956609E+01 -0.27294512958E+02  0.20621555950E+02  0.34904887980E+02  0.00000000000E+00 0.  1.
<mgrwt>
<rscale>  2 0.66656111E+02</rscale>
<asrwt>0</asrwt>
<pdfrwt beam="1">  1       21 0.45342767E-01 0.66656111E+02</pdfrwt>
<pdfrwt beam="2">  1       21 0.11248674E-01 0.66656111E+02</pdfrwt>
<totfact> 0.31452372E+05</totfact>
</mgrwt>
</event>
<event>
 5    1  0.1595802E+000  0.7244439E+02  0.7546771E-02  0.1351973E+00
         21   -1    0    0  503  502  0.00000000000E+00  0.00000000000E+00  0.42653778682E+03  0.42653778682E+03  0.00000000000E+00 0. -1.
         21   -1    0    0  501  503 -0.00000000000E+00 -0.00000000000E+00 -0.55381777909E+02  0.55381777909E+02  0.00000000000E+00 0. -1.
         24    1    1    2    0    0 -0.11677464370E+02  0.48668733298E+02  0.37761540458E+03  0.38931429270E+03  0.80419002446E+02 0. -1.
          1    1    1    2  501    0  0.78414386920E+01 -0.25358802001E+02 -0.42146000623E+02  0.49808055254E+02  0.00000000000E+00 0. -1.
         -2    1    1    2    0  502  0.38360256781E+01 -0.23309931297E+02  0.35686604959E+02  0.42797216774E+02  0.00000000000E+00 0.  1.
<mgrwt>
<rscale>  2 0.72444392E+02</rscale>
<asrwt>0</asrwt>
<pdfrwt beam="1">  1       21 0.65621196E-01 0.72444392E+02</pdfrwt>
<pdfrwt beam="2">  1       21 0.85202738E-02 0.72444392E+02</pdfrwt>
<totfact> 0.23698233E+05</totfact>
</mgrwt>
</event>
<event>
 5    1  0.1595802E+000  0.8097808E+02  0.7546771E-02  0.1326298E+00
         21   -1    0    0  503  502  0.00000000000E+00  0.00000000000E+00  0.64933071312E+02  0.64933071312E+02  0.00000000000E+00 0.  1.
         21   -1    0    0  501  503 -0.00000000000E+00 -0.00000000000E+00 -0.17514772745E+03  0.17514772745E+03  0.00000000000E+00 0.  1.
         24    1    1    2    0    0  0.56705385857E+02  0.13589032900E+02 -0.13368059968E+03  0.16654693418E+03  0.80419002446E+02 0.  1.
          1    1    1    2  501    0 -0.31366189636E+02  0.42216067527E+01 -0.42973945596E+01  0.31939433556E+02  0.00000000000E+00 0. -1.
         -2    1    1    2    0  502 -0.25339196221E+02 -0.17810639653E+02  0.27763338100E+02  0.41594431026E+02  0.00000000000E+00 0.  1.
<mgrwt>
<rscale>  2 0.80978078E+02</rscale>
<asrwt>0</asrwt>
<pdfrwt beam="1">  1       21 0.99897035E-02 0.80978078E+02</pdfrwt>
<pdfrwt beam="2">  1       21 0.26945804E-01 0.80978078E+02</pdfrwt>
<totfact> 0.10586806E+06</totfact>
</mgrwt>
</event>
<event>
 5    1  0.1595802E+000  0.6824632E+02  0.7546771E-02  0.1366160E+00
         21   -1    0    0  503  502  0.00000000000E+00  0.00000000000E+00  0.36560055389E+02  0.36560055389E+02  0.00000000000E+00 0. -1.
         21   -1    0    0  501  503 -0.00000000000E+00 -0.00000000000E+00 -0.16330850435E+03  0.16330850435E+03  0.00000000000E+00 0.  1.
         24    1    1    2    0    0 -0.23002379478E+02 -0.17038218874E+02 -0.62351447107E+02  0.10570870009E+03  0.80419002446E+02 0. -1.
          1    1    1    2  501    0  0.16253153143E+02 -0.12706191805E+02 -0.59870521191E+02  0.63325284089E+02  0.00000000000E+00 0. -1.
         -2    1    1    2    0  502  0.67492263344E+01  0.29744410680E+02 -0.45264806630E+01  0.30834575561E+02  0.00000000000E+00 0.  1.
<mgrwt>
<rscale>  2 0.68246318E+02</rscale>
<asrwt>0</asrwt>
<pdfrwt beam="1">  1       21 0.56246239E-02 0.68246318E+02</pdfrwt>
<pdfrwt beam="2">  1       21 0.25124385E-01 0.68246318E+02</pdfrwt>
<totfact> 0.31666029E+06</totfact>
</mgrwt>
</event>
<event>
 5    1  0.1595802E+000  0.6745645E+02  0.7546771E-02  0.1368963E+00
         21   -1    0    0  501  502  0.00000000000E+00  0.00000000000E+00  0.68776583424E+01  0.68776583424E+01  0.00000000000E+00 0.  1.
         21   -1    0    0  502  503 -0.00000000000E+00 -0.00000000000E+00 -0.15525643390E+04  0.15525643390E+04  0.00000000000E+00 0.  1.
         24    1    1    2    0    0  0.19055342829E+00  0.65967696917E+01 -0.37912697981E+03  0.38761841604E+03  0.80419002446E+02 0.  1.
          1    1    1    2  501    0 -0.37152654076E+01  0.23565234520E+02 -0.56264197634E+02  0.61112874343E+02  0.00000000000E+00 0. -1.
         -2    1    1    2    0  503  0.35247119793E+01 -0.30162004212E+02 -0.11102955032E+04  0.11107107069E+04  0.00000000000E+00 0.  1.
<mgrwt>
<rscale>  2 0.67456451E+02</rscale>
<asrwt>0</asrwt>
<pdfrwt beam="1">  1       21 0.10581013E-02 0.67456451E+02</pdfrwt>
<pdfrwt beam="2">  1       21 0.23885605E+00 0.67456451E+02</pdfrwt>
<totfact> 0.29046533E+05</totfact>
</mgrwt>
</event>
<event>
 5    1  0.1595802E+000  0.9284655E+02  0.7546771E-02  0.1296101E+00
         21   -1    0    0  503  502  0.00000000000E+00  0.00000000000E+00  0.21170551781E+02  0.21170551781E+02  0.00000000000E+00 0. -1.
         21   -1    0    0  501  503 -0.00000000000E+00 -0.00000000000E+00 -0.44704201794E+03  0.44704201794E+03  0.00000000000E+00 0.  1.
         24    1    1    2    0    0  0.34801227016E+02 -0.65609781183E+01 -0.20148530773E+03  0.21981291368E+03  0.80419002446E+02 0.  1.
          1    1    1    2  501    0 -0.65846219570E+02  0.99441424919E+01 -0.19282334308E+03  0.20399865744E+03  0.00000000000E+00 0. -1.
         -2    1    1    2    0  502  0.31044992554E+02 -0.33831643736E+01 -0.31562815353E+02  0.44400998602E+02  0.00000000000E+00 0.  1.
<mgrwt>
<rscale>  2 0.92846545E+02</rscale>
<asrwt>0</asrwt>
<pdfrwt beam="1">  1       21 0.32570083E-02 0.92846545E+02</pdfrwt>
<pdfrwt beam="2">  1       21 0.68775688E-01 0.92846545E+02</pdfrwt>
<totfact> 0.10632142E+06</totfact>
</mgrwt>
</event>
<event>
 5    1  0.1595802E+000  0.1224592E+03  0.7546771E-02  0.1239094E+00
         21   -1    0    0  501  502  0.00000000000E+00  0.00000000000E+00  0.51778515698E+03  0.51778515698E+03  0.00000000000E+00 0. -1.
         21   -1    0    0  502  503 -0.00000000000E+00 -0.00000000000E+00 -0.35808059487E+02  0.35808059487E+02  0.00000000000E+00 0. -1.
         24    1    1    2    0    0 -0.74085329019E+02  0.29013955018E+02  0.21196204778E+03  0.24026146427E+03  0.80419002446E+02 0. -1.
          1    1    1    2  501    0  0.10018259365E+03 -0.12624701299E+02  0.26301231954E+03  0.28172933000E+03  0.00000000000E+00 0. -1.
         -2    1    1    2    0  503 -0.26097264633E+02 -0.16389253720E+02  0.70027301798E+01  0.31602422198E+02  0.00000000000E+00 0.  1.
<mgrwt>
<rscale>  2 0.12245923E+03</rscale>
<asrwt>0</asrwt>
<pdfrwt beam="1">  1       21 0.79659250E-01 0.12245923E+03</pdfrwt>
<pdfrwt beam="2">  1       21 0.55089326E-02 0.12245923E+03</pdfrwt>
<totfact> 0.32186238E+05</totfact>
</mgrwt>
</event>
<event>
 5    1  0.1595802E+000  0.7919053E+02  0.7546771E-02  0.1331364E+00
         21   -1    0    0  503  502  0.00000000000E+00  0.00000000000E+00  0.33972987214E+02  0.33972987214E+02  0.00000000000E+00 0.  1.
         21   -1    0    0  501  503 -0.00000000000E+00 -0.00000000000E+00 -0.46019419967E+03  0.46019419967E+03  0.00000000000E+00 0.  1.
         24    1    1    2    0    0 -0.26593770213E+02  0.46744198702E+02 -0.14851896729E+03  0.17724939584E+03  0.80419002446E+02 0.  1.
          1    1    1    2  501    0 -0.37919891575E+01 -0.22352890886E+02 -0.27702112955E+03  0.27794736395E+03  0.00000000000E+00 0. -1.
         -2    1    1    2    0  502  0.30385759370E+02 -0.24391307816E+02 -0.68111562234E+00  0.38970427095E+02  0.00000000000E+00 0.  1.
<mgrwt>
<rscale>  2 0.79190525E+02</rscale>
<asrwt>0</asrwt>
<pdfrwt beam="1">  1       21 0.52266136E-02 0.79190525E+02</pdfrwt>
<pdfrwt beam="2">  1       21 0.70799105E-01 0.79190525E+02</pdfrwt>
<totfact> 0.45801559E+05</totfact>
</mgrwt>
</event>
<event>
 5    1  0.1595802E+000  0.9025111E+02  0.7546771E-02  0.1302245E+00
         21   -1    0    0  503  502  0.00000000000E+00  0.00000000000E+00  0.54494711924E+02  0.54494711924E+02  0.00000000000E+00 0.  1.
         21   -1    0    0  501  503 -0.00000000000E+00 -0.00000000000E+00 -0.17036010986E+03  0.17036010986E+03  0.00000000000E+00 0. -1.
         24    1    1    2    0    0  0.87983291701E+01  0.27123202591E+02 -0.75077325482E+02  0.11365253834E+03  0.80419002446E+02 0. -1.
          1    1    1    2  501    0  0.31747470259E+02 -0.41417940903E+02 -0.43764006412E+02  0.68107532283E+02  0.00000000000E+00 0. -1.
         -2    1    1    2    0  502 -0.40545799429E+02  0.14294738311E+02  0.29759339588E+01  0.43094751162E+02  0.00000000000E+00 0.  1.
<mgrwt>
<rscale>  2 0.90251111E+02</rscale>
<asrwt>0</asrwt>
<pdfrwt beam="1">  1       21 0.83838018E-02 0.90251111E+02</pdfrwt>
<pdfrwt beam="2">  1       21 0.26209248E-01 0.90251111E+02</pdfrwt>
<totfact> 0.15123594E+06</totfact>
</mgrwt>
</event>
<event>
 5    1  0.1595802E+000  0.6467441E+02  0.7546771E-02  0.1379200E+00
         21   -1    0    0  501  502  0.00000000000E+00  0.00000000000E+00  0.38413554900E+02  0.38413554900E+02  0.00000000000E+00 0. -1.
         21   -1    0    0  502  503 -0.00000000000E+00 -0.00000000000E+00 -0.15713509044E+03  0.15713509044E+03  0.00000000000E+00 0.  1.
         24    1    1    2    0    0  0.91247862969E+01 -0.42549529798E+01 -0.30759651944E+02  0.86687591338E+02  0.80419002446E+02 0. -1.
          1    1    1    2  501    0  0.11159078482E+02  0.19812473460E+02 -0.67480908318E+01  0.23719103420E+02  0.00000000000E+00 0. -1.
         -2    1    1    2    0  503 -0.20283864779E+02 -0.15557520480E+02 -0.81213792766E+02  0.85141950584E+02  0.00000000000E+00 0.  1.
<mgrwt>
<rscale>  2 0.64674408E+02</rscale>
<asrwt>0</asrwt>
<pdfrwt beam="1">  1       21 0.59097777E-02 0.64674408E+02</pdfrwt>
<pdfrwt beam="2">  1       21 0.24174629E-01 0.64674408E+02</pdfrwt>
<totfact> 0.31217605E+06</totfact>
</mgrwt>
</event>
<event>
 5    1  0.1595802E+000  0.1027390E+03  0.7546771E-02  0.1274639E+00
         21   -1    0    0  503  502  0.00000000000E+00  0.00000000000E+00  0.56577820808E+03  0.56577820808E+03  0.00000000000E+00 0.  1.
         21   -1    0    0  501  503 -0.00000000000E+00 -0.00000000000E+00 -0.84739630937E+02  0.84739630937E+02  0.00000000000E+00 0. -1.
         24    1    1    2    0    0 -0.22357715200E+02 -0.60300418279E+01  0.50481167060E+02  0.97733274864E+02  0.80419002446E+02 0.  0.
          1    1    1    2  501    0  0.37531974544E+02  0.57202655153E+02 -0.39972118106E+02  0.79237384457E+02  0.00000000000E+00 0. -1.
         -2    1    1    2    0  502 -0.15174259344E+02 -0.51172613326E+02  0.47052952819E+03  0.47354717970E+03  0.00000000000E+00 0.  1.
<mgrwt>
<rscale>  2 0.10273897E+03</rscale>
<asrwt>0</asrwt>
<pdfrwt beam="1">  1       21 0.87042799E-01 0.10273897E+03</pdfrwt>
<pdfrwt beam="2">  1       21 0.13036867E-01 0.10273897E+03</pdfrwt>
<totfact> 0.60151014E+04</totfact>
</mgrwt>
</event>
<event>
 5    1  0.1595802E+000  0.7063100E+02  0.7546771E-02  0.1357960E+00
         21   -1    0    0  503  502  0.00000000000E+00  0.00000000000E+00  0.10507329108E+03  0.10507329108E+03  0.00000000000E+00 0. -1.
         21   -1    0    0  501  503 -0.00000000000E+00 -0.00000000000E+00 -0.59433715445E+02  0.59433715445E+02  0.00000000000E+00 0.  1.
         24    1    1    2    0    0 -0.14419543490E+02 -0.10404766497E+02 -0.65336506343E+01  0.82620136440E+02  0.80419002446E+02 0.  0.
          1    1    1    2  501    0  0.89019029045E+01 -0.23198257130E+02  0.79837475096E+01  0.26098720917E+02  0.00000000000E+00 0. -1.
         -2    1    1    2    0  502  0.55176405852E+01  0.33603023627E+02  0.44189478755E+02  0.55788149164E+02  0.00000000000E+00 0.  1.
<mgrwt>
<rscale>  2 0.70630998E+02</rscale>
<asrwt>0</asrwt>
<pdfrwt beam="1">  1       21 0.16165122E-01 0.70630998E+02</pdfrwt>
<pdfrwt beam="2">  1       21 0.91436485E-02 0.70630998E+02</pdfrwt>
<totfact> 0.31203918E+06</totfact>
</mgrwt>
</event>
<event>
 5    1  0.1595802E+000  0.1127389E+03  0.7546771E-02  0.1255580E+00
         21   -1    0    0  501  502  0.00000000000E+00  0.00000000000E+00  0.42736194606E+02  0.42736194606E+02  0.00000000000E+00 0. -1.
         21   -1    0    0  502  503 -0.00000000000E+00 -0.00000000000E+00 -0.61943938023E+03  0.61943938023E+03  0.00000000000E+00 0. -1.
         24    1    1    2    0    0 -0.47978882555E+01 -0.85762057066E+02 -0.51352997558E+03  0.52683811740E+03  0.80419002446E+02 0. -1.
          1    1    1    2  501    0  0.33792637597E+02  0.60763538564E+02 -0.10644228713E+02  0.70338109013E+02  0.00000000000E+00 0. -1.
         -2    1    1    2    0  503 -0.28994749342E+02  0.24998518502E+02 -0.52528981327E+02  0.64999348427E+02  0.00000000000E+00 0.  1.
<mgrwt>
<rscale>  2 0.11273891E+03</rscale>
<asrwt>0</asrwt>
<pdfrwt beam="1">  1       21 0.65747985E-02 0.11273891E+03</pdfrwt>
<pdfrwt beam="2">  1       21 0.95298376E-01 0.11273891E+03</pdfrwt>
<totfact> 0.15943375E+05</totfact>
</mgrwt>
</event>
<event>
 5    1  0.1595802E+000  0.1069706E+03  0.7546771E-02  0.1266285E+00
         21   -1    0    0  503  502  0.00000000000E+00  0.00000000000E+00  0.66215414129E+02  0.66215414129E+02  0.00000000000E+00 0. -1.
         21   -1    0    0  501  503 -0.00000000000E+00 -0.00000000000E+00 -0.19090714336E+03  0.19090714336E+03  0.00000000000E+00 0. -1.
         24    1    1    2    0    0 -0.26069402601E+02 -0.76420140413E+01 -0.20516751617E+02  0.87327928991E+02  0.80419002446E+02 0. -1.
          1    1    1    2  501    0  0.77449861537E+02  0.48191892707E+01 -0.84441937220E+02  0.11468280777E+03  0.00000000000E+00 0. -1.
         -2    1    1    2    0  502 -0.51380458935E+02  0.28228247706E+01 -0.19733040389E+02  0.55111820720E+02  0.00000000000E+00 0.  1.
<mgrwt>
<rscale>  2 0.10697061E+03</rscale>
<asrwt>0</asrwt>
<pdfrwt beam="1">  1       21 0.10186987E-01 0.10697061E+03</pdfrwt>
<pdfrwt beam="2">  1       21 0.29370330E-01 0.10697061E+03</pdfrwt>
<totfact> 0.87315901E+05</totfact>
</mgrwt>
</event>
<event>
 5    1  0.1595802E+000  0.7952461E+02  0.7546771E-02  0.1330406E+00
         21   -1    0    0  503  502  0.00000000000E+00  0.00000000000E+00  0.17839561038E+02  0.17839561038E+02  0.00000000000E+00 0. -1.
         21   -1    0    0  501  503 -0.00000000000E+00 -0.00000000000E+00 -0.42362577012E+03  0.42362577012E+03  0.00000000000E+00 0.  1.
         24    1    1    2    0    0  0.17908113963E+02  0.33637632617E+01 -0.13450372522E+03  0.15776718132E+03  0.80419002446E+02 0. -1.
          1    1    1    2  501    0  0.22100203050E+02 -0.23109517184E+02 -0.17063349477E+03  0.17360373930E+03  0.00000000000E+00 0. -1.
         -2    1    1    2    0  502 -0.40008317013E+02  0.19745753923E+02 -0.10064898909E+03  0.11009441054E+03  0.00000000000E+00 0.  1.
<mgrwt>
<rscale>  2 0.79524606E+02</rscale>
<asrwt>0</asrwt>
<pdfrwt beam="1">  1       21 0.27445481E-02 0.79524606E+02</pdfrwt>
<pdfrwt beam="2">  1       21 0.65173190E-01 0.79524606E+02</pdfrwt>
<totfact> 0.15694017E+06</totfact>
</mgrwt>
</event>
<event>
 5    1  0.1595802E+000  0.6618809E+02  0.7546771E-02  0.1373557E+00
         21   -1    0    0  503  502  0.00000000000E+00  0.00000000000E+00  0.71598795334E+01  0.71598795334E+01  0.00000000000E+00 0. -1.
         21   -1    0    0  501  503 -0.00000000000E+00 -0.00000000000E+00 -0.17046644658E+04  0.17046644658E+04  0.00000000000E+00 0. -1.
         24    1    1    2    0    0 -0.25564873995E+02  0.50923120831E+01 -0.40128272186E+03  0.41009088413E+03  0.80419002446E+02 0. -1.
          1    1    1    2  501    0  0.19569776819E+02  0.16395091727E+02 -0.12514632620E+04  0.12517236401E+04  0.00000000000E+00 0. -1.
         -2    1    1    2    0  502  0.59950971762E+01 -0.21487403810E+02 -0.44758602470E+02  0.50009821113E+02  0.00000000000E+00 0.  1.
<mgrwt>
<rscale>  2 0.66188085E+02</rscale>
<asrwt>0</asrwt>
<pdfrwt beam="1">  1       21 0.11015188E-02 0.66188085E+02</pdfrwt>
<pdfrwt beam="2">  1       21 0.26225635E+00 0.66188085E+02</pdfrwt>
<totfact> 0.20341261E+05</totfact>
</mgrwt>
</event>
<event>
 5    1  0.1595802E+000  0.7294979E+02  0.7546771E-02  0.1350340E+00
         21   -1    0    0  501  502  0.00000000000E+00  0.00000000000E+00  0.20127006845E+03  0.20127006845E+03  0.00000000000E+00 0. -1.
         21   -1    0    0  502  503 -0.00000000000E+00 -0.00000000000E+00 -0.60393298802E+02  0.60393298802E+02  0.00000000000E+00 0. -1.
         24    1    1    2    0    0 -0.17881044903E+02  0.46683873330E+02  0.83061214485E+02  0.12595831494E+03  0.80419002446E+02 0. -1.
          1    1    1    2  501    0  0.38609817733E+01 -0.25597140435E+02  0.90630997537E+02  0.94255495825E+02  0.00000000000E+00 0. -1.
         -2    1    1    2    0  503  0.14020063130E+02 -0.21086732895E+02 -0.32815442378E+02  0.41449556485E+02  0.00000000000E+00 0.  1.
<mgrwt>
<rscale>  2 0.72949791E+02</rscale>
<asrwt>0</asrwt>
<pdfrwt beam="1">  1       21 0.30964626E-01 0.72949791E+02</pdfrwt>
<pdfrwt beam="2">  1       21 0.92912768E-02 0.72949791E+02</pdfrwt>
<totfact> 0.91960739E+05</totfact>
</mgrwt>
</event>
<event>
 5    1  0.1595802E+000  0.1511620E+03  0.7546771E-02  0.1199052E+00
         21   -1    0    0  501  502  0.00000000000E+00  0.00000000000E+00  0.27580468226E+03  0.27580468226E+03  0.00000000000E+00 0. -1.
         21   -1    0    0  502  503 -0.00000000000E+00 -0.00000000000E+00 -0.74645301984E+03  0.74645301984E+03  0.00000000000E+00 0.  1.
         24    1    1    2    0    0  0.56610440029E+02 -0.88899233131E+02 -0.77882383190E+02  0.15375531580E+03  0.80419002446E+02 0.  1.
          1    1    1    2  501    0  0.42630585368E+02  0.42516014992E+02  0.22919341350E+03  0.23696961648E+03  0.00000000000E+00 0. -1.
         -2    1    1    2    0  503 -0.99241025396E+02  0.46383218139E+02 -0.62195936789E+03  0.63153276982E+03  0.00000000000E+00 0.  1.
<mgrwt>
<rscale>  2 0.15116200E+03</rscale>
<asrwt>0</asrwt>
<pdfrwt beam="1">  1       21 0.42431489E-01 0.15116200E+03</pdfrwt>
<pdfrwt beam="2">  1       21 0.11483893E+00 0.15116200E+03</pdfrwt>
<totfact> 0.32678769E+03</totfact>
</mgrwt>
</event>
<event>
 5    1  0.1595802E+000  0.7183378E+02  0.7546771E-02  0.1353966E+00
         21   -1    0    0  501  502  0.00000000000E+00  0.00000000000E+00  0.95037525065E+01  0.95037525065E+01  0.00000000000E+00 0.  1.
         21   -1    0    0  502  503 -0.00000000000E+00 -0.00000000000E+00 -0.82751476068E+03  0.82751476068E+03  0.00000000000E+00 0. -1.
         24    1    1    2    0    0 -0.14041290267E+02 -0.12830847499E+02 -0.60233906736E+03  0.60798137842E+03  0.80419002446E+02 0. -1.
          1    1    1    2  501    0  0.32249240605E+02  0.23521026720E+02 -0.60794245994E+02  0.72726835237E+02  0.00000000000E+00 0. -1.
         -2    1    1    2    0  503 -0.18207950338E+02 -0.10690179222E+02 -0.15487769482E+03  0.15631029953E+03  0.00000000000E+00 0.  1.
<mgrwt>
<rscale>  2 0.71833776E+02</rscale>
<asrwt>0</asrwt>
<pdfrwt beam="1">  1       21 0.14621155E-02 0.71833776E+02</pdfrwt>
<pdfrwt beam="2">  1       21 0.12730999E+00 0.71833776E+02</pdfrwt>
<totfact> 0.94106314E+05</totfact>
</mgrwt>
</event>
<event>
 5    1  0.1595802E+000  0.7570827E+02  0.7546771E-02  0.1341692E+00
         21   -1    0    0  503  502  0.00000000000E+00  0.00000000000E+00  0.69597872395E+03  0.69597872395E+03  0.00000000000E+00 0.  1.
         21   -1    0    0  501  503 -0.00000000000E+00 -0.00000000000E+00 -0.79586471979E+02  0.79586471979E+02  0.00000000000E+00 0. -1.
         24    1    1    2    0    0  0.38364973984E+02 -0.26067310906E+02  0.30339118397E+03  0.31727716967E+03  0.80419002446E+02 0.  0.
          1    1    1    2  501    0 -0.96117230378E+01  0.28155769511E+02 -0.69031278069E+02  0.75169474711E+02  0.00000000000E+00 0. -1.
         -2    1    1    2    0  502 -0.28753250946E+02 -0.20884586058E+01  0.38203234607E+03  0.38311855155E+03  0.00000000000E+00 0.  1.
<mgrwt>
<rscale>  2 0.75708273E+02</rscale>
<asrwt>0</asrwt>
<pdfrwt beam="1">  1       21 0.10707365E+00 0.75708273E+02</pdfrwt>
<pdfrwt beam="2">  1       21 0.12244073E-01 0.75708273E+02</pdfrwt>
<totfact> 0.42692014E+04</totfact>
</mgrwt>
</event>
<event>
 5    1  0.1595802E+000  0.9987641E+02  0.7546771E-02  0.1280556E+00
         21   -1    0    0  501  502  0.00000000000E+00  0.00000000000E+00  0.83392393778E+01  0.83392393778E+01  0.00000000000E+00 0.  1.
         21   -1    0    0  502  503 -0.00000000000E+00 -0.00000000000E+00 -0.14285571201E+04  0.14285571201E+04  0.00000000000E+00 0. -1.
         24    1    1    2    0    0  0.94049050337E+00  0.82199674000E+02 -0.51502484249E+03  0.52770775555E+03  0.80419002446E+02 0.  1.
          1    1    1    2  501    0  0.96988053497E+01 -0.46561931675E+02 -0.55063251789E+03  0.55268277526E+03  0.00000000000E+00 0. -1.
         -2    1    1    2    0  503 -0.10639295853E+02 -0.35637742325E+02 -0.35456052036E+03  0.35650582870E+03  0.00000000000E+00 0.  1.
<mgrwt>
<rscale>  2 0.99876410E+02</rscale>
<asrwt>0</asrwt>
<pdfrwt beam="1">  1       21 0.12829605E-02 0.99876410E+02</pdfrwt>
<pdfrwt beam="2">  1       21 0.21977792E+00 0.99876410E+02</pdfrwt>
<totfact> 0.26842270E+05</totfact>
</mgrwt>
</event>
<event>
 5    1  0.1595802E+000  0.2582971E+03  0.7546771E-02  0.1108171E+00
         21   -1    0    0  503  502  0.00000000000E+00  0.00000000000E+00  0.83920958146E+03  0.83920958146E+03  0.00000000000E+00 0. -1.
         21   -1    0    0  501  503 -0.00000000000E+00 -0.00000000000E+00 -0.10083663288E+03  0.10083663288E+03  0.00000000000E+00 0. -1.
         24    1    1    2    0    0  0.17389314917E+03  0.22556586508E+02  0.96750684762E+02  0.21581366472E+03  0.80419002446E+02 0. -1.
          1    1    1    2  501    0 -0.23969532122E+03 -0.61183720543E+02  0.39494974276E+03  0.46602853344E+03  0.00000000000E+00 0. -1.
         -2    1    1    2    0  502  0.65802172045E+02  0.38627134035E+02  0.24667252106E+03  0.25820401619E+03  0.00000000000E+00 0.  1.
<mgrwt>
<rscale>  2 0.25829713E+03</rscale>
<asrwt>0</asrwt>
<pdfrwt beam="1">  1       21 0.12910916E+00 0.25829713E+03</pdfrwt>
<pdfrwt beam="2">  1       21 0.15513329E-01 0.25829713E+03</pdfrwt>
<totfact> 0.15596636E+04</totfact>
</mgrwt>
</event>
<event>
 5    1  0.1595802E+000  0.8320506E+02  0.7546771E-02  0.1320194E+00
         21   -1    0    0  503  502  0.00000000000E+00  0.00000000000E+00  0.12267226843E+04  0.12267226843E+04  0.00000000000E+00 0.  1.
         21   -1    0    0  501  503 -0.00000000000E+00 -0.00000000000E+00 -0.16207151993E+02  0.16207151993E+02  0.00000000000E+00 0. -1.
         24    1    1    2    0    0  0.62524710532E+02  0.11521632629E+02  0.16915535640E+03  0.19779493927E+03  0.80419002446E+02 0. -1.
          1    1    1    2  501    0 -0.24990720969E+02 -0.77873944484E+01  0.11233849414E+03  0.11534780844E+03  0.00000000000E+00 0. -1.
         -2    1    1    2    0  502 -0.37533989563E+02 -0.37342381804E+01  0.92902168174E+03  0.92978708856E+03  0.00000000000E+00 0.  1.
<mgrwt>
<rscale>  2 0.83205060E+02</rscale>
<asrwt>0</asrwt>
<pdfrwt beam="1">  1       21 0.18872649E+00 0.83205060E+02</pdfrwt>
<pdfrwt beam="2">  1       21 0.24934090E-02 0.83205060E+02</pdfrwt>
<totfact> 0.14588136E+05</totfact>
</mgrwt>
</event>
<event>
 5    1  0.1595802E+000  0.7195511E+02  0.7546771E-02  0.1353568E+00
         21   -1    0    0  503  502  0.00000000000E+00  0.00000000000E+00  0.13625933223E+03  0.13625933223E+03  0.00000000000E+00 0.  1.
         21   -1    0    0  501  503 -0.00000000000E+00 -0.00000000000E+00 -0.13606229051E+03  0.13606229051E+03  0.00000000000E+00 0.  1.
         24    1    1    2    0    0  0.18278435819E+01  0.18037246059E+02 -0.50411970107E+02  0.96629529348E+02  0.80419002446E+02 0.  1.
          1    1    1    2  501    0 -0.19439747241E+02 -0.33041720973E+02 -0.55298194328E+02  0.67287067060E+02  0.00000000000E+00 0. -1.
         -2    1    1    2    0  502  0.17611903659E+02  0.15004474914E+02  0.10590720615E+03  0.10840502633E+03  0.00000000000E+00 0.  1.
<mgrwt>
<rscale>  2 0.71955109E+02</rscale>
<asrwt>0</asrwt>
<pdfrwt beam="1">  1       21 0.20962974E-01 0.71955109E+02</pdfrwt>
<pdfrwt beam="2">  1       21 0.20932660E-01 0.71955109E+02</pdfrwt>
<totfact> 0.45330795E+05</totfact>
</mgrwt>
</event>
<event>
 5    1  0.1595802E+000  0.2312693E+03  0.7546771E-02  0.1125750E+00
         21   -1    0    0  503  502  0.00000000000E+00  0.00000000000E+00  0.21409560864E+03  0.21409560864E+03  0.00000000000E+00 0.  1.
         21   -1    0    0  501  503 -0.00000000000E+00 -0.00000000000E+00 -0.31327196427E+03  0.31327196427E+03  0.00000000000E+00 0. -1.
         24    1    1    2    0    0  0.71601511395E+02 -0.10358709755E+02 -0.12501439053E+02  0.10889252148E+03  0.80419002446E+02 0. -1.
          1    1    1    2  501    0 -0.20578853041E+03 -0.42521253031E+02 -0.15279196842E+03  0.25981216642E+03  0.00000000000E+00 0. -1.
         -2    1    1    2    0  502  0.13418701901E+03  0.52879962786E+02  0.66117051831E+02  0.15866288501E+03  0.00000000000E+00 0.  1.
<mgrwt>
<rscale>  2 0.23126934E+03</rscale>
<asrwt>0</asrwt>
<pdfrwt beam="1">  1       21 0.32937786E-01 0.23126934E+03</pdfrwt>
<pdfrwt beam="2">  1       21 0.48195687E-01 0.23126934E+03</pdfrwt>
<totfact> 0.35797782E+04</totfact>
</mgrwt>
</event>
<event>
 5    1  0.1595802E+000  0.1021057E+03  0.7546771E-02  0.1275929E+00
         21   -1    0    0  501  502  0.00000000000E+00  0.00000000000E+00  0.23161039317E+04  0.23161039317E+04  0.00000000000E+00 0.  1.
         21   -1    0    0  502  503 -0.00000000000E+00 -0.00000000000E+00 -0.76589071890E+01  0.76589071890E+01  0.00000000000E+00 0.  1.
         24    1    1    2    0    0 -0.64662751626E+02  0.66384519601E+01  0.11284797916E+04  0.11332074816E+04  0.80419002446E+02 0.  1.
          1    1    1    2  501    0 -0.67842654066E+01  0.22609014213E+02  0.89518777609E+03  0.89549893816E+03  0.00000000000E+00 0. -1.
         -2    1    1    2    0  503  0.71447017032E+02 -0.29247466173E+02  0.28477745683E+03  0.29505641908E+03  0.00000000000E+00 0.  1.
<mgrwt>
<rscale>  2 0.10210570E+03</rscale>
<asrwt>0</asrwt>
<pdfrwt beam="1">  1       21 0.35632312E+00 0.10210570E+03</pdfrwt>
<pdfrwt beam="2">  1       21 0.11782953E-02 0.10210570E+03</pdfrwt>
<totfact> 0.52300336E+04</totfact>
</mgrwt>
</event>
<event>
 5    1  0.1595802E+000  0.8186016E+02  0.7546771E-02  0.1323854E+00
         21   -1    0    0  503  502  0.00000000000E+00  0.00000000000E+00  0.33720827565E+03  0.33720827565E+03  0.00000000000E+00 0.  1.
         21   -1    0    0  501  503 -0.00000000000E+00 -0.00000000000E+00 -0.26305508117E+02  0.26305508117E+02  0.00000000000E+00 0. -1.
         24    1    1    2    0    0  0.52067541713E+01 -0.15791691306E+02  0.66410627953E+02  0.10561285558E+03  0.80419002446E+02 0. -1.
          1    1    1    2  501    0  0.24705559710E+02 -0.22221783778E+02  0.86196932007E+02  0.92380103065E+02  0.00000000000E+00 0. -1.
         -2    1    1    2    0  502 -0.29912313881E+02  0.38013475084E+02  0.15829520757E+03  0.16552082513E+03  0.00000000000E+00 0.  1.
<mgrwt>
<rscale>  2 0.81860162E+02</rscale>
<asrwt>0</asrwt>
<pdfrwt beam="1">  1       21 0.51878193E-01 0.81860162E+02</pdfrwt>
<pdfrwt beam="2">  1       21 0.40470015E-02 0.81860162E+02</pdfrwt>
<totfact> 0.13425583E+06</totfact>
</mgrwt>
</event>
<event>
 5    1  0.1595802E+000  0.7687949E+02  0.7546771E-02  0.1338148E+00
         21   -1    0    0  501  502  0.00000000000E+00  0.00000000000E+00  0.99621328331E+02  0.99621328331E+02  0.00000000000E+00 0. -1.
         21   -1    0    0  502  503 -0.00000000000E+00 -0.00000000000E+00 -0.16330819215E+03  0.16330819215E+03  0.00000000000E+00 0. -1.
         24    1    1    2    0    0 -0.32156026966E+02 -0.33623862419E+02 -0.19694907679E+02  0.94971993435E+02  0.80419002446E+02 0.  0.
          1    1    1    2  501    0  0.35564072409E+02  0.99445829727E+01  0.54927074861E+02  0.66186717168E+02  0.00000000000E+00 0. -1.
         -2    1    1    2    0  503 -0.34080454423E+01  0.23679279446E+02 -0.98919031000E+02  0.10177080988E+03  0.00000000000E+00 0.  1.
<mgrwt>
<rscale>  2 0.76879492E+02</rscale>
<asrwt>0</asrwt>
<pdfrwt beam="1">  1       21 0.15326358E-01 0.76879492E+02</pdfrwt>
<pdfrwt beam="2">  1       21 0.25124337E-01 0.76879492E+02</pdfrwt>
<totfact> 0.56955555E+05</totfact>
</mgrwt>
</event>
<event>
 5    1  0.1595802E+000  0.1908189E+03  0.7546771E-02  0.1157725E+00
         21   -1    0    0  501  502  0.00000000000E+00  0.00000000000E+00  0.97265903702E+02  0.97265903702E+02  0.00000000000E+00 0.  1.
         21   -1    0    0  502  503 -0.00000000000E+00 -0.00000000000E+00 -0.64139145357E+03  0.64139145357E+03  0.00000000000E+00 0.  1.
         24    1    1    2    0    0  0.63728640409E+02  0.15355470380E+03 -0.47637488897E+03  0.51092136133E+03  0.80419002446E+02 0.  1.
          1    1    1    2  501    0  0.21561697979E+02 -0.29754344969E+00  0.21922115233E+02  0.30750194928E+02  0.00000000000E+00 0. -1.
         -2    1    1    2    0  503 -0.85290338388E+02 -0.15325716035E+03 -0.89672776132E+02  0.19698580102E+03  0.00000000000E+00 0.  1.
<mgrwt>
<rscale>  2 0.19081887E+03</rscale>
<asrwt>0</asrwt>
<pdfrwt beam="1">  1       21 0.14963985E-01 0.19081887E+03</pdfrwt>
<pdfrwt beam="2">  1       21 0.98675607E-01 0.19081887E+03</pdfrwt>
<totfact> 0.33416909E+04</totfact>
</mgrwt>
</event>
<event>
 5    1  0.1595802E+000  0.9509877E+02  0.7546771E-02  0.1290954E+00
         21   -1    0    0  501  502  0.00000000000E+00  0.00000000000E+00  0.16308789610E+03  0.16308789610E+03  0.00000000000E+00 0. -1.
         21   -1    0    0  502  503 -0.00000000000E+00 -0.00000000000E+00 -0.10252588408E+03  0.10252588408E+03  0.00000000000E+00 0.  1.
         24    1    1    2    0    0 -0.51261787028E+01 -0.68663486002E+02  0.14147815743E+02  0.10680977794E+03  0.80419002446E+02 0.  1.
          1    1    1    2  501    0 -0.16852536196E+02  0.57016413104E+02  0.90442826417E+02  0.10823485663E+03  0.00000000000E+00 0. -1.
         -2    1    1    2    0  503  0.21978714898E+02  0.11647072898E+02 -0.44028630140E+02  0.50569145610E+02  0.00000000000E+00 0.  1.
<mgrwt>
<rscale>  2 0.95098767E+02</rscale>
<asrwt>0</asrwt>
<pdfrwt beam="1">  1       21 0.25090446E-01 0.95098767E+02</pdfrwt>
<pdfrwt beam="2">  1       21 0.15773213E-01 0.95098767E+02</pdfrwt>
<totfact> 0.54286162E+05</totfact>
</mgrwt>
</event>
<event>
 5    1  0.1595802E+000  0.8216723E+02  0.7546771E-02  0.1323011E+00
         21   -1    0    0  503  502  0.00000000000E+00  0.00000000000E+00  0.17887257364E+03  0.17887257364E+03  0.00000000000E+00 0. -1.
         21   -1    0    0  501  503 -0.00000000000E+00 -0.00000000000E+00 -0.62126792692E+02  0.62126792692E+02  0.00000000000E+00 0.  1.
         24    1    1    2    0    0 -0.48726750234E+02  0.19403582734E+01  0.84757525014E+02  0.12660614195E+03  0.80419002446E+02 0.  1.
          1    1    1    2  501    0  0.37173440838E+02  0.22358597717E+02 -0.25924417701E+02  0.50535601597E+02  0.00000000000E+00 0. -1.
         -2    1    1    2    0  502  0.11553309396E+02 -0.24298955991E+02  0.57912673638E+02  0.63857622788E+02  0.00000000000E+00 0.  1.
<mgrwt>
<rscale>  2 0.82167227E+02</rscale>
<asrwt>0</asrwt>
<pdfrwt beam="1">  1       21 0.27518857E-01 0.82167227E+02</pdfrwt>
<pdfrwt beam="2">  1       21 0.95579682E-02 0.82167227E+02</pdfrwt>
<totfact> 0.10985254E+06</totfact>
</mgrwt>
</event>
<event>
 5    1  0.1595802E+000  0.9925351E+02  0.7546771E-02  0.1281874E+00
         21   -1    0    0  503  502  0.00000000000E+00  0.00000000000E+00  0.19873091141E+04  0.19873091141E+04  0.00000000000E+00 0.  1.
         21   -1    0    0  501  503 -0.00000000000E+00 -0.00000000000E+00 -0.10934015716E+02  0.10934015716E+02  0.00000000000E+00 0. -1.
         24    1    1    2    0    0 -0.70235026632E+02 -0.61362295116E+01  0.15091351544E+04  0.15129199392E+04  0.80419002446E+02 0.  1.
          1    1    1    2  501    0  0.17071640304E+02  0.29028711005E+02  0.32683993170E+02  0.46929205989E+02  0.00000000000E+00 0. -1.
         -2    1    1    2    0  502  0.53163386328E+02 -0.22892481493E+02  0.43455595084E+03  0.43839398463E+03  0.00000000000E+00 0.  1.
<mgrwt>
<rscale>  2 0.99253513E+02</rscale>
<asrwt>0</asrwt>
<pdfrwt beam="1">  1       21 0.30573958E+00 0.99253513E+02</pdfrwt>
<pdfrwt beam="2">  1       21 0.16821578E-02 0.99253513E+02</pdfrwt>
<totfact> 0.57428768E+04</totfact>
</mgrwt>
</event>
<event>
 5    1  0.1595802E+000  0.6605495E+02  0.7546771E-02  0.1374047E+00
         21   -1    0    0  501  502  0.00000000000E+00  0.00000000000E+00  0.49456745211E+02  0.49456745211E+02  0.00000000000E+00 0.  1.
         21   -1    0    0  502  503 -0.00000000000E+00 -0.00000000000E+00 -0.99534644353E+02  0.99534644353E+02  0.00000000000E+00 0.  1.
         24    1    1    2    0    0 -0.28433657354E+01 -0.12691274971E+01 -0.65606616323E+01  0.80746229935E+02  0.80419002446E+02 0.  1.
          1    1    1    2  501    0  0.27172755592E+02  0.23733594221E+01 -0.16532982553E+02  0.31895626557E+02  0.00000000000E+00 0. -1.
         -2    1    1    2    0  503 -0.24329389856E+02 -0.11042319250E+01 -0.26984254958E+02  0.36349533072E+02  0.00000000000E+00 0.  1.
<mgrwt>
<rscale>  2 0.66054952E+02</rscale>
<asrwt>0</asrwt>
<pdfrwt beam="1">  1       21 0.76087301E-02 0.66054952E+02</pdfrwt>
<pdfrwt beam="2">  1       21 0.15313022E-01 0.66054952E+02</pdfrwt>
<totfact> 0.46725521E+06</totfact>
</mgrwt>
</event>
<event>
 5    1  0.1595802E+000  0.3102035E+03  0.7546771E-02  0.1080248E+00
         21   -1    0    0  501  502  0.00000000000E+00  0.00000000000E+00  0.12471986154E+03  0.12471986154E+03  0.00000000000E+00 0. -1.
         21   -1    0    0  502  503 -0.00000000000E+00 -0.00000000000E+00 -0.17855017543E+04  0.17855017543E+04  0.00000000000E+00 0.  1.
         24    1    1    2    0    0 -0.27764736873E+03  0.68684142971E+02 -0.99325933506E+03  0.10367434087E+04  0.80419002446E+02 0. -1.
          1    1    1    2  501    0  0.23609690514E+03 -0.11369186625E+03 -0.67851714196E+02  0.27068698563E+03  0.00000000000E+00 0. -1.
         -2    1    1    2    0  503  0.41550463590E+02  0.45007723275E+02 -0.59967084349E+03  0.60279122149E+03  0.00000000000E+00 0.  1.
<mgrwt>
<rscale>  2 0.31020353E+03</rscale>
<asrwt>0</asrwt>
<pdfrwt beam="1">  1       21 0.19187671E-01 0.31020353E+03</pdfrwt>
<pdfrwt beam="2">  1       21 0.27469258E+00 0.31020353E+03</pdfrwt>
<totfact> 0.10591118E+03</totfact>
</mgrwt>
</event>
<event>
 5    1  0.1595802E+000  0.9725652E+02  0.7546771E-02  0.1286173E+00
         21   -1    0    0  501  502  0.00000000000E+00  0.00000000000E+00  0.20194033898E+03  0.20194033898E+03  0.00000000000E+00 0. -1.
         21   -1    0    0  502  503 -0.00000000000E+00 -0.00000000000E+00 -0.19119873724E+03  0.19119873724E+03  0.00000000000E+00 0.  1.
         24    1    1    2    0    0  0.20584652984E+02 -0.50242605594E+02  0.23399524789E+01  0.97060489837E+02  0.80419002446E+02 0.  1.
          1    1    1    2  501    0  0.30949852230E+02  0.26478950731E+02  0.14369978339E+03  0.14936082462E+03  0.00000000000E+00 0. -1.
         -2    1    1    2    0  503 -0.51534505214E+02  0.23763654863E+02 -0.13529813413E+03  0.14671776177E+03  0.00000000000E+00 0.  1.
<mgrwt>
<rscale>  2 0.97256522E+02</rscale>
<asrwt>0</asrwt>
<pdfrwt beam="1">  1       21 0.31067744E-01 0.97256522E+02</pdfrwt>
<pdfrwt beam="2">  1       21 0.29415190E-01 0.97256522E+02</pdfrwt>
<totfact> 0.11430034E+05</totfact>
</mgrwt>
</event>
<event>
 5    1  0.1595802E+000  0.8223984E+02  0.7546771E-02  0.1322813E+00
         21   -1    0    0  503  502  0.00000000000E+00  0.00000000000E+00  0.73947197570E+03  0.73947197570E+03  0.00000000000E+00 0.  1.
         21   -1    0    0  501  503 -0.00000000000E+00 -0.00000000000E+00 -0.40222175849E+02  0.40222175849E+02  0.00000000000E+00 0. -1.
         24    1    1    2    0    0 -0.99424973167E+01  0.34544048776E+02  0.41902712029E+03  0.42818581019E+03  0.80419002446E+02 0. -1.
          1    1    1    2  501    0  0.31564337716E+02 -0.42858208565E+02 -0.15061329548E+02  0.55317059797E+02  0.00000000000E+00 0. -1.
         -2    1    1    2    0  502 -0.21621840399E+02  0.83141597891E+01  0.29528400911E+03  0.29619128156E+03  0.00000000000E+00 0.  1.
<mgrwt>
<rscale>  2 0.82239839E+02</rscale>
<asrwt>0</asrwt>
<pdfrwt beam="1">  1       21 0.11376491E+00 0.82239839E+02</pdfrwt>
<pdfrwt beam="2">  1       21 0.61880276E-02 0.82239839E+02</pdfrwt>
<totfact> 0.11845663E+05</totfact>
</mgrwt>
</event>
<event>
 5    1  0.1595802E+000  0.7476283E+02  0.7546771E-02  0.1344607E+00
         21   -1    0    0  501  502  0.00000000000E+00  0.00000000000E+00  0.83262015208E+02  0.83262015208E+02  0.00000000000E+00 0. -1.
         21   -1    0    0  502  503 -0.00000000000E+00 -0.00000000000E+00 -0.14349568300E+03  0.14349568300E+03  0.00000000000E+00 0.  1.
         24    1    1    2    0    0 -0.19255858107E+02  0.13345934057E+02 -0.34011698354E+01  0.83831294502E+02  0.80419002446E+02 0.  0.
          1    1    1    2  501    0  0.39002024004E+02 -0.21342312689E+02  0.29924366337E+02  0.53592162561E+02  0.00000000000E+00 0. -1.
         -2    1    1    2    0  503 -0.19746165897E+02  0.79963786324E+01 -0.86756864292E+02  0.89334241144E+02  0.00000000000E+00 0.  1.
<mgrwt>
<rscale>  2 0.74762828E+02</rscale>
<asrwt>0</asrwt>
<pdfrwt beam="1">  1       21 0.12809541E-01 0.74762828E+02</pdfrwt>
<pdfrwt beam="2">  1       21 0.22076259E-01 0.74762828E+02</pdfrwt>
<totfact> 0.99292963E+05</totfact>
</mgrwt>
</event>
<event>
 5    1  0.1595802E+000  0.7558927E+02  0.7546771E-02  0.1342056E+00
         21   -1    0    0  503  502  0.00000000000E+00  0.00000000000E+00  0.20197516891E+03  0.20197516891E+03  0.00000000000E+00 0.  1.
         21   -1    0    0  501  503 -0.00000000000E+00 -0.00000000000E+00 -0.59283627492E+02  0.59283627492E+02  0.00000000000E+00 0.  1.
         24    1    1    2    0    0 -0.49063104433E+02 -0.11454836440E+02  0.40224249111E+00  0.94898784228E+02  0.80419002446E+02 0.  1.
          1    1    1    2  501    0  0.25886340578E+02  0.18771791263E+02  0.12529055821E+02  0.34343267397E+02  0.00000000000E+00 0. -1.
         -2    1    1    2    0  502  0.23176763855E+02 -0.73169548224E+01  0.12976024311E+03  0.13201674478E+03  0.00000000000E+00 0.  1.
<mgrwt>
<rscale>  2 0.75589271E+02</rscale>
<asrwt>0</asrwt>
<pdfrwt beam="1">  1       21 0.31073103E-01 0.75589271E+02</pdfrwt>
<pdfrwt beam="2">  1       21 0.91205582E-02 0.75589271E+02</pdfrwt>
<totfact> 0.94386859E+05</totfact>
</mgrwt>
</event>
<event>
 5    1  0.1595802E+000  0.8615454E+02  0.7546771E-02  0.1312441E+00
         21   -1    0    0  503  502  0.00000000000E+00  0.00000000000E+00  0.21534319309E+03  0.21534319309E+03  0.00000000000E+00 0.  1.
         21   -1    0    0  501  503 -0.00000000000E+00 -0.00000000000E+00 -0.48618176903E+03  0.48618176903E+03  0.00000000000E+00 0. -1.
         24    1    1    2    0    0 -0.39367080785E+02  0.45904214201E+02 -0.12574466959E+03  0.16104627228E+03  0.80419002446E+02 0.  1.
          1    1    1    2  501    0  0.44668070642E+01 -0.34771510699E+02 -0.34018067293E+03  0.34198231030E+03  0.00000000000E+00 0. -1.
         -2    1    1    2    0  502  0.34900273721E+02 -0.11132703503E+02  0.19508676658E+03  0.19849637953E+03  0.00000000000E+00 0.  1.
<mgrwt>
<rscale>  2 0.86154542E+02</rscale>
<asrwt>0</asrwt>
<pdfrwt beam="1">  1       21 0.33129722E-01 0.86154542E+02</pdfrwt>
<pdfrwt beam="2">  1       21 0.74797194E-01 0.86154542E+02</pdfrwt>
<totfact> 0.15314536E+04</totfact>
</mgrwt>
</event>
<event>
 5    1  0.1595802E+000  0.7626504E+02  0.7546771E-02  0.1339998E+00
         21   -1    0    0  501  502  0.00000000000E+00  0.00000000000E+00  0.16924306822E+02  0.16924306822E+02  0.00000000000E+00 0. -1.
         21   -1    0    0  502  503 -0.00000000000E+00 -0.00000000000E+00 -0.35502366615E+03  0.35502366615E+03  0.00000000000E+00 0. -1.
         24    1    1    2    0    0  0.25975319857E+02 -0.34547858713E+02 -0.17994838613E+03  0.20178431408E+03  0.80419002446E+02 0. -1.
          1    1    1    2  501    0 -0.34536503729E+02  0.11111268074E+02 -0.74390302720E+02  0.82765617903E+02  0.00000000000E+00 0. -1.
         -2    1    1    2    0  503  0.85611838714E+01  0.23436590639E+02 -0.83760670475E+02  0.87398040988E+02  0.00000000000E+00 0.  1.
<mgrwt>
<rscale>  2 0.76265044E+02</rscale>
<asrwt>0</asrwt>
<pdfrwt beam="1">  1       21 0.26037396E-02 0.76265044E+02</pdfrwt>
<pdfrwt beam="2">  1       21 0.54619024E-01 0.76265044E+02</pdfrwt>
<totfact> 0.24676685E+06</totfact>
</mgrwt>
</event>
<event>
 5    1  0.1595802E+000  0.1380189E+03  0.7546771E-02  0.1216020E+00
         21   -1    0    0  503  502  0.00000000000E+00  0.00000000000E+00  0.22605307068E+03  0.22605307068E+03  0.00000000000E+00 0.  1.
         21   -1    0    0  501  503 -0.00000000000E+00 -0.00000000000E+00 -0.20595150903E+03  0.20595150903E+03  0.00000000000E+00 0. -1.
         24    1    1    2    0    0  0.10749523532E+03 -0.34935724007E+02  0.17283441425E+03  0.22161832310E+03  0.80419002446E+02 0.  1.
          1    1    1    2  501    0 -0.23414807988E+02  0.46872422030E+02 -0.92370447679E+02  0.10619593582E+03  0.00000000000E+00 0. -1.
         -2    1    1    2    0  502 -0.84080427331E+02 -0.11936698023E+02 -0.60362404916E+02  0.10419032079E+03  0.00000000000E+00 0.  1.
<mgrwt>
<rscale>  2 0.13801893E+03</rscale>
<asrwt>0</asrwt>
<pdfrwt beam="1">  1       21 0.34777396E-01 0.13801893E+03</pdfrwt>
<pdfrwt beam="2">  1       21 0.31684848E-01 0.13801893E+03</pdfrwt>
<totfact> 0.78099702E+04</totfact>
</mgrwt>
</event>
<event>
 5    1  0.1595802E+000  0.1128233E+03  0.7546771E-02  0.1255429E+00
         21   -1    0    0  503  502  0.00000000000E+00  0.00000000000E+00  0.15916273444E+04  0.15916273444E+04  0.00000000000E+00 0.  1.
         21   -1    0    0  501  503 -0.00000000000E+00 -0.00000000000E+00 -0.38757171939E+03  0.38757171939E+03  0.00000000000E+00 0. -1.
         24    1    1    2    0    0  0.32045310530E+02 -0.22810545996E+02  0.52113093618E+02  0.10358674344E+03  0.80419002446E+02 0.  0.
          1    1    1    2  501    0  0.25507372303E+02  0.61631557339E+02 -0.35795659343E+03  0.36411810953E+03  0.00000000000E+00 0. -1.
         -2    1    1    2    0  502 -0.57552682832E+02 -0.38821011342E+02  0.15098991248E+04  0.15114942108E+04  0.00000000000E+00 0.  1.
<mgrwt>
<rscale>  2 0.11282328E+03</rscale>
<asrwt>0</asrwt>
<pdfrwt beam="1">  1       21 0.24486574E+00 0.11282328E+03</pdfrwt>
<pdfrwt beam="2">  1       21 0.59626419E-01 0.11282328E+03</pdfrwt>
<totfact> 0.21652633E+02</totfact>
</mgrwt>
</event>
<event>
 5    1  0.1595802E+000  0.6813273E+02  0.7546771E-02  0.1366560E+00
         21   -1    0    0  503  502  0.00000000000E+00  0.00000000000E+00  0.33743155763E+01  0.33743155763E+01  0.00000000000E+00 0.  1.
         21   -1    0    0  501  503 -0.00000000000E+00 -0.00000000000E+00 -0.15918344356E+04  0.15918344356E+04  0.00000000000E+00 0.  1.
         24    1    1    2    0    0  0.71124005745E+01  0.20917158719E+02 -0.11721460874E+04  0.11751092629E+04  0.80419002446E+02 0.  1.
          1    1    1    2  501    0 -0.22098918627E+02  0.52481759453E+01 -0.25359886296E+03  0.25461399971E+03  0.00000000000E+00 0. -1.
         -2    1    1    2    0  502  0.14986518052E+02 -0.26165334664E+02 -0.16271516972E+03  0.16548548854E+03  0.00000000000E+00 0.  1.
<mgrwt>
<rscale>  2 0.68132728E+02</rscale>
<asrwt>0</asrwt>
<pdfrwt beam="1">  1       21 0.51912640E-03 0.68132728E+02</pdfrwt>
<pdfrwt beam="2">  1       21 0.24489717E+00 0.68132728E+02</pdfrwt>
<totfact> 0.80375188E+05</totfact>
</mgrwt>
</event>
<event>
 5    1  0.1595802E+000  0.9774768E+02  0.7546771E-02  0.1285105E+00
         21   -1    0    0  501  502  0.00000000000E+00  0.00000000000E+00  0.46792785071E+02  0.46792785071E+02  0.00000000000E+00 0.  1.
         21   -1    0    0  502  503 -0.00000000000E+00 -0.00000000000E+00 -0.32472149097E+03  0.32472149097E+03  0.00000000000E+00 0.  1.
         24    1    1    2    0    0  0.37036005593E+02  0.88600696930E+01 -0.86177756883E+02  0.12387085323E+03  0.80419002446E+02 0.  1.
          1    1    1    2  501    0 -0.25650042816E+02  0.44820385847E+02 -0.37267622681E+01  0.51775287936E+02  0.00000000000E+00 0. -1.
         -2    1    1    2    0  503 -0.11385962777E+02 -0.53680455540E+02 -0.18802418675E+03  0.19586813487E+03  0.00000000000E+00 0.  1.
<mgrwt>
<rscale>  2 0.97747676E+02</rscale>
<asrwt>0</asrwt>
<pdfrwt beam="1">  1       21 0.71988903E-02 0.97747676E+02</pdfrwt>
<pdfrwt beam="2">  1       21 0.49957150E-01 0.97747676E+02</pdfrwt>
<totfact> 0.55525858E+05</totfact>
</mgrwt>
</event>
<event>
 5    1  0.1595802E+000  0.1135252E+03  0.7546771E-02  0.1254178E+00
         21   -1    0    0  503  502  0.00000000000E+00  0.00000000000E+00  0.43139762274E+02  0.43139762274E+02  0.00000000000E+00 0. -1.
         21   -1    0    0  501  503 -0.00000000000E+00 -0.00000000000E+00 -0.31728574128E+03  0.31728574128E+03  0.00000000000E+00 0. -1.
         24    1    1    2    0    0 -0.46456040131E+00  0.97204457121E+02 -0.13913474400E+03  0.18781537542E+03  0.80419002446E+02 0. -1.
          1    1    1    2  501    0  0.11824682566E+02 -0.75233263383E+02 -0.12403642068E+03  0.14555033731E+03  0.00000000000E+00 0. -1.
         -2    1    1    2    0  502 -0.11360122165E+02 -0.21971193739E+02 -0.10974814326E+02  0.27059790823E+02  0.00000000000E+00 0.  1.
<mgrwt>
<rscale>  2 0.11352517E+03</rscale>
<asrwt>0</asrwt>
<pdfrwt beam="1">  1       21 0.66368865E-02 0.11352517E+03</pdfrwt>
<pdfrwt beam="2">  1       21 0.48813191E-01 0.11352517E+03</pdfrwt>
<totfact> 0.66841766E+05</totfact>
</mgrwt>
</event>
<event>
 5    1  0.1595802E+000  0.6852859E+02  0.7546771E-02  0.1365169E+00
         21   -1    0    0  503  502  0.00000000000E+00  0.00000000000E+00  0.85743383851E+03  0.85743383851E+03  0.00000000000E+00 0.  1.
         21   -1    0    0  501  503 -0.00000000000E+00 -0.00000000000E+00 -0.25946468897E+02  0.25946468897E+02  0.00000000000E+00 0. -1.
         24    1    1    2    0    0 -0.26752984006E+02 -0.10768345298E+02  0.20037351243E+03  0.21782662796E+03  0.80419002446E+02 0.  1.
          1    1    1    2  501    0 -0.35046402275E+01  0.19751986403E+02 -0.10855193390E+02  0.22809180027E+02  0.00000000000E+00 0. -1.
         -2    1    1    2    0  502  0.30257624233E+02 -0.89836411048E+01  0.64196905057E+03  0.64274449941E+03  0.00000000000E+00 0.  1.
<mgrwt>
<rscale>  2 0.68528587E+02</rscale>
<asrwt>0</asrwt>
<pdfrwt beam="1">  1       21 0.13191288E+00 0.68528587E+02</pdfrwt>
<pdfrwt beam="2">  1       21 0.39917651E-02 0.68528587E+02</pdfrwt>
<totfact> 0.17296644E+05</totfact>
</mgrwt>
</event>
<event>
 5    1  0.1595802E+000  0.1077487E+03  0.7546771E-02  0.1264797E+00
         21   -1    0    0  501  502  0.00000000000E+00  0.00000000000E+00  0.39851052757E+02  0.39851052757E+02  0.00000000000E+00 0.  1.
         21   -1    0    0  502  503 -0.00000000000E+00 -0.00000000000E+00 -0.36447246995E+03  0.36447246995E+03  0.00000000000E+00 0.  1.
         24    1    1    2    0    0  0.75086036526E+02 -0.79888395838E+01 -0.10435781780E+03  0.15185356278E+03  0.80419002446E+02 0.  1.
          1    1    1    2  501    0 -0.79870602627E+01  0.32714079749E+02 -0.18528661282E+02  0.38435861306E+02  0.00000000000E+00 0. -1.
         -2    1    1    2    0  503 -0.67098976263E+02 -0.24725240165E+02 -0.20173493811E+03  0.21403409862E+03  0.00000000000E+00 0.  1.
<mgrwt>
<rscale>  2 0.10774873E+03</rscale>
<asrwt>0</asrwt>
<pdfrwt beam="1">  1       21 0.61309310E-02 0.10774873E+03</pdfrwt>
<pdfrwt beam="2">  1       21 0.56072689E-01 0.10774873E+03</pdfrwt>
<totfact> 0.57406321E+05</totfact>
</mgrwt>
</event>
<event>
 5    1  0.1595802E+000  0.2519158E+03  0.7546771E-02  0.1112100E+00
         21   -1    0    0  501  502  0.00000000000E+00  0.00000000000E+00  0.17889885237E+03  0.17889885237E+03  0.00000000000E+00 0. -1.
         21   -1    0    0  502  503 -0.00000000000E+00 -0.00000000000E+00 -0.73014760550E+03  0.73014760550E+03  0.00000000000E+00 0.  1.
         24    1    1    2    0    0 -0.19694332052E+03 -0.98600823803E+01 -0.32100137004E+03  0.38521810477E+03  0.80419002446E+02 0.  1.
          1    1    1    2  501    0  0.91111694899E+02 -0.10207867028E+03  0.93212137137E+02  0.16555935004E+03  0.00000000000E+00 0. -1.
         -2    1    1    2    0  503  0.10583162562E+03  0.11193875267E+03 -0.32345952023E+03  0.35826900306E+03  0.00000000000E+00 0.  1.
<mgrwt>
<rscale>  2 0.25191580E+03</rscale>
<asrwt>0</asrwt>
<pdfrwt beam="1">  1       21 0.27522900E-01 0.25191580E+03</pdfrwt>
<pdfrwt beam="2">  1       21 0.11233040E+00 0.25191580E+03</pdfrwt>
<totfact> 0.75118774E+03</totfact>
</mgrwt>
</event>
<event>
 5    1  0.1595802E+000  0.8886440E+02  0.7546771E-02  0.1305625E+00
         21   -1    0    0  501  502  0.00000000000E+00  0.00000000000E+00  0.73336595981E+02  0.73336595981E+02  0.00000000000E+00 0.  1.
         21   -1    0    0  502  503 -0.00000000000E+00 -0.00000000000E+00 -0.11206436703E+03  0.11206436703E+03  0.00000000000E+00 0. -1.
         24    1    1    2    0    0 -0.15272679242E+02  0.68026147843E+02 -0.30240242577E+02  0.11064583023E+03  0.80419002446E+02 0.  0.
          1    1    1    2  501    0  0.16495494696E+02 -0.40337969726E+02  0.51191068149E+01  0.43880045596E+02  0.00000000000E+00 0. -1.
         -2    1    1    2    0  503 -0.12228154543E+01 -0.27688178117E+02 -0.13606635290E+02  0.30875087190E+02  0.00000000000E+00 0.  1.
<mgrwt>
<rscale>  2 0.88864398E+02</rscale>
<asrwt>0</asrwt>
<pdfrwt beam="1">  1       21 0.11282553E-01 0.88864398E+02</pdfrwt>
<pdfrwt beam="2">  1       21 0.17240672E-01 0.88864398E+02</pdfrwt>
<totfact> 0.19558633E+06</totfact>
</mgrwt>
</event>
<event>
 5    1  0.1595802E+000  0.7395270E+02  0.7546771E-02  0.1347145E+00
         21   -1    0    0  503  502  0.00000000000E+00  0.00000000000E+00  0.10661953907E+04  0.10661953907E+04  0.00000000000E+00 0. -1.
         21   -1    0    0  501  503 -0.00000000000E+00 -0.00000000000E+00 -0.16137929113E+02  0.16137929113E+02  0.00000000000E+00 0. -1.
         24    1    1    2    0    0  0.21597123140E+02 -0.83308837564E+01  0.89616851539E+03  0.90006725486E+03  0.80419002446E+02 0. -1.
          1    1    1    2  501    0  0.19387067684E+02  0.12434464645E+02  0.74457330267E-01  0.23032148147E+02  0.00000000000E+00 0. -1.
         -2    1    1    2    0  502 -0.40984190824E+02 -0.41035808882E+01  0.15381448884E+03  0.15923391677E+03  0.00000000000E+00 0.  1.
<mgrwt>
<rscale>  2 0.73952702E+02</rscale>
<asrwt>0</asrwt>
<pdfrwt beam="1">  1       21 0.16403000E+00 0.73952702E+02</pdfrwt>
<pdfrwt beam="2">  1       21 0.24827592E-02 0.73952702E+02</pdfrwt>
<totfact> 0.21514315E+05</totfact>
</mgrwt>
</event>
<event>
 5    1  0.1595802E+000  0.6991870E+02  0.7546771E-02  0.1360370E+00
         21   -1    0    0  503  502  0.00000000000E+00  0.00000000000E+00  0.63431892779E+02  0.63431892779E+02  0.00000000000E+00 0. -1.
         21   -1    0    0  501  503 -0.00000000000E+00 -0.00000000000E+00 -0.20275900892E+03  0.20275900892E+03  0.00000000000E+00 0. -1.
         24    1    1    2    0    0  0.68862171036E+00 -0.81891590361E+01 -0.29985258613E+02  0.86219882939E+02  0.80419002446E+02 0. -1.
          1    1    1    2  501    0  0.23140630663E+02  0.21600527346E+02 -0.13727755310E+03  0.14088008431E+03  0.00000000000E+00 0. -1.
         -2    1    1    2    0  502 -0.23829252374E+02 -0.13411368310E+02  0.27935695577E+02  0.39090934448E+02  0.00000000000E+00 0.  1.
<mgrwt>
<rscale>  2 0.69918699E+02</rscale>
<asrwt>0</asrwt>
<pdfrwt beam="1">  1       21 0.97587527E-02 0.69918699E+02</pdfrwt>
<pdfrwt beam="2">  1       21 0.31193694E-01 0.69918699E+02</pdfrwt>
<totfact> 0.83268234E+05</totfact>
</mgrwt>
</event>
<event>
 5    1  0.1595802E+000  0.7972829E+02  0.7546771E-02  0.1329824E+00
         21   -1    0    0  503  502  0.00000000000E+00  0.00000000000E+00  0.45395820824E+03  0.45395820824E+03  0.00000000000E+00 0.  1.
         21   -1    0    0  501  503 -0.00000000000E+00 -0.00000000000E+00 -0.35598596332E+02  0.35598596332E+02  0.00000000000E+00 0. -1.
         24    1    1    2    0    0  0.30841453196E+02 -0.36613692417E+02  0.15046833511E+03  0.17719958671E+03  0.80419002446E+02 0.  1.
          1    1    1    2  501    0 -0.28797589565E+02 -0.39677648496E+00 -0.11136276863E+02  0.30878394691E+02  0.00000000000E+00 0. -1.
         -2    1    1    2    0  502 -0.20438636317E+01  0.37010468902E+02  0.27902755367E+03  0.28147882317E+03  0.00000000000E+00 0.  1.
<mgrwt>
<rscale>  2 0.79728286E+02</rscale>
<asrwt>0</asrwt>
<pdfrwt beam="1">  1       21 0.69839720E-01 0.79728286E+02</pdfrwt>
<pdfrwt beam="2">  1       21 0.54767075E-02 0.79728286E+02</pdfrwt>
<totfact> 0.43633819E+05</totfact>
</mgrwt>
</event>
<event>
 5    1  0.1595802E+000  0.9086439E+02  0.7546771E-02  0.1300772E+00
         21   -1    0    0  503  502  0.00000000000E+00  0.00000000000E+00  0.10606420635E+03  0.10606420635E+03  0.00000000000E+00 0.  1.
         21   -1    0    0  501  503 -0.00000000000E+00 -0.00000000000E+00 -0.10560861598E+03  0.10560861598E+03  0.00000000000E+00 0.  1.
         24    1    1    2    0    0 -0.20136396468E+02 -0.54046411975E+02 -0.52344867622E+02  0.11195396478E+03  0.80419002446E+02 0.  1.
          1    1    1    2  501    0  0.18679011435E+02 -0.82730605836E+01  0.46505499682E+01  0.20951768771E+02  0.00000000000E+00 0. -1.
         -2    1    1    2    0  502  0.14573850326E+01  0.62319472559E+02  0.48149908022E+02  0.78767088772E+02  0.00000000000E+00 0.  1.
<mgrwt>
<rscale>  2 0.90864391E+02</rscale>
<asrwt>0</asrwt>
<pdfrwt beam="1">  1       21 0.16317570E-01 0.90864391E+02</pdfrwt>
<pdfrwt beam="2">  1       21 0.16247479E-01 0.90864391E+02</pdfrwt>
<totfact> 0.11329987E+06</totfact>
</mgrwt>
</event>
<event>
 5    1  0.1595802E+000  0.9146087E+02  0.7546771E-02  0.1299352E+00
         21   -1    0    0  501  502  0.00000000000E+00  0.00000000000E+00  0.14098814907E+02  0.14098814907E+02  0.00000000000E+00 0. -1.
         21   -1    0    0  502  503 -0.00000000000E+00 -0.00000000000E+00 -0.74207575591E+03  0.74207575591E+03  0.00000000000E+00 0.  1.
         24    1    1    2    0    0 -0.14571286836E+01 -0.44879248421E+02 -0.46830124009E+03  0.47727302206E+03  0.80419002446E+02 0.  1.
          1    1    1    2  501    0 -0.32393512690E+02 -0.26083183969E+01 -0.39588456868E+02  0.51219028754E+02  0.00000000000E+00 0. -1.
         -2    1    1    2    0  503  0.33850641373E+02  0.47487566818E+02 -0.22008724405E+03  0.22768252001E+03  0.00000000000E+00 0.  1.
<mgrwt>
<rscale>  2 0.91460865E+02</rscale>
<asrwt>0</asrwt>
<pdfrwt beam="1">  1       21 0.21690487E-02 0.91460865E+02</pdfrwt>
<pdfrwt beam="2">  1       21 0.11416549E+00 0.91460865E+02</pdfrwt>
<totfact> 0.65316382E+05</totfact>
</mgrwt>
</event>
<event>
 5    1  0.1595802E+000  0.1304786E+03  0.7546771E-02  0.1226747E+00
         21   -1    0    0  501  502  0.00000000000E+00  0.00000000000E+00  0.83363908822E+03  0.83363908822E+03  0.00000000000E+00 0. -1.
         21   -1    0    0  502  503 -0.00000000000E+00 -0.00000000000E+00 -0.15966704488E+03  0.15966704488E+03  0.00000000000E+00 0. -1.
         24    1    1    2    0    0 -0.10091514254E+03 -0.43899018866E+02 -0.43932167255E+02  0.14320698700E+03  0.80419002446E+02 0. -1.
          1    1    1    2  501    0  0.10618186619E+02  0.31831253557E+02  0.75205899077E+03  0.75280721316E+03  0.00000000000E+00 0. -1.
         -2    1    1    2    0  503  0.90296955918E+02  0.12067765308E+02 -0.34154780172E+02  0.97291932946E+02  0.00000000000E+00 0.  1.
<mgrwt>
<rscale>  2 0.13047861E+03</rscale>
<asrwt>0</asrwt>
<pdfrwt beam="1">  1       21 0.12825216E+00 0.13047861E+03</pdfrwt>
<pdfrwt beam="2">  1       21 0.24564161E-01 0.13047861E+03</pdfrwt>
<totfact> 0.73925164E+03</totfact>
</mgrwt>
</event>
<event>
 5    1  0.1595802E+000  0.7805202E+02  0.7546771E-02  0.1334672E+00
         21   -1    0    0  503  502  0.00000000000E+00  0.00000000000E+00  0.93546519705E+02  0.93546519705E+02  0.00000000000E+00 0.  1.
         21   -1    0    0  501  503 -0.00000000000E+00 -0.00000000000E+00 -0.24156886111E+03  0.24156886111E+03  0.00000000000E+00 0. -1.
         24    1    1    2    0    0  0.73980831154E+00  0.15863664902E+02 -0.47944803313E+02  0.94963799943E+02  0.80419002446E+02 0.  0.
          1    1    1    2  501    0  0.21237781944E+02 -0.37623963696E+02 -0.16375618890E+03  0.16935966294E+03  0.00000000000E+00 0. -1.
         -2    1    1    2    0  502 -0.21977590255E+02  0.21760298794E+02  0.63678650807E+02  0.70791917940E+02  0.00000000000E+00 0.  1.
<mgrwt>
<rscale>  2 0.78052019E+02</rscale>
<asrwt>0</asrwt>
<pdfrwt beam="1">  1       21 0.14391772E-01 0.78052019E+02</pdfrwt>
<pdfrwt beam="2">  1       21 0.37164440E-01 0.78052019E+02</pdfrwt>
<totfact> 0.30202010E+05</totfact>
</mgrwt>
</event>
<event>
 5    1  0.1595802E+000  0.8332608E+02  0.7546771E-02  0.1319869E+00
         21   -1    0    0  501  502  0.00000000000E+00  0.00000000000E+00  0.15767201758E+02  0.15767201758E+02  0.00000000000E+00 0. -1.
         21   -1    0    0  502  503 -0.00000000000E+00 -0.00000000000E+00 -0.93155029575E+03  0.93155029575E+03  0.00000000000E+00 0. -1.
         24    1    1    2    0    0  0.34605968232E+02 -0.10107939683E+02 -0.78905590253E+03  0.79396232703E+03  0.80419002446E+02 0. -1.
          1    1    1    2  501    0 -0.40539220892E+02 -0.21826021327E+02 -0.40887484855E+02  0.61575888587E+02  0.00000000000E+00 0. -1.
         -2    1    1    2    0  503  0.59332526597E+01  0.31933961010E+02 -0.85839706607E+02  0.91779281885E+02  0.00000000000E+00 0.  1.
<mgrwt>
<rscale>  2 0.83326078E+02</rscale>
<asrwt>0</asrwt>
<pdfrwt beam="1">  1       21 0.24257228E-02 0.83326078E+02</pdfrwt>
<pdfrwt beam="2">  1       21 0.14331546E+00 0.83326078E+02</pdfrwt>
<totfact> 0.31375880E+05</totfact>
</mgrwt>
</event>
<event>
 5    1  0.1595802E+000  0.7324342E+02  0.7546771E-02  0.1349399E+00
         21   -1    0    0  501  502  0.00000000000E+00  0.00000000000E+00  0.79640828736E+02  0.79640828736E+02  0.00000000000E+00 0. -1.
         21   -1    0    0  502  503 -0.00000000000E+00 -0.00000000000E+00 -0.15157331895E+03  0.15157331895E+03  0.00000000000E+00 0.  1.
         24    1    1    2    0    0 -0.37560853365E+02  0.12917439894E+02 -0.66837001855E+02  0.11185740356E+03  0.80419002446E+02 0.  1.
          1    1    1    2  501    0  0.15712442460E+02 -0.26686347388E+02  0.49826417517E+02  0.58666121975E+02  0.00000000000E+00 0. -1.
         -2    1    1    2    0  503  0.21848410904E+02  0.13768907494E+02 -0.54921905880E+02  0.60690622160E+02  0.00000000000E+00 0.  1.
<mgrwt>
<rscale>  2 0.73243419E+02</rscale>
<asrwt>0</asrwt>
<pdfrwt beam="1">  1       21 0.12252435E-01 0.73243419E+02</pdfrwt>
<pdfrwt beam="2">  1       21 0.23318972E-01 0.73243419E+02</pdfrwt>
<totfact> 0.96971919E+05</totfact>
</mgrwt>
</event>
<event>
 5    1  0.1595802E+000  0.8688412E+02  0.7546771E-02  0.1310578E+00
         21   -1    0    0  501  502  0.00000000000E+00  0.00000000000E+00  0.28311632788E+02  0.28311632788E+02  0.00000000000E+00 0. -1.
         21   -1    0    0  502  503 -0.00000000000E+00 -0.00000000000E+00 -0.41591824754E+03  0.41591824754E+03  0.00000000000E+00 0. -1.
         24    1    1    2    0    0 -0.40361076169E+02  0.53531214623E+02 -0.34967476236E+03  0.36501268854E+03  0.80419002446E+02 0. -1.
          1    1    1    2  501    0  0.17080812720E+02 -0.36261563439E+02 -0.17405809136E+02  0.43699168618E+02  0.00000000000E+00 0. -1.
         -2    1    1    2    0  503  0.23280263449E+02 -0.17269651184E+02 -0.20526043258E+02  0.35518023173E+02  0.00000000000E+00 0.  1.
<mgrwt>
<rscale>  2 0.86884116E+02</rscale>
<asrwt>0</asrwt>
<pdfrwt beam="1">  1       21 0.43556360E-02 0.86884116E+02</pdfrwt>
<pdfrwt beam="2">  1       21 0.63987419E-01 0.86884116E+02</pdfrwt>
<totfact> 0.76916160E+05</totfact>
</mgrwt>
</event>
<event>
 5    1  0.1595802E+000  0.7337753E+02  0.7546771E-02  0.1348970E+00
         21   -1    0    0  501  502  0.00000000000E+00  0.00000000000E+00  0.40401234985E+03  0.40401234985E+03  0.00000000000E+00 0. -1.
         21   -1    0    0  502  503 -0.00000000000E+00 -0.00000000000E+00 -0.19751211763E+02  0.19751211763E+02  0.00000000000E+00 0. -1.
         24    1    1    2    0    0  0.23654537946E+02  0.54485057100E+01  0.10169964778E+03  0.13190624584E+03  0.80419002446E+02 0. -1.
          1    1    1    2  501    0 -0.33258524445E+02  0.17711156364E+02  0.23586390335E+03  0.23885475798E+03  0.00000000000E+00 0. -1.
         -2    1    1    2    0  503  0.96039864994E+01 -0.23159662074E+02  0.46697586953E+02  0.53002557780E+02  0.00000000000E+00 0.  1.
<mgrwt>
<rscale>  2 0.73377534E+02</rscale>
<asrwt>0</asrwt>
<pdfrwt beam="1">  1       21 0.62155740E-01 0.73377534E+02</pdfrwt>
<pdfrwt beam="2">  1       21 0.30386483E-02 0.73377534E+02</pdfrwt>
<totfact> 0.14678399E+06</totfact>
</mgrwt>
</event>
<event>
 5    1  0.1595802E+000  0.7386634E+02  0.7546771E-02  0.1347418E+00
         21   -1    0    0  503  502  0.00000000000E+00  0.00000000000E+00  0.11867670173E+03  0.11867670173E+03  0.00000000000E+00 0.  1.
         21   -1    0    0  501  503 -0.00000000000E+00 -0.00000000000E+00 -0.13285359662E+03  0.13285359662E+03  0.00000000000E+00 0. -1.
         24    1    1    2    0    0  0.37560353458E+02 -0.27900698052E+02 -0.38323345856E+02  0.10062367463E+03  0.80419002446E+02 0. -1.
          1    1    1    2  501    0 -0.16727405745E+02  0.29379058369E+02 -0.57461233441E+02  0.66668797215E+02  0.00000000000E+00 0. -1.
         -2    1    1    2    0  502 -0.20832947713E+02 -0.14783603168E+01  0.81607684413E+02  0.84237826508E+02  0.00000000000E+00 0.  1.
<mgrwt>
<rscale>  2 0.73866339E+02</rscale>
<asrwt>0</asrwt>
<pdfrwt beam="1">  1       21 0.18257954E-01 0.73866339E+02</pdfrwt>
<pdfrwt beam="2">  1       21 0.20439015E-01 0.73866339E+02</pdfrwt>
<totfact> 0.60862602E+05</totfact>
</mgrwt>
</event>
<event>
 5    1  0.1595802E+000  0.8232786E+02  0.7546771E-02  0.1322572E+00
         21   -1    0    0  501  502  0.00000000000E+00  0.00000000000E+00  0.15327289382E+03  0.15327289382E+03  0.00000000000E+00 0. -1.
         21   -1    0    0  502  503 -0.00000000000E+00 -0.00000000000E+00 -0.86502245698E+02  0.86502245698E+02  0.00000000000E+00 0. -1.
         24    1    1    2    0    0 -0.55049723815E+02 -0.23421156027E+02  0.11804881685E+03  0.15486045898E+03  0.80419002446E+02 0. -1.
          1    1    1    2  501    0  0.41794991319E+02  0.55309089324E+01 -0.20371803404E+02  0.46823312857E+02  0.00000000000E+00 0. -1.
         -2    1    1    2    0  503  0.13254732496E+02  0.17890247094E+02 -0.30906365321E+02  0.38091367683E+02  0.00000000000E+00 0.  1.
<mgrwt>
<rscale>  2 0.82327856E+02</rscale>
<asrwt>0</asrwt>
<pdfrwt beam="1">  1       21 0.23580445E-01 0.82327856E+02</pdfrwt>
<pdfrwt beam="2">  1       21 0.13308038E-01 0.82327856E+02</pdfrwt>
<totfact> 0.82364424E+05</totfact>
</mgrwt>
</event>
<event>
 5    1  0.1595802E+000  0.8787686E+02  0.7546771E-02  0.1308076E+00
         21   -1    0    0  503  502  0.00000000000E+00  0.00000000000E+00  0.36123001192E+03  0.36123001192E+03  0.00000000000E+00 0. -1.
         21   -1    0    0  501  503 -0.00000000000E+00 -0.00000000000E+00 -0.28921572411E+02  0.28921572411E+02  0.00000000000E+00 0.  1.
         24    1    1    2    0    0 -0.13090252092E+02  0.40168831606E+02  0.10839315114E+03  0.14142553129E+03  0.80419002446E+02 0. -1.
          1    1    1    2  501    0  0.69318472969E+01  0.21678315294E+02  0.81300327132E+01  0.24168104867E+02  0.00000000000E+00 0. -1.
         -2    1    1    2    0  502  0.61584047953E+01 -0.61847146900E+02  0.21578525566E+03  0.22455794817E+03  0.00000000000E+00 0.  1.
<mgrwt>
<rscale>  2 0.87876856E+02</rscale>
<asrwt>0</asrwt>
<pdfrwt beam="1">  1       21 0.55573845E-01 0.87876856E+02</pdfrwt>
<pdfrwt beam="2">  1       21 0.44494729E-02 0.87876856E+02</pdfrwt>
<totfact> 0.99815090E+05</totfact>
</mgrwt>
</event>
<event>
 5    1  0.1595802E+000  0.9342439E+02  0.7546771E-02  0.1294765E+00
         21   -1    0    0  503  502  0.00000000000E+00  0.00000000000E+00  0.37572491059E+03  0.37572491059E+03  0.00000000000E+00 0. -1.
         21   -1    0    0  501  503 -0.00000000000E+00 -0.00000000000E+00 -0.40624141671E+02  0.40624141671E+02  0.00000000000E+00 0. -1.
         24    1    1    2    0    0 -0.57696140120E+02  0.22989085968E+02  0.27030843344E+03  0.28877535872E+03  0.80419002446E+02 0. -1.
          1    1    1    2  501    0  0.86009378892E+01 -0.33876263773E+02 -0.10977541868E+02  0.36634461989E+02  0.00000000000E+00 0. -1.
         -2    1    1    2    0  502  0.49095202231E+02  0.10887177804E+02  0.75769877344E+02  0.90939231552E+02  0.00000000000E+00 0.  1.
<mgrwt>
<rscale>  2 0.93424386E+02</rscale>
<asrwt>0</asrwt>
<pdfrwt beam="1">  1       21 0.57803830E-01 0.93424386E+02</pdfrwt>
<pdfrwt beam="2">  1       21 0.62498682E-02 0.93424386E+02</pdfrwt>
<totfact> 0.52181045E+05</totfact>
</mgrwt>
</event>
<event>
 5    1  0.1595802E+000  0.2109563E+03  0.7546771E-02  0.1140811E+00
         21   -1    0    0  503  502  0.00000000000E+00  0.00000000000E+00  0.30845099417E+03  0.30845099417E+03  0.00000000000E+00 0.  1.
         21   -1    0    0  501  503 -0.00000000000E+00 -0.00000000000E+00 -0.65307479361E+03  0.65307479361E+03  0.00000000000E+00 0. -1.
         24    1    1    2    0    0  0.17840764337E+02  0.19709814902E+03 -0.21540944301E+03  0.30337174771E+03  0.80419002446E+02 0.  1.
          1    1    1    2  501    0 -0.21594668882E+02 -0.15321436820E+02 -0.36189504741E+03  0.36286237265E+03  0.00000000000E+00 0. -1.
         -2    1    1    2    0  502  0.37539045449E+01 -0.18177671220E+03  0.23268069098E+03  0.29529166742E+03  0.00000000000E+00 0.  1.
<mgrwt>
<rscale>  2 0.21095629E+03</rscale>
<asrwt>0</asrwt>
<pdfrwt beam="1">  1       21 0.47453999E-01 0.21095629E+03</pdfrwt>
<pdfrwt beam="2">  1       21 0.10047305E+00 0.21095629E+03</pdfrwt>
<totfact> 0.33962883E+03</totfact>
</mgrwt>
</event>
<event>
 5    1  0.1595802E+000  0.6306179E+02  0.7546771E-02  0.1385414E+00
         21   -1    0    0  501  502  0.00000000000E+00  0.00000000000E+00  0.28051265905E+02  0.28051265905E+02  0.00000000000E+00 0. -1.
         21   -1    0    0  502  503 -0.00000000000E+00 -0.00000000000E+00 -0.15063386088E+03  0.15063386088E+03  0.00000000000E+00 0.  1.
         24    1    1    2    0    0 -0.18710795311E+01  0.22202184923E+02 -0.84095483336E+02  0.11847237748E+03  0.80419002446E+02 0.  1.
          1    1    1    2  501    0  0.19157932640E+02 -0.11640855645E+02 -0.83958806855E+01  0.23937976432E+02  0.00000000000E+00 0. -1.
         -2    1    1    2    0  503 -0.17286853109E+02 -0.10561329278E+02 -0.30091230952E+02  0.36274772870E+02  0.00000000000E+00 0.  1.
<mgrwt>
<rscale>  2 0.63061793E+02</rscale>
<asrwt>0</asrwt>
<pdfrwt beam="1">  1       21 0.43155793E-02 0.63061793E+02</pdfrwt>
<pdfrwt beam="2">  1       21 0.23174440E-01 0.63061793E+02</pdfrwt>
<totfact> 0.56567961E+06</totfact>
</mgrwt>
</event>
<event>
 5    1  0.1595802E+000  0.7121125E+02  0.7546771E-02  0.1356022E+00
         21   -1    0    0  501  502  0.00000000000E+00  0.00000000000E+00  0.94424837858E+02  0.94424837858E+02  0.00000000000E+00 0. -1.
         21   -1    0    0  502  503 -0.00000000000E+00 -0.00000000000E+00 -0.91037936142E+02  0.91037936142E+02  0.00000000000E+00 0.  1.
         24    1    1    2    0    0 -0.42490224010E+01 -0.35014491752E+02 -0.45377073513E+02  0.98845149496E+02  0.80419002446E+02 0.  1.
          1    1    1    2  501    0  0.22970015338E+02  0.16527594136E+02  0.52891096996E+02  0.59985424180E+02  0.00000000000E+00 0. -1.
         -2    1    1    2    0  503 -0.18720992937E+02  0.18486897616E+02 -0.41271217671E+01  0.26632200324E+02  0.00000000000E+00 0.  1.
<mgrwt>
<rscale>  2 0.71211251E+02</rscale>
<asrwt>0</asrwt>
<pdfrwt beam="1">  1       21 0.14526898E-01 0.71211251E+02</pdfrwt>
<pdfrwt beam="2">  1       21 0.14005836E-01 0.71211251E+02</pdfrwt>
<totfact> 0.18003348E+06</totfact>
</mgrwt>
</event>
<event>
 5    1  0.1595802E+000  0.7954553E+02  0.7546771E-02  0.1330346E+00
         21   -1    0    0  503  502  0.00000000000E+00  0.00000000000E+00  0.53017529301E+01  0.53017529301E+01  0.00000000000E+00 0.  1.
         21   -1    0    0  501  503 -0.00000000000E+00 -0.00000000000E+00 -0.20017943201E+04  0.20017943201E+04  0.00000000000E+00 0.  1.
         24    1    1    2    0    0  0.10496204468E+02  0.51254579142E+02 -0.98555424326E+03  0.99021289860E+03  0.80419002446E+02 0.  0.
          1    1    1    2  501    0  0.12237795908E+02 -0.28356041424E+02 -0.91769538478E+03  0.91821492472E+03  0.00000000000E+00 0. -1.
         -2    1    1    2    0  502 -0.22734000375E+02 -0.22898537718E+02 -0.93242939092E+02  0.98668249672E+02  0.00000000000E+00 0.  1.
<mgrwt>
<rscale>  2 0.79545532E+02</rscale>
<asrwt>0</asrwt>
<pdfrwt beam="1">  1       21 0.81565330E-03 0.79545532E+02</pdfrwt>
<pdfrwt beam="2">  1       21 0.30796873E+00 0.79545532E+02</pdfrwt>
<totfact> 0.17972084E+05</totfact>
</mgrwt>
</event>
<event>
 5    1  0.1595802E+000  0.7693200E+02  0.7546771E-02  0.1337991E+00
         21   -1    0    0  503  502  0.00000000000E+00  0.00000000000E+00  0.55935509292E+02  0.55935509292E+02  0.00000000000E+00 0.  1.
         21   -1    0    0  501  503 -0.00000000000E+00 -0.00000000000E+00 -0.17194675520E+03  0.17194675520E+03  0.00000000000E+00 0. -1.
         24    1    1    2    0    0 -0.27104204649E+02  0.11194147188E+01 -0.57037869801E+02  0.10225666504E+03  0.80419002446E+02 0.  1.
          1    1    1    2  501    0 -0.20583166723E+02 -0.48919793127E+01 -0.72815531465E+02  0.75826775195E+02  0.00000000000E+00 0. -1.
         -2    1    1    2    0  502  0.47687371372E+02  0.37725645939E+01  0.13842155361E+02  0.49798824254E+02  0.00000000000E+00 0.  1.
<mgrwt>
<rscale>  2 0.76932000E+02</rscale>
<asrwt>0</asrwt>
<pdfrwt beam="1">  1       21 0.86054629E-02 0.76932000E+02</pdfrwt>
<pdfrwt beam="2">  1       21 0.26453347E-01 0.76932000E+02</pdfrwt>
<totfact> 0.14139886E+06</totfact>
</mgrwt>
</event>
<event>
 5    1  0.1595802E+000  0.1298001E+03  0.7546771E-02  0.1227753E+00
         21   -1    0    0  503  502  0.00000000000E+00  0.00000000000E+00  0.30193022219E+03  0.30193022219E+03  0.00000000000E+00 0. -1.
         21   -1    0    0  501  503 -0.00000000000E+00 -0.00000000000E+00 -0.12573535699E+03  0.12573535699E+03  0.00000000000E+00 0. -1.
         24    1    1    2    0    0  0.10128710662E+03  0.16047145525E+02  0.19630851097E+03  0.23562859818E+03  0.80419002446E+02 0. -1.
          1    1    1    2  501    0 -0.10249784029E+03 -0.36490077997E+02 -0.75868619610E+02  0.13264004108E+03  0.00000000000E+00 0. -1.
         -2    1    1    2    0  502  0.12107336685E+01  0.20442932472E+02  0.55754973843E+02  0.59396939924E+02  0.00000000000E+00 0.  1.
<mgrwt>
<rscale>  2 0.12980010E+03</rscale>
<asrwt>0</asrwt>
<pdfrwt beam="1">  1       21 0.46450803E-01 0.12980010E+03</pdfrwt>
<pdfrwt beam="2">  1       21 0.19343901E-01 0.12980010E+03</pdfrwt>
<totfact> 0.11161071E+05</totfact>
</mgrwt>
</event>
<event>
 5    1  0.1595802E+000  0.1030258E+03  0.7546771E-02  0.1274059E+00
         21   -1    0    0  503  502  0.00000000000E+00  0.00000000000E+00  0.16713990840E+03  0.16713990840E+03  0.00000000000E+00 0.  1.
         21   -1    0    0  501  503 -0.00000000000E+00 -0.00000000000E+00 -0.11835264042E+03  0.11835264042E+03  0.00000000000E+00 0. -1.
         24    1    1    2    0    0 -0.26067002360E+02 -0.19835876661E+02  0.39562974410E+02  0.95422196126E+02  0.80419002446E+02 0. -1.
          1    1    1    2  501    0 -0.45348512490E+02  0.14467832015E+02 -0.69120145144E+02  0.83924967756E+02  0.00000000000E+00 0. -1.
         -2    1    1    2    0  502  0.71415514850E+02  0.53680446459E+01  0.78344438714E+02  0.10614538493E+03  0.00000000000E+00 0.  1.
<mgrwt>
<rscale>  2 0.10302580E+03</rscale>
<asrwt>0</asrwt>
<pdfrwt beam="1">  1       21 0.25713832E-01 0.10302580E+03</pdfrwt>
<pdfrwt beam="2">  1       21 0.18208098E-01 0.10302580E+03</pdfrwt>
<totfact> 0.39972262E+05</totfact>
</mgrwt>
</event>
<event>
 5    1  0.1595802E+000  0.7739502E+02  0.7546771E-02  0.1336611E+00
         21   -1    0    0  503  502  0.00000000000E+00  0.00000000000E+00  0.61716737192E+01  0.61716737192E+01  0.00000000000E+00 0.  1.
         21   -1    0    0  501  503 -0.00000000000E+00 -0.00000000000E+00 -0.10432615841E+04  0.10432615841E+04  0.00000000000E+00 0. -1.
         24    1    1    2    0    0 -0.44340214121E+01 -0.20852306210E+02 -0.43279079176E+03  0.44071483366E+03  0.80419002446E+02 0.  1.
          1    1    1    2  501    0 -0.38371651014E+01 -0.24852065423E+02 -0.27717796809E+03  0.27831632181E+03  0.00000000000E+00 0. -1.
         -2    1    1    2    0  502  0.82711865135E+01  0.45704371633E+02 -0.32712115057E+03  0.33040210239E+03  0.00000000000E+00 0.  1.
<mgrwt>
<rscale>  2 0.77395021E+02</rscale>
<asrwt>0</asrwt>
<pdfrwt beam="1">  1       21 0.94948807E-03 0.77395021E+02</pdfrwt>
<pdfrwt beam="2">  1       21 0.16050181E+00 0.77395021E+02</pdfrwt>
<totfact> 0.10365513E+06</totfact>
</mgrwt>
</event>
<event>
 5    1  0.1595802E+000  0.1172515E+03  0.7546771E-02  0.1247701E+00
         21   -1    0    0  501  502  0.00000000000E+00  0.00000000000E+00  0.37471010403E+03  0.37471010403E+03  0.00000000000E+00 0. -1.
         21   -1    0    0  502  503 -0.00000000000E+00 -0.00000000000E+00 -0.48912439673E+02  0.48912439673E+02  0.00000000000E+00 0. -1.
         24    1    1    2    0    0  0.81511776159E+02  0.15073821142E+02  0.72781803467E+02  0.13651299062E+03  0.80419002446E+02 0. -1.
          1    1    1    2  501    0  0.80959518554E+01 -0.27388564259E+02  0.13729306811E+03  0.14023218047E+03  0.00000000000E+00 0. -1.
         -2    1    1    2    0  503 -0.89607728014E+02  0.12314743117E+02  0.11572279277E+03  0.14687737261E+03  0.00000000000E+00 0.  1.
<mgrwt>
<rscale>  2 0.11725147E+03</rscale>
<asrwt>0</asrwt>
<pdfrwt beam="1">  1       21 0.57647707E-01 0.11725147E+03</pdfrwt>
<pdfrwt beam="2">  1       21 0.75249910E-02 0.11725147E+03</pdfrwt>
<totfact> 0.38185419E+05</totfact>
</mgrwt>
</event>
<event>
 5    1  0.1595802E+000  0.8066787E+02  0.7546771E-02  0.1327167E+00
         21   -1    0    0  501  502  0.00000000000E+00  0.00000000000E+00  0.99623498981E+02  0.99623498981E+02  0.00000000000E+00 0. -1.
         21   -1    0    0  502  503 -0.00000000000E+00 -0.00000000000E+00 -0.20898156629E+03  0.20898156629E+03  0.00000000000E+00 0.  1.
         24    1    1    2    0    0  0.31516338144E+02 -0.12222424710E+02 -0.84412039996E+02  0.12138894384E+03  0.80419002446E+02 0.  0.
          1    1    1    2  501    0 -0.30827451224E+01 -0.26156192211E+02  0.73347155998E+02  0.77932374541E+02  0.00000000000E+00 0. -1.
         -2    1    1    2    0  503 -0.28433593021E+02  0.38378616922E+02 -0.98293183313E+02  0.10928374689E+03  0.00000000000E+00 0.  1.
<mgrwt>
<rscale>  2 0.80667873E+02</rscale>
<asrwt>0</asrwt>
<pdfrwt beam="1">  1       21 0.15326692E-01 0.80667873E+02</pdfrwt>
<pdfrwt beam="2">  1       21 0.32151010E-01 0.80667873E+02</pdfrwt>
<totfact> 0.35730530E+05</totfact>
</mgrwt>
</event>
<event>
 5    1  0.1595802E+000  0.1142492E+03  0.7546771E-02  0.1252897E+00
         21   -1    0    0  503  502  0.00000000000E+00  0.00000000000E+00  0.19859544976E+03  0.19859544976E+03  0.00000000000E+00 0.  1.
         21   -1    0    0  501  503 -0.00000000000E+00 -0.00000000000E+00 -0.43150168244E+03  0.43150168244E+03  0.00000000000E+00 0.  1.
         24    1    1    2    0    0 -0.48779441594E+02 -0.17993434694E+02 -0.11659884238E+03  0.15088307928E+03  0.80419002446E+02 0.  1.
          1    1    1    2  501    0  0.84725910177E+02 -0.12443266350E+02 -0.28837233316E+03  0.30081874487E+03  0.00000000000E+00 0. -1.
         -2    1    1    2    0  502 -0.35946468583E+02  0.30436701044E+02  0.17206494286E+03  0.17839530805E+03  0.00000000000E+00 0.  1.
<mgrwt>
<rscale>  2 0.11424922E+03</rscale>
<asrwt>0</asrwt>
<pdfrwt beam="1">  1       21 0.30553147E-01 0.11424922E+03</pdfrwt>
<pdfrwt beam="2">  1       21 0.66384873E-01 0.11424922E+03</pdfrwt>
<totfact> 0.22546167E+04</totfact>
</mgrwt>
</event>
<event>
 5    1  0.1595802E+000  0.6811499E+02  0.7546771E-02  0.1366623E+00
         21   -1    0    0  501  502  0.00000000000E+00  0.00000000000E+00  0.17645954075E+03  0.17645954075E+03  0.00000000000E+00 0.  1.
         21   -1    0    0  502  503 -0.00000000000E+00 -0.00000000000E+00 -0.45184783544E+02  0.45184783544E+02  0.00000000000E+00 0.  1.
         24    1    1    2    0    0 -0.29901433490E+02 -0.26611261093E+01  0.13019866541E+03  0.15594898443E+03  0.80419002446E+02 0.  1.
          1    1    1    2  501    0  0.17922300255E+02 -0.18698843510E+02  0.21613241632E+02  0.33734074893E+02  0.00000000000E+00 0. -1.
         -2    1    1    2    0  503  0.11979133235E+02  0.21359969619E+02 -0.20537149833E+02  0.31961264970E+02  0.00000000000E+00 0.  1.
<mgrwt>
<rscale>  2 0.68114989E+02</rscale>
<asrwt>0</asrwt>
<pdfrwt beam="1">  1       21 0.27147621E-01 0.68114989E+02</pdfrwt>
<pdfrwt beam="2">  1       21 0.69515052E-02 0.68114989E+02</pdfrwt>
<totfact> 0.19238163E+06</totfact>
</mgrwt>
</event>
<event>
 5    1  0.1595802E+000  0.8869554E+02  0.7546771E-02  0.1306042E+00
         21   -1    0    0  503  502  0.00000000000E+00  0.00000000000E+00  0.58286487797E+02  0.58286487797E+02  0.00000000000E+00 0.  1.
         21   -1    0    0  501  503 -0.00000000000E+00 -0.00000000000E+00 -0.49604146398E+03  0.49604146398E+03  0.00000000000E+00 0. -1.
         24    1    1    2    0    0  0.67318131103E+00 -0.72384331424E+01 -0.32295065096E+03  0.33289215521E+03  0.80419002446E+02 0.  0.
          1    1    1    2  501    0  0.23037004167E+02 -0.38648570959E+02 -0.15152387833E+03  0.15806296626E+03  0.00000000000E+00 0. -1.
         -2    1    1    2    0  502 -0.23710185478E+02  0.45887004101E+02  0.36719553111E+02  0.63372830310E+02  0.00000000000E+00 0.  1.
<mgrwt>
<rscale>  2 0.88695537E+02</rscale>
<asrwt>0</asrwt>
<pdfrwt beam="1">  1       21 0.89671522E-02 0.88695537E+02</pdfrwt>
<pdfrwt beam="2">  1       21 0.76314069E-01 0.88695537E+02</pdfrwt>
<totfact> 0.15598382E+05</totfact>
</mgrwt>
</event>
<event>
 5    1  0.1595802E+000  0.7324496E+02  0.7546771E-02  0.1349394E+00
         21   -1    0    0  501  502  0.00000000000E+00  0.00000000000E+00  0.77323875136E+02  0.77323875136E+02  0.00000000000E+00 0.  1.
         21   -1    0    0  502  503 -0.00000000000E+00 -0.00000000000E+00 -0.78816082210E+02  0.78816082210E+02  0.00000000000E+00 0. -1.
         24    1    1    2    0    0  0.66846546813E+01  0.24200432955E+02  0.10833119203E+02  0.84940673352E+02  0.80419002446E+02 0.  1.
          1    1    1    2  501    0 -0.15914385939E+02  0.15060966035E+02  0.11095614962E+02  0.24560395948E+02  0.00000000000E+00 0. -1.
         -2    1    1    2    0  503  0.92297312580E+01 -0.39261398990E+02 -0.23420941239E+02  0.46638888047E+02  0.00000000000E+00 0.  1.
<mgrwt>
<rscale>  2 0.73244956E+02</rscale>
<asrwt>0</asrwt>
<pdfrwt beam="1">  1       21 0.11895981E-01 0.73244956E+02</pdfrwt>
<pdfrwt beam="2">  1       21 0.12125551E-01 0.73244956E+02</pdfrwt>
<totfact> 0.32976845E+06</totfact>
</mgrwt>
</event>
<event>
 5    1  0.1595802E+000  0.8956141E+02  0.7546771E-02  0.1303917E+00
         21   -1    0    0  503  502  0.00000000000E+00  0.00000000000E+00  0.72269848142E+03  0.72269848142E+03  0.00000000000E+00 0. -1.
         21   -1    0    0  501  503 -0.00000000000E+00 -0.00000000000E+00 -0.13758151717E+02  0.13758151717E+02  0.00000000000E+00 0.  1.
         24    1    1    2    0    0  0.24112836058E+02 -0.33218879855E+01  0.33779238189E+03  0.34808529561E+03  0.80419002446E+02 0. -1.
          1    1    1    2  501    0  0.33302776850E+02  0.14974901418E+02  0.49946557977E+02  0.61870681846E+02  0.00000000000E+00 0. -1.
         -2    1    1    2    0  502 -0.57415612908E+02 -0.11653013433E+02  0.32120138984E+03  0.32650065568E+03  0.00000000000E+00 0.  1.
<mgrwt>
<rscale>  2 0.89561406E+02</rscale>
<asrwt>0</asrwt>
<pdfrwt beam="1">  1       21 0.11118435E+00 0.89561406E+02</pdfrwt>
<pdfrwt beam="2">  1       21 0.21166393E-02 0.89561406E+02</pdfrwt>
<totfact> 0.72329121E+05</totfact>
</mgrwt>
</event>
<event>
 5    1  0.1595802E+000  0.8161656E+02  0.7546771E-02  0.1324525E+00
         21   -1    0    0  501  502  0.00000000000E+00  0.00000000000E+00  0.38203181694E+01  0.38203181694E+01  0.00000000000E+00 0.  1.
         21   -1    0    0  502  503 -0.00000000000E+00 -0.00000000000E+00 -0.19777004982E+04  0.19777004982E+04  0.00000000000E+00 0. -1.
         24    1    1    2    0    0 -0.14461765353E+02  0.23088123111E+02 -0.11843179078E+04  0.11873577080E+04  0.80419002446E+02 0. -1.
          1    1    1    2  501    0 -0.29703712863E+02 -0.31592572759E+01 -0.16184459285E+03  0.16457813858E+03  0.00000000000E+00 0. -1.
         -2    1    1    2    0  503  0.44165478216E+02 -0.19928865835E+02 -0.62771767935E+03  0.62958496975E+03  0.00000000000E+00 0.  1.
<mgrwt>
<rscale>  2 0.81616565E+02</rscale>
<asrwt>0</asrwt>
<pdfrwt beam="1">  1       21 0.58774168E-03 0.81616565E+02</pdfrwt>
<pdfrwt beam="2">  1       21 0.30426140E+00 0.81616565E+02</pdfrwt>
<totfact> 0.31106243E+05</totfact>
</mgrwt>
</event>
<event>
 5    1  0.1595802E+000  0.6625951E+02  0.7546771E-02  0.1373295E+00
         21   -1    0    0  503  502  0.00000000000E+00  0.00000000000E+00  0.31047503426E+01  0.31047503426E+01  0.00000000000E+00 0.  1.
         21   -1    0    0  501  503 -0.00000000000E+00 -0.00000000000E+00 -0.23500611174E+04  0.23500611174E+04  0.00000000000E+00 0.  1.
         24    1    1    2    0    0 -0.15580881130E+02 -0.83203663790E+00 -0.14227454416E+04  0.14251018433E+04  0.80419002446E+02 0.  0.
          1    1    1    2  501    0  0.11666661263E+02 -0.23350628863E+02 -0.83888667676E+03  0.83929268989E+03  0.00000000000E+00 0. -1.
         -2    1    1    2    0  502  0.39142198663E+01  0.24182665501E+02 -0.85324248629E+02  0.88771334518E+02  0.00000000000E+00 0.  1.
<mgrwt>
<rscale>  2 0.66259508E+02</rscale>
<asrwt>0</asrwt>
<pdfrwt beam="1">  1       21 0.47765442E-03 0.66259508E+02</pdfrwt>
<pdfrwt beam="2">  1       21 0.36154747E+00 0.66259508E+02</pdfrwt>
<totfact> 0.21307576E+05</totfact>
</mgrwt>
</event>
<event>
 5    1  0.1595802E+000  0.8881575E+02  0.7546771E-02  0.1305745E+00
         21   -1    0    0  503  502  0.00000000000E+00  0.00000000000E+00  0.14751735186E+02  0.14751735186E+02  0.00000000000E+00 0. -1.
         21   -1    0    0  501  503 -0.00000000000E+00 -0.00000000000E+00 -0.76110375278E+03  0.76110375278E+03  0.00000000000E+00 0.  1.
         24    1    1    2    0    0 -0.44828516189E+02 -0.17459812951E+02 -0.20797729411E+03  0.22811447072E+03  0.80419002446E+02 0. -1.
          1    1    1    2  501    0  0.57382079196E+01 -0.25325404864E+02 -0.34223158408E+03  0.34321532644E+03  0.00000000000E+00 0. -1.
         -2    1    1    2    0  502  0.39090308270E+02  0.42785217814E+02 -0.19614313940E+03  0.20452569080E+03  0.00000000000E+00 0.  1.
<mgrwt>
<rscale>  2 0.88815753E+02</rscale>
<asrwt>0</asrwt>
<pdfrwt beam="1">  1       21 0.22694969E-02 0.88815753E+02</pdfrwt>
<pdfrwt beam="2">  1       21 0.11709293E+00 0.88815753E+02</pdfrwt>
<totfact> 0.57202111E+05</totfact>
</mgrwt>
</event>
<event>
 5    1  0.1595802E+000  0.7324366E+02  0.7546771E-02  0.1349398E+00
         21   -1    0    0  501  502  0.00000000000E+00  0.00000000000E+00  0.22461642541E+01  0.22461642541E+01  0.00000000000E+00 0.  1.
         21   -1    0    0  502  503 -0.00000000000E+00 -0.00000000000E+00 -0.24914036078E+04  0.24914036078E+04  0.00000000000E+00 0. -1.
         24    1    1    2    0    0 -0.20806921819E+02  0.19773494358E+02 -0.15742795098E+04  0.15765935145E+04  0.80419002446E+02 0. -1.
          1    1    1    2  501    0  0.61451008141E+01 -0.37553879586E+02 -0.44942120076E+03  0.45102934697E+03  0.00000000000E+00 0. -1.
         -2    1    1    2    0  503  0.14661821005E+02  0.17780385228E+02 -0.46545673297E+03  0.46602691055E+03  0.00000000000E+00 0.  1.
<mgrwt>
<rscale>  2 0.73243662E+02</rscale>
<asrwt>0</asrwt>
<pdfrwt beam="1">  1       21 0.34556454E-03 0.73243662E+02</pdfrwt>
<pdfrwt beam="2">  1       21 0.38329197E+00 0.73243662E+02</pdfrwt>
<totfact> 0.25730391E+05</totfact>
</mgrwt>
</event>
<event>
 5    1  0.1595802E+000  0.8695112E+02  0.7546771E-02  0.1310408E+00
         21   -1    0    0  503  502  0.00000000000E+00  0.00000000000E+00  0.37007936409E+02  0.37007936409E+02  0.00000000000E+00 0.  1.
         21   -1    0    0  501  503 -0.00000000000E+00 -0.00000000000E+00 -0.24578812319E+03  0.24578812319E+03  0.00000000000E+00 0. -1.
         24    1    1    2    0    0 -0.92805786751E+01  0.34070786705E+02 -0.59427379608E+02  0.10604610813E+03  0.80419002446E+02 0.  1.
          1    1    1    2  501    0  0.17474537229E+02  0.22736963795E+02 -0.88811034320E+02  0.93325927753E+02  0.00000000000E+00 0. -1.
         -2    1    1    2    0  502 -0.81939585539E+01 -0.56807750500E+02 -0.60541772855E+02  0.83424023723E+02  0.00000000000E+00 0.  1.
<mgrwt>
<rscale>  2 0.86951124E+02</rscale>
<asrwt>0</asrwt>
<pdfrwt beam="1">  1       21 0.56935287E-02 0.86951124E+02</pdfrwt>
<pdfrwt beam="2">  1       21 0.37813558E-01 0.86951124E+02</pdfrwt>
<totfact> 0.14388243E+06</totfact>
</mgrwt>
</event>
<event>
 5    1  0.1595802E+000  0.1042780E+03  0.7546771E-02  0.1271549E+00
         21   -1    0    0  501  502  0.00000000000E+00  0.00000000000E+00  0.95295172980E+02  0.95295172980E+02  0.00000000000E+00 0.  1.
         21   -1    0    0  502  503 -0.00000000000E+00 -0.00000000000E+00 -0.13447239966E+03  0.13447239966E+03  0.00000000000E+00 0. -1.
         24    1    1    2    0    0 -0.56677859555E+02 -0.48023782786E+02 -0.26173236977E+02  0.11256517119E+03  0.80419002446E+02 0.  0.
          1    1    1    2  501    0  0.71110301405E+02  0.33518974897E+02  0.17435785423E+02  0.80524550650E+02  0.00000000000E+00 0. -1.
         -2    1    1    2    0  503 -0.14432441850E+02  0.14504807889E+02 -0.30439775131E+02  0.36677850805E+02  0.00000000000E+00 0.  1.
<mgrwt>
<rscale>  2 0.10427803E+03</rscale>
<asrwt>0</asrwt>
<pdfrwt beam="1">  1       21 0.14660796E-01 0.10427803E+03</pdfrwt>
<pdfrwt beam="2">  1       21 0.20688061E-01 0.10427803E+03</pdfrwt>
<totfact> 0.88636803E+05</totfact>
</mgrwt>
</event>
<event>
 5    1  0.1595802E+000  0.7014286E+02  0.7546771E-02  0.1359608E+00
         21   -1    0    0  501  502  0.00000000000E+00  0.00000000000E+00  0.26810841876E+03  0.26810841876E+03  0.00000000000E+00 0. -1.
         21   -1    0    0  502  503 -0.00000000000E+00 -0.00000000000E+00 -0.74683864097E+02  0.74683864097E+02  0.00000000000E+00 0.  1.
         24    1    1    2    0    0 -0.18535567880E+02  0.56342635667E+01  0.19832380449E+02  0.85063808234E+02  0.80419002446E+02 0. -1.
          1    1    1    2  501    0  0.23219021221E+02 -0.27047486141E+02  0.21120644835E+03  0.21419349495E+03  0.00000000000E+00 0. -1.
         -2    1    1    2    0  503 -0.46834533407E+01  0.21413222575E+02 -0.37614274139E+02  0.43534979674E+02  0.00000000000E+00 0.  1.
<mgrwt>
<rscale>  2 0.70142862E+02</rscale>
<asrwt>0</asrwt>
<pdfrwt beam="1">  1       21 0.41247449E-01 0.70142862E+02</pdfrwt>
<pdfrwt beam="2">  1       21 0.11489825E-01 0.70142862E+02</pdfrwt>
<totfact> 0.36568321E+05</totfact>
</mgrwt>
</event>
<event>
 5    1  0.1595802E+000  0.1032288E+03  0.7546771E-02  0.1273649E+00
         21   -1    0    0  503  502  0.00000000000E+00  0.00000000000E+00  0.31036009840E+03  0.31036009840E+03  0.00000000000E+00 0. -1.
         21   -1    0    0  501  503 -0.00000000000E+00 -0.00000000000E+00 -0.50699033952E+02  0.50699033952E+02  0.00000000000E+00 0. -1.
         24    1    1    2    0    0  0.81984974719E+02  0.26554231898E+02  0.23824210428E+03  0.26580665815E+03  0.80419002446E+02 0. -1.
          1    1    1    2  501    0 -0.32314626837E+02 -0.21152501759E+02 -0.46435743060E+01  0.38900208490E+02  0.00000000000E+00 0. -1.
         -2    1    1    2    0  502 -0.49670347882E+02 -0.54017301395E+01  0.26062534471E+02  0.56352265706E+02  0.00000000000E+00 0.  1.
<mgrwt>
<rscale>  2 0.10322878E+03</rscale>
<asrwt>0</asrwt>
<pdfrwt beam="1">  1       21 0.47747706E-01 0.10322878E+03</pdfrwt>
<pdfrwt beam="2">  1       21 0.77998516E-02 0.10322878E+03</pdfrwt>
<totfact> 0.53101783E+05</totfact>
</mgrwt>
</event>
<event>
 5    1  0.1595802E+000  0.1106378E+03  0.7546771E-02  0.1259393E+00
         21   -1    0    0  501  502  0.00000000000E+00  0.00000000000E+00  0.73098672365E+02  0.73098672365E+02  0.00000000000E+00 0. -1.
         21   -1    0    0  502  503 -0.00000000000E+00 -0.00000000000E+00 -0.17572868908E+03  0.17572868908E+03  0.00000000000E+00 0. -1.
         24    1    1    2    0    0 -0.14840596343E+02  0.77440932028E+02 -0.46595989519E+02  0.12188413944E+03  0.80419002446E+02 0. -1.
          1    1    1    2  501    0 -0.87359739636E+01 -0.83781427518E+02 -0.25832215784E+02  0.88107594510E+02  0.00000000000E+00 0. -1.
         -2    1    1    2    0  503  0.23576570306E+02  0.63404954901E+01 -0.30201811417E+02  0.38835627500E+02  0.00000000000E+00 0.  1.
<mgrwt>
<rscale>  2 0.11063783E+03</rscale>
<asrwt>0</asrwt>
<pdfrwt beam="1">  1       21 0.11245950E-01 0.11063783E+03</pdfrwt>
<pdfrwt beam="2">  1       21 0.27035183E-01 0.11063783E+03</pdfrwt>
<totfact> 0.86038140E+05</totfact>
</mgrwt>
</event>
<event>
 5    1  0.1595802E+000  0.8374468E+02  0.7546771E-02  0.1318748E+00
         21   -1    0    0  503  502  0.00000000000E+00  0.00000000000E+00  0.17232254988E+04  0.17232254988E+04  0.00000000000E+00 0. -1.
         21   -1    0    0  501  503 -0.00000000000E+00 -0.00000000000E+00 -0.97141557287E+01  0.97141557287E+01  0.00000000000E+00 0. -1.
         24    1    1    2    0    0 -0.19436374716E+02 -0.24212496595E+02  0.14597729800E+04  0.14623161035E+04  0.80419002446E+02 0. -1.
          1    1    1    2  501    0  0.42922123898E+02 -0.56510086420E+01  0.64988699712E+02  0.78088243090E+02  0.00000000000E+00 0. -1.
         -2    1    1    2    0  502 -0.23485749182E+02  0.29863505237E+02  0.18874966336E+03  0.19253530787E+03  0.00000000000E+00 0.  1.
<mgrwt>
<rscale>  2 0.83744677E+02</rscale>
<asrwt>0</asrwt>
<pdfrwt beam="1">  1       21 0.26511137E+00 0.83744677E+02</pdfrwt>
<pdfrwt beam="2">  1       21 0.14944869E-02 0.83744677E+02</pdfrwt>
<totfact> 0.11860700E+05</totfact>
</mgrwt>
</event>
<event>
 5    1  0.1595802E+000  0.7689719E+02  0.7546771E-02  0.1338095E+00
         21   -1    0    0  501  502  0.00000000000E+00  0.00000000000E+00  0.10817467352E+03  0.10817467352E+03  0.00000000000E+00 0. -1.
         21   -1    0    0  502  503 -0.00000000000E+00 -0.00000000000E+00 -0.60574651615E+02  0.60574651615E+02  0.00000000000E+00 0.  1.
         24    1    1    2    0    0  0.17735806390E+02 -0.15167638354E+02  0.48200080514E+02  0.96618216696E+02  0.80419002446E+02 0.  0.
          1    1    1    2  501    0  0.19805362650E+02 -0.12502150892E+02  0.79173350853E+01  0.24723275703E+02  0.00000000000E+00 0. -1.
         -2    1    1    2    0  503 -0.37541169040E+02  0.27669789246E+02 -0.85173936900E+01  0.47407832740E+02  0.00000000000E+00 0.  1.
<mgrwt>
<rscale>  2 0.76897194E+02</rscale>
<asrwt>0</asrwt>
<pdfrwt beam="1">  1       21 0.16642257E-01 0.76897194E+02</pdfrwt>
<pdfrwt beam="2">  1       21 0.93191772E-02 0.76897194E+02</pdfrwt>
<totfact> 0.28821290E+06</totfact>
</mgrwt>
</event>
<event>
 5    1  0.1595802E+000  0.1406773E+03  0.7546771E-02  0.1212420E+00
         21   -1    0    0  501  502  0.00000000000E+00  0.00000000000E+00  0.97740765202E+03  0.97740765202E+03  0.00000000000E+00 0. -1.
         21   -1    0    0  502  503 -0.00000000000E+00 -0.00000000000E+00 -0.75091679427E+02  0.75091679427E+02  0.00000000000E+00 0.  1.
         24    1    1    2    0    0  0.12510075881E+03  0.31947621366E+02  0.14261478173E+02  0.15277910878E+03  0.80419002446E+02 0.  1.
          1    1    1    2  501    0 -0.68645472443E+02 -0.20469171855E+02  0.68238422084E+03  0.68613366973E+03  0.00000000000E+00 0. -1.
         -2    1    1    2    0  503 -0.56455286366E+02 -0.11478449511E+02  0.20567027358E+03  0.21358655294E+03  0.00000000000E+00 0.  1.
<mgrwt>
<rscale>  2 0.14067735E+03</rscale>
<asrwt>0</asrwt>
<pdfrwt beam="1">  1       21 0.15037040E+00 0.14067735E+03</pdfrwt>
<pdfrwt beam="2">  1       21 0.11552567E-01 0.14067735E+03</pdfrwt>
<totfact> 0.19373180E+04</totfact>
</mgrwt>
</event>
<event>
 5    1  0.1595802E+000  0.1343428E+03  0.7546771E-02  0.1221150E+00
         21   -1    0    0  503  502  0.00000000000E+00  0.00000000000E+00  0.24223447340E+02  0.24223447340E+02  0.00000000000E+00 0.  1.
         21   -1    0    0  501  503 -0.00000000000E+00 -0.00000000000E+00 -0.79370957495E+03  0.79370957495E+03  0.00000000000E+00 0. -1.
         24    1    1    2    0    0  0.11136133382E+03  0.85097548551E+01 -0.30555641378E+03  0.33512042695E+03  0.80419002446E+02 0. -1.
          1    1    1    2  501    0 -0.31077742863E+02 -0.34727970791E+02 -0.21343013615E+03  0.21845887730E+03  0.00000000000E+00 0. -1.
         -2    1    1    2    0  502 -0.80283590959E+02  0.26218215936E+02 -0.25049957768E+03  0.26435371804E+03  0.00000000000E+00 0.  1.
<mgrwt>
<rscale>  2 0.13434281E+03</rscale>
<asrwt>0</asrwt>
<pdfrwt beam="1">  1       21 0.37266839E-02 0.13434281E+03</pdfrwt>
<pdfrwt beam="2">  1       21 0.12210918E+00 0.13434281E+03</pdfrwt>
<totfact> 0.22744697E+05</totfact>
</mgrwt>
</event>
<event>
 5    1  0.1595802E+000  0.1658800E+03  0.7546771E-02  0.1182214E+00
         21   -1    0    0  501  502  0.00000000000E+00  0.00000000000E+00  0.43876361917E+03  0.43876361917E+03  0.00000000000E+00 0. -1.
         21   -1    0    0  502  503 -0.00000000000E+00 -0.00000000000E+00 -0.17053624634E+03  0.17053624634E+03  0.00000000000E+00 0. -1.
         24    1    1    2    0    0 -0.49895885697E+02 -0.10451237086E+03 -0.77075086517E+02  0.16068671379E+03  0.80419002446E+02 0. -1.
          1    1    1    2  501    0 -0.18225807015E+02  0.11960954093E+03  0.35782252442E+03  0.37772421329E+03  0.00000000000E+00 0. -1.
         -2    1    1    2    0  503  0.68121692712E+02 -0.15097170072E+02 -0.12520065086E+02  0.70888938431E+02  0.00000000000E+00 0.  1.
<mgrwt>
<rscale>  2 0.16587998E+03</rscale>
<asrwt>0</asrwt>
<pdfrwt beam="1">  1       21 0.67502095E-01 0.16587998E+03</pdfrwt>
<pdfrwt beam="2">  1       21 0.26236346E-01 0.16587998E+03</pdfrwt>
<totfact> 0.28145051E+04</totfact>
</mgrwt>
</event>
<event>
 5    1  0.1595802E+000  0.7187112E+02  0.7546771E-02  0.1353843E+00
         21   -1    0    0  503  502  0.00000000000E+00  0.00000000000E+00  0.40974390215E+02  0.40974390215E+02  0.00000000000E+00 0. -1.
         21   -1    0    0  501  503 -0.00000000000E+00 -0.00000000000E+00 -0.14201904261E+03  0.14201904261E+03  0.00000000000E+00 0.  1.
         24    1    1    2    0    0 -0.64980257751E+01  0.44222335976E+01 -0.86545902194E+02  0.11840265888E+03  0.80419002446E+02 0.  1.
          1    1    1    2  501    0 -0.23870632590E+02  0.13751942728E+02 -0.66283359892E+01  0.28334746638E+02  0.00000000000E+00 0. -1.
         -2    1    1    2    0  502  0.30368658365E+02 -0.18174176326E+02 -0.78704142080E+01  0.36256027303E+02  0.00000000000E+00 0.  1.
<mgrwt>
<rscale>  2 0.71871116E+02</rscale>
<asrwt>0</asrwt>
<pdfrwt beam="1">  1       21 0.63037522E-02 0.71871116E+02</pdfrwt>
<pdfrwt beam="2">  1       21 0.21849084E-01 0.71871116E+02</pdfrwt>
<totfact> 0.33993608E+06</totfact>
</mgrwt>
</event>
<event>
 5    1  0.1595802E+000  0.1093300E+03  0.7546771E-02  0.1261816E+00
         21   -1    0    0  501  502  0.00000000000E+00  0.00000000000E+00  0.24883517613E+03  0.24883517613E+03  0.00000000000E+00 0.  1.
         21   -1    0    0  502  503 -0.00000000000E+00 -0.00000000000E+00 -0.66341072586E+02  0.66341072586E+02  0.00000000000E+00 0.  1.
         24    1    1    2    0    0 -0.16720617238E+02  0.79882613808E+02  0.17342518719E+03  0.20785649505E+03  0.80419002446E+02 0.  1.
          1    1    1    2  501    0 -0.13291946305E+02 -0.71773172076E+02 -0.50644552690E+01  0.73169069788E+02  0.00000000000E+00 0. -1.
         -2    1    1    2    0  503  0.30012563543E+02 -0.81094417318E+01  0.14133371622E+02  0.34150683874E+02  0.00000000000E+00 0.  1.
<mgrwt>
<rscale>  2 0.10933002E+03</rscale>
<asrwt>0</asrwt>
<pdfrwt beam="1">  1       21 0.38282334E-01 0.10933002E+03</pdfrwt>
<pdfrwt beam="2">  1       21 0.10206319E-01 0.10933002E+03</pdfrwt>
<totfact> 0.51979532E+05</totfact>
</mgrwt>
</event>
<event>
 5    1  0.1595802E+000  0.1066222E+03  0.7546771E-02  0.1266956E+00
         21   -1    0    0  501  502  0.00000000000E+00  0.00000000000E+00  0.68377070352E+02  0.68377070352E+02  0.00000000000E+00 0.  1.
         21   -1    0    0  502  503 -0.00000000000E+00 -0.00000000000E+00 -0.18903051812E+03  0.18903051812E+03  0.00000000000E+00 0. -1.
         24    1    1    2    0    0 -0.23121374044E+02  0.61647837817E+02 -0.87873274590E+02  0.13610283681E+03  0.80419002446E+02 0.  0.
          1    1    1    2  501    0 -0.30979702950E+02 -0.57307097314E+01  0.92998777208E+01  0.32849212388E+02  0.00000000000E+00 0. -1.
         -2    1    1    2    0  503  0.54101076994E+02 -0.55917128086E+02 -0.42080050897E+02  0.88455539276E+02  0.00000000000E+00 0.  1.
<mgrwt>
<rscale>  2 0.10662224E+03</rscale>
<asrwt>0</asrwt>
<pdfrwt beam="1">  1       21 0.10519550E-01 0.10662224E+03</pdfrwt>
<pdfrwt beam="2">  1       21 0.29081617E-01 0.10662224E+03</pdfrwt>
<totfact> 0.84128621E+05</totfact>
</mgrwt>
</event>
<event>
 5    1  0.1595802E+000  0.1093145E+03  0.7546771E-02  0.1261845E+00
         21   -1    0    0  503  502  0.00000000000E+00  0.00000000000E+00  0.10377425775E+03  0.10377425775E+03  0.00000000000E+00 0. -1.
         21   -1    0    0  501  503 -0.00000000000E+00 -0.00000000000E+00 -0.24606947449E+03  0.24606947449E+03  0.00000000000E+00 0. -1.
         24    1    1    2    0    0 -0.93160849412E+02 -0.89396927746E+01  0.27131141818E+02  0.12634150854E+03  0.80419002446E+02 0. -1.
          1    1    1    2  501    0  0.41043361302E+02 -0.48372452749E+01 -0.16422382919E+03  0.16934409503E+03  0.00000000000E+00 0. -1.
         -2    1    1    2    0  502  0.52117488110E+02  0.13776938050E+02 -0.52025293789E+01  0.54158128668E+02  0.00000000000E+00 0.  1.
<mgrwt>
<rscale>  2 0.10931455E+03</rscale>
<asrwt>0</asrwt>
<pdfrwt beam="1">  1       21 0.15965271E-01 0.10931455E+03</pdfrwt>
<pdfrwt beam="2">  1       21 0.37856841E-01 0.10931455E+03</pdfrwt>
<totfact> 0.24040913E+05</totfact>
</mgrwt>
</event>
<event>
 5    1  0.1595802E+000  0.6892300E+02  0.7546771E-02  0.1363794E+00
         21   -1    0    0  501  502  0.00000000000E+00  0.00000000000E+00  0.45309789600E+03  0.45309789600E+03  0.00000000000E+00 0. -1.
         21   -1    0    0  502  503 -0.00000000000E+00 -0.00000000000E+00 -0.51473157898E+02  0.51473157898E+02  0.00000000000E+00 0.  1.
         24    1    1    2    0    0 -0.65315501436E+01  0.44491755596E+02  0.16108211555E+02  0.93535383129E+02  0.80419002446E+02 0.  0.
          1    1    1    2  501    0  0.69725936093E+01 -0.19442659568E+02  0.38542948505E+03  0.38598254108E+03  0.00000000000E+00 0. -1.
         -2    1    1    2    0  503 -0.44104346565E+00 -0.25049096028E+02  0.87041501165E-01  0.25053129692E+02  0.00000000000E+00 0.  1.
<mgrwt>
<rscale>  2 0.68923003E+02</rscale>
<asrwt>0</asrwt>
<pdfrwt beam="1">  1       21 0.69707366E-01 0.68923003E+02</pdfrwt>
<pdfrwt beam="2">  1       21 0.79189477E-02 0.68923003E+02</pdfrwt>
<totfact> 0.23620793E+05</totfact>
</mgrwt>
</event>
<event>
 5    1  0.1595802E+000  0.1670320E+03  0.7546771E-02  0.1180979E+00
         21   -1    0    0  501  502  0.00000000000E+00  0.00000000000E+00  0.42935966895E+03  0.42935966895E+03  0.00000000000E+00 0. -1.
         21   -1    0    0  502  503 -0.00000000000E+00 -0.00000000000E+00 -0.54278850489E+03  0.54278850489E+03  0.00000000000E+00 0.  1.
         24    1    1    2    0    0 -0.10259837142E+03 -0.11765235236E+03  0.14525835090E+03  0.22789406814E+03  0.80419002446E+02 0.  1.
          1    1    1    2  501    0  0.24264705789E+02  0.12369972969E+02  0.23339297346E+03  0.23497674830E+03  0.00000000000E+00 0. -1.
         -2    1    1    2    0  503  0.78333665627E+02  0.10528237939E+03 -0.49208016031E+03  0.50927735739E+03  0.00000000000E+00 0.  1.
<mgrwt>
<rscale>  2 0.16703197E+03</rscale>
<asrwt>0</asrwt>
<pdfrwt beam="1">  1       21 0.66055334E-01 0.16703197E+03</pdfrwt>
<pdfrwt beam="2">  1       21 0.83505923E-01 0.16703197E+03</pdfrwt>
<totfact> 0.26879757E+03</totfact>
</mgrwt>
</event>
<event>
 5    1  0.1595802E+000  0.8299658E+02  0.7546771E-02  0.1320756E+00
         21   -1    0    0  503  502  0.00000000000E+00  0.00000000000E+00  0.16419878293E+03  0.16419878293E+03  0.00000000000E+00 0.  1.
         21   -1    0    0  501  503 -0.00000000000E+00 -0.00000000000E+00 -0.11044143375E+03  0.11044143375E+03  0.00000000000E+00 0. -1.
         24    1    1    2    0    0 -0.54564172456E+02 -0.22906279588E+02 -0.87695718217E+01  0.10023007485E+03  0.80419002446E+02 0.  0.
          1    1    1    2  501    0  0.38511795800E+02  0.41340640800E+00 -0.47393534861E+02  0.61069439716E+02  0.00000000000E+00 0. -1.
         -2    1    1    2    0  502  0.16052376656E+02  0.22492873180E+02  0.10992045586E+03  0.11334070211E+03  0.00000000000E+00 0.  1.
<mgrwt>
<rscale>  2 0.82996584E+02</rscale>
<asrwt>0</asrwt>
<pdfrwt beam="1">  1       21 0.25261351E-01 0.82996584E+02</pdfrwt>
<pdfrwt beam="2">  1       21 0.16990990E-01 0.82996584E+02</pdfrwt>
<totfact> 0.46891401E+05</totfact>
</mgrwt>
</event>
<event>
 5    1  0.1595802E+000  0.8125509E+02  0.7546771E-02  0.1325527E+00
         21   -1    0    0  501  502  0.00000000000E+00  0.00000000000E+00  0.10192498216E+03  0.10192498216E+03  0.00000000000E+00 0. -1.
         21   -1    0    0  502  503 -0.00000000000E+00 -0.00000000000E+00 -0.72067654887E+02  0.72067654887E+02  0.00000000000E+00 0. -1.
         24    1    1    2    0    0 -0.38976243454E+02  0.23102916867E+01 -0.34021604677E+01  0.89461028675E+02  0.80419002446E+02 0. -1.
          1    1    1    2  501    0  0.41173008744E+02  0.23367739012E+02  0.34734551611E+02  0.58717603418E+02  0.00000000000E+00 0. -1.
         -2    1    1    2    0  503 -0.21967652899E+01 -0.25678030699E+02 -0.14750638701E+01  0.25814004954E+02  0.00000000000E+00 0.  1.
<mgrwt>
<rscale>  2 0.81255086E+02</rscale>
<asrwt>0</asrwt>
<pdfrwt beam="1">  1       21 0.15680766E-01 0.81255086E+02</pdfrwt>
<pdfrwt beam="2">  1       21 0.11087332E-01 0.81255086E+02</pdfrwt>
<totfact> 0.23810440E+06</totfact>
</mgrwt>
</event>
<event>
 5    1  0.1595802E+000  0.7801255E+02  0.7546771E-02  0.1334788E+00
         21   -1    0    0  501  502  0.00000000000E+00  0.00000000000E+00  0.69346163529E+02  0.69346163529E+02  0.00000000000E+00 0. -1.
         21   -1    0    0  502  503 -0.00000000000E+00 -0.00000000000E+00 -0.98120932793E+02  0.98120932793E+02  0.00000000000E+00 0.  1.
         24    1    1    2    0    0  0.18772000372E+02  0.23824749172E+01 -0.17601192047E+01  0.82634001226E+02  0.80419002446E+02 0. -1.
          1    1    1    2  501    0 -0.45398628237E+02  0.52748405665E+01  0.61055478385E+00  0.45708119256E+02  0.00000000000E+00 0. -1.
         -2    1    1    2    0  503  0.26626627865E+02 -0.76573154837E+01 -0.27625204842E+02  0.39124975840E+02  0.00000000000E+00 0.  1.
<mgrwt>
<rscale>  2 0.78012551E+02</rscale>
<asrwt>0</asrwt>
<pdfrwt beam="1">  1       21 0.10668641E-01 0.78012551E+02</pdfrwt>
<pdfrwt beam="2">  1       21 0.15095528E-01 0.78012551E+02</pdfrwt>
<totfact> 0.27187075E+06</totfact>
</mgrwt>
</event>
<event>
 5    1  0.1595802E+000  0.8046715E+02  0.7546771E-02  0.1327731E+00
         21   -1    0    0  501  502  0.00000000000E+00  0.00000000000E+00  0.34376449465E+03  0.34376449465E+03  0.00000000000E+00 0. -1.
         21   -1    0    0  502  503 -0.00000000000E+00 -0.00000000000E+00 -0.21440487791E+02  0.21440487791E+02  0.00000000000E+00 0.  1.
         24    1    1    2    0    0  0.25133523069E+02  0.18943439760E+02  0.12568170363E+03  0.15249148984E+03  0.80419002446E+02 0.  1.
          1    1    1    2  501    0  0.23458932604E+02 -0.78050191116E+01  0.11007766583E+03  0.11281991117E+03  0.00000000000E+00 0. -1.
         -2    1    1    2    0  503 -0.48592455673E+02 -0.11138420648E+02  0.86564637393E+02  0.99893581425E+02  0.00000000000E+00 0.  1.
<mgrwt>
<rscale>  2 0.80467153E+02</rscale>
<asrwt>0</asrwt>
<pdfrwt beam="1">  1       21 0.52886841E-01 0.80467153E+02</pdfrwt>
<pdfrwt beam="2">  1       21 0.32985368E-02 0.80467153E+02</pdfrwt>
<totfact> 0.18020393E+06</totfact>
</mgrwt>
</event>
<event>
 5    1  0.1595802E+000  0.1977646E+03  0.7546771E-02  0.1151639E+00
         21   -1    0    0  503  502  0.00000000000E+00  0.00000000000E+00  0.11453981676E+03  0.11453981676E+03  0.00000000000E+00 0.  1.
         21   -1    0    0  501  503 -0.00000000000E+00 -0.00000000000E+00 -0.12231229133E+04  0.12231229133E+04  0.00000000000E+00 0. -1.
         24    1    1    2    0    0  0.91740269354E+02  0.30997944505E+02  0.66429271583E+01  0.12604956969E+03  0.80419002446E+02 0.  0.
          1    1    1    2  501    0 -0.17912790246E+03 -0.80712630967E+01 -0.11064024614E+04  0.11208382387E+04  0.00000000000E+00 0. -1.
         -2    1    1    2    0  502  0.87387633105E+02 -0.22926681408E+02 -0.88235622268E+01  0.90774921594E+02  0.00000000000E+00 0.  1.
<mgrwt>
<rscale>  2 0.19776456E+03</rscale>
<asrwt>0</asrwt>
<pdfrwt beam="1">  1       21 0.17621511E-01 0.19776456E+03</pdfrwt>
<pdfrwt beam="2">  1       21 0.18817275E+00 0.19776456E+03</pdfrwt>
<totfact> 0.46608885E+03</totfact>
</mgrwt>
</event>
<event>
 5    1  0.1595802E+000  0.1010194E+03  0.7546771E-02  0.1278167E+00
         21   -1    0    0  503  502  0.00000000000E+00  0.00000000000E+00  0.86171289560E+02  0.86171289560E+02  0.00000000000E+00 0. -1.
         21   -1    0    0  501  503 -0.00000000000E+00 -0.00000000000E+00 -0.19963874942E+03  0.19963874942E+03  0.00000000000E+00 0. -1.
         24    1    1    2    0    0  0.77319635357E+02 -0.22243334966E+02 -0.26978474850E+01  0.11378746107E+03  0.80419002446E+02 0. -1.
          1    1    1    2  501    0 -0.67200359702E+02  0.38749426713E+01 -0.12817136298E+03  0.14477155042E+03  0.00000000000E+00 0. -1.
         -2    1    1    2    0  502 -0.10119275654E+02  0.18368392295E+02  0.17401750597E+02  0.27251027487E+02  0.00000000000E+00 0.  1.
<mgrwt>
<rscale>  2 0.10101941E+03</rscale>
<asrwt>0</asrwt>
<pdfrwt beam="1">  1       21 0.13257121E-01 0.10101941E+03</pdfrwt>
<pdfrwt beam="2">  1       21 0.30713654E-01 0.10101941E+03</pdfrwt>
<totfact> 0.50426606E+05</totfact>
</mgrwt>
</event>
<event>
 5    1  0.1595802E+000  0.6380790E+02  0.7546771E-02  0.1382513E+00
         21   -1    0    0  501  502  0.00000000000E+00  0.00000000000E+00  0.65068142671E+02  0.65068142671E+02  0.00000000000E+00 0.  1.
         21   -1    0    0  502  503 -0.00000000000E+00 -0.00000000000E+00 -0.69738364203E+02  0.69738364203E+02  0.00000000000E+00 0. -1.
         24    1    1    2    0    0  0.23916104771E+02  0.72829278239E+00  0.17156747889E+02  0.85639245853E+02  0.80419002446E+02 0.  1.
          1    1    1    2  501    0 -0.11118769087E+02  0.17923881300E+02 -0.13602658700E+02  0.25098304137E+02  0.00000000000E+00 0. -1.
         -2    1    1    2    0  503 -0.12797335684E+02 -0.18652174082E+02 -0.82243107222E+01  0.24068956884E+02  0.00000000000E+00 0.  1.
<mgrwt>
<rscale>  2 0.63807898E+02</rscale>
<asrwt>0</asrwt>
<pdfrwt beam="1">  1       21 0.10010484E-01 0.63807898E+02</pdfrwt>
<pdfrwt beam="2">  1       21 0.10728979E-01 0.63807898E+02</pdfrwt>
<totfact> 0.54394550E+06</totfact>
</mgrwt>
</event>
<event>
 5    1  0.1595802E+000  0.7157035E+02  0.7546771E-02  0.1354833E+00
         21   -1    0    0  503  502  0.00000000000E+00  0.00000000000E+00  0.17846126921E+03  0.17846126921E+03  0.00000000000E+00 0.  1.
         21   -1    0    0  501  503 -0.00000000000E+00 -0.00000000000E+00 -0.12591970224E+03  0.12591970224E+03  0.00000000000E+00 0.  1.
         24    1    1    2    0    0  0.27943914864E+01  0.44067902893E+02 -0.10285387750E+03  0.13782570428E+03  0.80419002446E+02 0.  1.
          1    1    1    2  501    0 -0.14622046662E+02 -0.24193948333E+02  0.40719264021E+02  0.49570251633E+02  0.00000000000E+00 0. -1.
         -2    1    1    2    0  502  0.11827655176E+02 -0.19873954560E+02  0.11467618045E+03  0.11698501554E+03  0.00000000000E+00 0.  1.
<mgrwt>
<rscale>  2 0.71570352E+02</rscale>
<asrwt>0</asrwt>
<pdfrwt beam="1">  1       21 0.27455580E-01 0.71570352E+02</pdfrwt>
<pdfrwt beam="2">  1       21 0.19372262E-01 0.71570352E+02</pdfrwt>
<totfact> 0.31675970E+05</totfact>
</mgrwt>
</event>
<event>
 5    1  0.1595802E+000  0.8094174E+02  0.7546771E-02  0.1326400E+00
         21   -1    0    0  503  502  0.00000000000E+00  0.00000000000E+00  0.13451718596E+04  0.13451718596E+04  0.00000000000E+00 0. -1.
         21   -1    0    0  501  503 -0.00000000000E+00 -0.00000000000E+00 -0.85531245672E+01  0.85531245672E+01  0.00000000000E+00 0. -1.
         24    1    1    2    0    0 -0.35594292272E+02 -0.17267794590E+01  0.66942894509E+03  0.67518313359E+03  0.80419002446E+02 0. -1.
          1    1    1    2  501    0  0.45551618832E+02  0.22559845264E+02  0.11340939338E+03  0.12428027641E+03  0.00000000000E+00 0. -1.
         -2    1    1    2    0  502 -0.99573265605E+01 -0.20833065805E+02  0.55378039652E+03  0.55426157412E+03  0.00000000000E+00 0.  1.
<mgrwt>
<rscale>  2 0.80941744E+02</rscale>
<asrwt>0</asrwt>
<pdfrwt beam="1">  1       21 0.20694935E+00 0.80941744E+02</pdfrwt>
<pdfrwt beam="2">  1       21 0.13158664E-02 0.80941744E+02</pdfrwt>
<totfact> 0.31180765E+05</totfact>
</mgrwt>
</event>
<event>
 5    1  0.1595802E+000  0.6654349E+02  0.7546771E-02  0.1372258E+00
         21   -1    0    0  501  502  0.00000000000E+00  0.00000000000E+00  0.19665408108E+02  0.19665408108E+02  0.00000000000E+00 0. -1.
         21   -1    0    0  502  503 -0.00000000000E+00 -0.00000000000E+00 -0.12754511387E+04  0.12754511387E+04  0.00000000000E+00 0.  1.
         24    1    1    2    0    0 -0.65641225820E+01 -0.39990681424E+02 -0.42328750573E+03  0.43276075465E+03  0.80419002446E+02 0.  1.
          1    1    1    2  501    0  0.10199588640E+02  0.17533513038E+02  0.78127376398E+01  0.21736939925E+02  0.00000000000E+00 0. -1.
         -2    1    1    2    0  503 -0.36354660576E+01  0.22457168385E+02 -0.84031096245E+03  0.84061885218E+03  0.00000000000E+00 0.  1.
<mgrwt>
<rscale>  2 0.66543492E+02</rscale>
<asrwt>0</asrwt>
<pdfrwt beam="1">  1       21 0.30254473E-02 0.66543492E+02</pdfrwt>
<pdfrwt beam="2">  1       21 0.19622326E+00 0.66543492E+02</pdfrwt>
<totfact> 0.97545615E+04</totfact>
</mgrwt>
</event>
<event>
 5    1  0.1595802E+000  0.8520268E+02  0.7546771E-02  0.1314903E+00
         21   -1    0    0  501  502  0.00000000000E+00  0.00000000000E+00  0.29558304840E+02  0.29558304840E+02  0.00000000000E+00 0.  1.
         21   -1    0    0  502  503 -0.00000000000E+00 -0.00000000000E+00 -0.45990146176E+03  0.45990146176E+03  0.00000000000E+00 0.  1.
         24    1    1    2    0    0 -0.42514649230E+02 -0.11854472475E+02 -0.63161230647E+02  0.11137585433E+03  0.80419002446E+02 0.  1.
          1    1    1    2  501    0  0.19304890759E+02  0.38660815097E+02 -0.10544423285E+03  0.11395535825E+03  0.00000000000E+00 0. -1.
         -2    1    1    2    0  503  0.23209758470E+02 -0.26806342622E+02 -0.26173769342E+03  0.26412855402E+03  0.00000000000E+00 0.  1.
<mgrwt>
<rscale>  2 0.85202680E+02</rscale>
<asrwt>0</asrwt>
<pdfrwt beam="1">  1       21 0.45474319E-02 0.85202680E+02</pdfrwt>
<pdfrwt beam="2">  1       21 0.70754066E-01 0.85202680E+02</pdfrwt>
<totfact> 0.57763513E+05</totfact>
</mgrwt>
</event>
<event>
 5    1  0.1595802E+000  0.6663994E+02  0.7546771E-02  0.1371907E+00
         21   -1    0    0  503  502  0.00000000000E+00  0.00000000000E+00  0.28613529780E+02  0.28613529780E+02  0.00000000000E+00 0. -1.
         21   -1    0    0  501  503 -0.00000000000E+00 -0.00000000000E+00 -0.25516656847E+03  0.25516656847E+03  0.00000000000E+00 0. -1.
         24    1    1    2    0    0  0.34388004947E+02  0.98633153041E+01 -0.20498120658E+03  0.22307920315E+03  0.80419002446E+02 0. -1.
          1    1    1    2  501    0 -0.22536964923E+02  0.79235621731E+01 -0.29450766581E+02  0.37921567447E+02  0.00000000000E+00 0. -1.
         -2    1    1    2    0  502 -0.11851040024E+02 -0.17786877477E+02  0.78789344679E+01  0.22779327654E+02  0.00000000000E+00 0.  1.
<mgrwt>
<rscale>  2 0.66639939E+02</rscale>
<asrwt>0</asrwt>
<pdfrwt beam="1">  1       21 0.44020817E-02 0.66639939E+02</pdfrwt>
<pdfrwt beam="2">  1       21 0.39256394E-01 0.66639939E+02</pdfrwt>
<totfact> 0.20264856E+06</totfact>
</mgrwt>
</event>
<event>
 5    1  0.1595802E+000  0.8429407E+02  0.7546771E-02  0.1317289E+00
         21   -1    0    0  501  502  0.00000000000E+00  0.00000000000E+00  0.48736153255E+03  0.48736153255E+03  0.00000000000E+00 0.  1.
         21   -1    0    0  502  503 -0.00000000000E+00 -0.00000000000E+00 -0.15006747205E+02  0.15006747205E+02  0.00000000000E+00 0. -1.
         24    1    1    2    0    0 -0.24045544619E+02  0.76130998698E+01  0.19964509770E+03  0.21670608782E+03  0.80419002446E+02 0.  0.
          1    1    1    2  501    0  0.45031621304E+01  0.36123274443E+02  0.13665678411E+03  0.14142222622E+03  0.00000000000E+00 0. -1.
         -2    1    1    2    0  503  0.19542382488E+02 -0.43736374313E+02  0.13605290353E+03  0.14423996572E+03  0.00000000000E+00 0.  1.
<mgrwt>
<rscale>  2 0.84294071E+02</rscale>
<asrwt>0</asrwt>
<pdfrwt beam="1">  1       21 0.74978685E-01 0.84294071E+02</pdfrwt>
<pdfrwt beam="2">  1       21 0.23087307E-02 0.84294071E+02</pdfrwt>
<totfact> 0.15362702E+06</totfact>
</mgrwt>
</event>
<event>
 5    1  0.1595802E+000  0.9242103E+02  0.7546771E-02  0.1297093E+00
         21   -1    0    0  501  502  0.00000000000E+00  0.00000000000E+00  0.22951152632E+02  0.22951152632E+02  0.00000000000E+00 0. -1.
         21   -1    0    0  502  503 -0.00000000000E+00 -0.00000000000E+00 -0.42662847806E+03  0.42662847806E+03  0.00000000000E+00 0.  1.
         24    1    1    2    0    0  0.30999848539E+01  0.14818215399E+02 -0.19291806536E+03  0.20955616266E+03  0.80419002446E+02 0.  1.
          1    1    1    2  501    0  0.44998408087E+02  0.13769152905E+02 -0.45139304198E+02  0.65207385208E+02  0.00000000000E+00 0. -1.
         -2    1    1    2    0  503 -0.48098392941E+02 -0.28587368304E+02 -0.16561995587E+03  0.17481608282E+03  0.00000000000E+00 0.  1.
<mgrwt>
<rscale>  2 0.92421034E+02</rscale>
<asrwt>0</asrwt>
<pdfrwt beam="1">  1       21 0.35309468E-02 0.92421034E+02</pdfrwt>
<pdfrwt beam="2">  1       21 0.65635145E-01 0.92421034E+02</pdfrwt>
<totfact> 0.10297983E+06</totfact>
</mgrwt>
</event>
<event>
 5    1  0.1595802E+000  0.1114722E+03  0.7546771E-02  0.1257868E+00
         21   -1    0    0  503  502  0.00000000000E+00  0.00000000000E+00  0.72587965600E+03  0.72587965600E+03  0.00000000000E+00 0.  1.
         21   -1    0    0  501  503 -0.00000000000E+00 -0.00000000000E+00 -0.35038623966E+02  0.35038623966E+02  0.00000000000E+00 0. -1.
         24    1    1    2    0    0  0.17613876666E+02  0.36989086553E+02  0.44800177428E+03  0.45700245830E+03  0.80419002446E+02 0.  0.
          1    1    1    2  501    0  0.23801419241E+02 -0.73637773381E+02  0.28360040524E+02  0.82421605935E+02  0.00000000000E+00 0. -1.
         -2    1    1    2    0  502 -0.41415295907E+02  0.36648686827E+02  0.21447921723E+03  0.22149421574E+03  0.00000000000E+00 0.  1.
<mgrwt>
<rscale>  2 0.11147225E+03</rscale>
<asrwt>0</asrwt>
<pdfrwt beam="1">  1       21 0.11167378E+00 0.11147225E+03</pdfrwt>
<pdfrwt beam="2">  1       21 0.53905581E-02 0.11147225E+03</pdfrwt>
<totfact> 0.15376589E+05</totfact>
</mgrwt>
</event>
<event>
 5    1  0.1595802E+000  0.7644619E+02  0.7546771E-02  0.1339450E+00
         21   -1    0    0  501  502  0.00000000000E+00  0.00000000000E+00  0.86945759708E+02  0.86945759708E+02  0.00000000000E+00 0.  1.
         21   -1    0    0  502  503 -0.00000000000E+00 -0.00000000000E+00 -0.81360601704E+02  0.81360601704E+02  0.00000000000E+00 0.  1.
         24    1    1    2    0    0  0.12110083629E+02 -0.44093819820E+02  0.34403106964E+02  0.98700095213E+02  0.80419002446E+02 0.  1.
          1    1    1    2  501    0 -0.26105988611E+02  0.21570583512E+02 -0.55273707264E+01  0.34312746051E+02  0.00000000000E+00 0. -1.
         -2    1    1    2    0  503  0.13995904982E+02  0.22523236308E+02 -0.23290578233E+02  0.35293520149E+02  0.00000000000E+00 0.  1.
<mgrwt>
<rscale>  2 0.76446191E+02</rscale>
<asrwt>0</asrwt>
<pdfrwt beam="1">  1       21 0.13376271E-01 0.76446191E+02</pdfrwt>
<pdfrwt beam="2">  1       21 0.12517016E-01 0.76446191E+02</pdfrwt>
<totfact> 0.25465836E+06</totfact>
</mgrwt>
</event>
<event>
 5    1  0.1595802E+000  0.8046499E+02  0.7546771E-02  0.1327737E+00
         21   -1    0    0  501  502  0.00000000000E+00  0.00000000000E+00  0.46409857148E+02  0.46409857148E+02  0.00000000000E+00 0.  1.
         21   -1    0    0  502  503 -0.00000000000E+00 -0.00000000000E+00 -0.54893875192E+03  0.54893875192E+03  0.00000000000E+00 0.  1.
         24    1    1    2    0    0  0.45399321714E+02  0.35676585033E+02 -0.58270174098E+02  0.11487622154E+03  0.80419002446E+02 0.  1.
          1    1    1    2  501    0 -0.18695632466E+02 -0.28831062447E+02  0.98482367768E+00  0.34376252163E+02  0.00000000000E+00 0. -1.
         -2    1    1    2    0  503 -0.26703689249E+02 -0.68455225859E+01 -0.44524354436E+03  0.44609613537E+03  0.00000000000E+00 0.  1.
<mgrwt>
<rscale>  2 0.80464986E+02</rscale>
<asrwt>0</asrwt>
<pdfrwt beam="1">  1       21 0.71399777E-02 0.80464986E+02</pdfrwt>
<pdfrwt beam="2">  1       21 0.84452120E-01 0.80464986E+02</pdfrwt>
<totfact> 0.18456512E+05</totfact>
</mgrwt>
</event>
<event>
 5    1  0.1595802E+000  0.7026108E+02  0.7546771E-02  0.1359207E+00
         21   -1    0    0  503  502  0.00000000000E+00  0.00000000000E+00  0.50608299786E+02  0.50608299786E+02  0.00000000000E+00 0.  1.
         21   -1    0    0  501  503 -0.00000000000E+00 -0.00000000000E+00 -0.13662420796E+03  0.13662420796E+03  0.00000000000E+00 0.  1.
         24    1    1    2    0    0  0.32454050209E+02 -0.12619044836E+02 -0.93485085444E+02  0.12813735920E+03  0.80419002446E+02 0.  1.
          1    1    1    2  501    0 -0.10456132392E+01  0.20483414345E+02 -0.94279634022E+01  0.22573215637E+02  0.00000000000E+00 0. -1.
         -2    1    1    2    0  502 -0.31408436970E+02 -0.78643695089E+01  0.16897140671E+02  0.36521932911E+02  0.00000000000E+00 0.  1.
<mgrwt>
<rscale>  2 0.70261079E+02</rscale>
<asrwt>0</asrwt>
<pdfrwt beam="1">  1       21 0.77858923E-02 0.70261079E+02</pdfrwt>
<pdfrwt beam="2">  1       21 0.21019109E-01 0.70261079E+02</pdfrwt>
<totfact> 0.25536759E+06</totfact>
</mgrwt>
</event>
<event>
 5    1  0.1595802E+000  0.1467049E+03  0.7546771E-02  0.1204581E+00
         21   -1    0    0  503  502  0.00000000000E+00  0.00000000000E+00  0.26663859324E+03  0.26663859324E+03  0.00000000000E+00 0. -1.
         21   -1    0    0  501  503 -0.00000000000E+00 -0.00000000000E+00 -0.16803612310E+03  0.16803612310E+03  0.00000000000E+00 0. -1.
         24    1    1    2    0    0  0.15882820055E+00 -0.11451563563E+03  0.25125848460E+02  0.14217025092E+03  0.80419002446E+02 0. -1.
          1    1    1    2  501    0  0.16763009104E+02 -0.15220694049E+02 -0.84444048674E+02  0.87426914380E+02  0.00000000000E+00 0. -1.
         -2    1    1    2    0  502 -0.16921837305E+02  0.12973632968E+03  0.15792067036E+03  0.20507755105E+03  0.00000000000E+00 0.  1.
<mgrwt>
<rscale>  2 0.14670491E+03</rscale>
<asrwt>0</asrwt>
<pdfrwt beam="1">  1       21 0.41021322E-01 0.14670491E+03</pdfrwt>
<pdfrwt beam="2">  1       21 0.25851711E-01 0.14670491E+03</pdfrwt>
<totfact> 0.82871502E+04</totfact>
</mgrwt>
</event>
<event>
 5    1  0.1595802E+000  0.8238064E+02  0.7546771E-02  0.1322428E+00
         21   -1    0    0  501  502  0.00000000000E+00  0.00000000000E+00  0.41606274485E+03  0.41606274485E+03  0.00000000000E+00 0.  1.
         21   -1    0    0  502  503 -0.00000000000E+00 -0.00000000000E+00 -0.33184504039E+02  0.33184504039E+02  0.00000000000E+00 0.  1.
         24    1    1    2    0    0 -0.34749481135E+02 -0.16763875582E+02  0.31768035968E+03  0.32996451452E+03  0.80419002446E+02 0.  1.
          1    1    1    2  501    0  0.11168800839E+02 -0.25125304577E+02  0.65687407560E+02  0.71209961061E+02  0.00000000000E+00 0. -1.
         -2    1    1    2    0  503  0.23580680296E+02  0.41889180159E+02 -0.48952642286E+00  0.48072773311E+02  0.00000000000E+00 0.  1.
<mgrwt>
<rscale>  2 0.82380638E+02</rscale>
<asrwt>0</asrwt>
<pdfrwt beam="1">  1       21 0.64009649E-01 0.82380638E+02</pdfrwt>
<pdfrwt beam="2">  1       21 0.51053086E-02 0.82380638E+02</pdfrwt>
<totfact> 0.59059806E+05</totfact>
</mgrwt>
</event>
<event>
 5    1  0.1595802E+000  0.1435465E+03  0.7546771E-02  0.1208635E+00
         21   -1    0    0  501  502  0.00000000000E+00  0.00000000000E+00  0.33005064894E+03  0.33005064894E+03  0.00000000000E+00 0.  1.
         21   -1    0    0  502  503 -0.00000000000E+00 -0.00000000000E+00 -0.15066377757E+03  0.15066377757E+03  0.00000000000E+00 0.  1.
         24    1    1    2    0    0  0.78748390664E+02 -0.99086086965E+02  0.26331937781E+03  0.30302421082E+03  0.80419002446E+02 0.  1.
          1    1    1    2  501    0 -0.66352359176E+02  0.41564822151E+02 -0.39509415090E+01  0.78395662810E+02  0.00000000000E+00 0. -1.
         -2    1    1    2    0  503 -0.12396031488E+02  0.57521264815E+02 -0.79981564930E+02  0.99294552878E+02  0.00000000000E+00 0.  1.
<mgrwt>
<rscale>  2 0.14354655E+03</rscale>
<asrwt>0</asrwt>
<pdfrwt beam="1">  1       21 0.50777023E-01 0.14354655E+03</pdfrwt>
<pdfrwt beam="2">  1       21 0.23179043E-01 0.14354655E+03</pdfrwt>
<totfact> 0.65971007E+04</totfact>
</mgrwt>
</event>
<event>
 5    1  0.1595802E+000  0.1088653E+03  0.7546771E-02  0.1262686E+00
         21   -1    0    0  503  502  0.00000000000E+00  0.00000000000E+00  0.29993321158E+02  0.29993321158E+02  0.00000000000E+00 0.  1.
         21   -1    0    0  501  503 -0.00000000000E+00 -0.00000000000E+00 -0.10707810162E+04  0.10707810162E+04  0.00000000000E+00 0. -1.
         24    1    1    2    0    0 -0.57567472218E+01 -0.39701471349E+02 -0.15053292846E+03  0.17531892502E+03  0.80419002446E+02 0. -1.
          1    1    1    2  501    0  0.11337936453E+02  0.83218538547E+02 -0.87497596540E+03  0.87899761887E+03  0.00000000000E+00 0. -1.
         -2    1    1    2    0  502 -0.55811892312E+01 -0.43517067198E+02 -0.15278801233E+02  0.46457793511E+02  0.00000000000E+00 0.  1.
<mgrwt>
<rscale>  2 0.10886528E+03</rscale>
<asrwt>0</asrwt>
<pdfrwt beam="1">  1       21 0.46143565E-02 0.10886528E+03</pdfrwt>
<pdfrwt beam="2">  1       21 0.16473556E+00 0.10886528E+03</pdfrwt>
<totfact> 0.75371591E+04</totfact>
</mgrwt>
</event>
<event>
 5    1  0.1595802E+000  0.6584016E+02  0.7546771E-02  0.1374839E+00
         21   -1    0    0  503  502  0.00000000000E+00  0.00000000000E+00  0.48135439633E+02  0.48135439633E+02  0.00000000000E+00 0.  1.
         21   -1    0    0  501  503 -0.00000000000E+00 -0.00000000000E+00 -0.28010228361E+03  0.28010228361E+03  0.00000000000E+00 0. -1.
         24    1    1    2    0    0 -0.53108000045E+01 -0.39781352333E+01 -0.89333922843E+02  0.12038187522E+03  0.80419002446E+02 0.  1.
          1    1    1    2  501    0  0.88455654871E+01 -0.22551346470E+02 -0.16873857250E+03  0.17046851060E+03  0.00000000000E+00 0. -1.
         -2    1    1    2    0  502 -0.35347654826E+01  0.26529481703E+02  0.26105651366E+02  0.37387337425E+02  0.00000000000E+00 0.  1.
<mgrwt>
<rscale>  2 0.65840164E+02</rscale>
<asrwt>0</asrwt>
<pdfrwt beam="1">  1       21 0.74054523E-02 0.65840164E+02</pdfrwt>
<pdfrwt beam="2">  1       21 0.43092659E-01 0.65840164E+02</pdfrwt>
<totfact> 0.71043429E+05</totfact>
</mgrwt>
</event>
<event>
 5    1  0.1595802E+000  0.8850934E+02  0.7546771E-02  0.1306502E+00
         21   -1    0    0  501  502  0.00000000000E+00  0.00000000000E+00  0.51121001827E+02  0.51121001827E+02  0.00000000000E+00 0.  1.
         21   -1    0    0  502  503 -0.00000000000E+00 -0.00000000000E+00 -0.15422292951E+03  0.15422292951E+03  0.00000000000E+00 0.  1.
         24    1    1    2    0    0  0.39567407504E+02  0.35788713992E+02 -0.63333832509E+02  0.11543310652E+03  0.80419002446E+02 0.  1.
          1    1    1    2  501    0 -0.19718296889E+02  0.15779747506E+02 -0.10163537706E+02  0.27223320191E+02  0.00000000000E+00 0. -1.
         -2    1    1    2    0  503 -0.19849110615E+02 -0.51568461498E+02 -0.29604557466E+02  0.62687504626E+02  0.00000000000E+00 0.  1.
<mgrwt>
<rscale>  2 0.88509343E+02</rscale>
<asrwt>0</asrwt>
<pdfrwt beam="1">  1       21 0.78647696E-02 0.88509343E+02</pdfrwt>
<pdfrwt beam="2">  1       21 0.23726604E-01 0.88509343E+02</pdfrwt>
<totfact> 0.20304537E+06</totfact>
</mgrwt>
</event>
<event>
 5    1  0.1595802E+000  0.1862905E+03  0.7546771E-02  0.1161850E+00
         21   -1    0    0  503  502  0.00000000000E+00  0.00000000000E+00  0.17444735484E+03  0.17444735484E+03  0.00000000000E+00 0.  1.
         21   -1    0    0  501  503 -0.00000000000E+00 -0.00000000000E+00 -0.37588679078E+03  0.37588679078E+03  0.00000000000E+00 0.  1.
         24    1    1    2    0    0  0.96771464897E+02  0.92979311117E+02 -0.23595810725E+03  0.28311360449E+03  0.80419002446E+02 0.  1.
          1    1    1    2  501    0  0.35415995313E+02  0.21354665407E+02 -0.56616967799E+02  0.70112734231E+02  0.00000000000E+00 0. -1.
         -2    1    1    2    0  502 -0.13218746021E+03 -0.11433397652E+03  0.91135639115E+02  0.19710780690E+03  0.00000000000E+00 0.  1.
<mgrwt>
<rscale>  2 0.18629050E+03</rscale>
<asrwt>0</asrwt>
<pdfrwt beam="1">  1       21 0.26838055E-01 0.18629050E+03</pdfrwt>
<pdfrwt beam="2">  1       21 0.57828737E-01 0.18629050E+03</pdfrwt>
<totfact> 0.37192541E+04</totfact>
</mgrwt>
</event>
<event>
 5    1  0.1595802E+000  0.7933698E+02  0.7546771E-02  0.1330944E+00
         21   -1    0    0  501  502  0.00000000000E+00  0.00000000000E+00  0.77814869496E+02  0.77814869496E+02  0.00000000000E+00 0.  1.
         21   -1    0    0  502  503 -0.00000000000E+00 -0.00000000000E+00 -0.85147215999E+02  0.85147215999E+02  0.00000000000E+00 0. -1.
         24    1    1    2    0    0 -0.21812761208E+02  0.54497335439E+02 -0.16813439033E+02  0.10097357975E+03  0.80419002446E+02 0.  0.
          1    1    1    2  501    0  0.71810098911E+01 -0.27277115604E+02  0.12668854571E+02  0.30920993110E+02  0.00000000000E+00 0. -1.
         -2    1    1    2    0  503  0.14631751317E+02 -0.27220219834E+02 -0.31877620410E+01  0.31067512634E+02  0.00000000000E+00 0.  1.
<mgrwt>
<rscale>  2 0.79336984E+02</rscale>
<asrwt>0</asrwt>
<pdfrwt beam="1">  1       21 0.11971518E-01 0.79336984E+02</pdfrwt>
<pdfrwt beam="2">  1       21 0.13099572E-01 0.79336984E+02</pdfrwt>
<totfact> 0.28617320E+06</totfact>
</mgrwt>
</event>
<event>
 5    1  0.1595802E+000  0.6781586E+02  0.7546771E-02  0.1367682E+00
         21   -1    0    0  503  502  0.00000000000E+00  0.00000000000E+00  0.12001744691E+03  0.12001744691E+03  0.00000000000E+00 0.  1.
         21   -1    0    0  501  503 -0.00000000000E+00 -0.00000000000E+00 -0.16704857666E+03  0.16704857666E+03  0.00000000000E+00 0. -1.
         24    1    1    2    0    0 -0.35414431001E+01 -0.16192994868E+02 -0.86829884992E+02  0.11950481072E+03  0.80419002446E+02 0.  0.
          1    1    1    2  501    0  0.22040882380E+02  0.24748307976E+02 -0.58465796326E+02  0.67205123196E+02  0.00000000000E+00 0. -1.
         -2    1    1    2    0  502 -0.18499439280E+02 -0.85553131074E+01  0.98264551573E+02  0.10035608966E+03  0.00000000000E+00 0.  1.
<mgrwt>
<rscale>  2 0.67815860E+02</rscale>
<asrwt>0</asrwt>
<pdfrwt beam="1">  1       21 0.18464223E-01 0.67815860E+02</pdfrwt>
<pdfrwt beam="2">  1       21 0.25699781E-01 0.67815860E+02</pdfrwt>
<totfact> 0.39093264E+05</totfact>
</mgrwt>
</event>
<event>
 5    1  0.1595802E+000  0.7263345E+02  0.7546771E-02  0.1351360E+00
         21   -1    0    0  503  502  0.00000000000E+00  0.00000000000E+00  0.10524486972E+03  0.10524486972E+03  0.00000000000E+00 0. -1.
         21   -1    0    0  501  503 -0.00000000000E+00 -0.00000000000E+00 -0.52400155025E+02  0.52400155025E+02  0.00000000000E+00 0.  1.
         24    1    1    2    0    0 -0.22868364521E+02 -0.17224239446E+02  0.14895043961E+02  0.86652840746E+02  0.80419002446E+02 0.  0.
          1    1    1    2  501    0 -0.13753827165E+02  0.18745606837E+02  0.12808858749E+02  0.26544912880E+02  0.00000000000E+00 0. -1.
         -2    1    1    2    0  502  0.36622191686E+02 -0.15213673908E+01  0.25140811986E+02  0.44447271120E+02  0.00000000000E+00 0.  1.
<mgrwt>
<rscale>  2 0.72633453E+02</rscale>
<asrwt>0</asrwt>
<pdfrwt beam="1">  1       21 0.16191518E-01 0.72633453E+02</pdfrwt>
<pdfrwt beam="2">  1       21 0.80615623E-02 0.72633453E+02</pdfrwt>
<totfact> 0.38634944E+06</totfact>
</mgrwt>
</event>
<event>
 5    1  0.1595802E+000  0.8771047E+02  0.7546771E-02  0.1308493E+00
         21   -1    0    0  501  502  0.00000000000E+00  0.00000000000E+00  0.74400482013E+03  0.74400482013E+03  0.00000000000E+00 0.  1.
         21   -1    0    0  502  503 -0.00000000000E+00 -0.00000000000E+00 -0.13284495802E+02  0.13284495802E+02  0.00000000000E+00 0.  1.
         24    1    1    2    0    0 -0.41362967271E+02 -0.43755042681E+01  0.35064704021E+03  0.36214721159E+03  0.80419002446E+02 0.  1.
          1    1    1    2  501    0 -0.21044641770E+02  0.76419621623E+01  0.24823285462E+03  0.24924049961E+03  0.00000000000E+00 0. -1.
         -2    1    1    2    0  503  0.62407609041E+02 -0.32664578941E+01  0.13184042950E+03  0.14590160473E+03  0.00000000000E+00 0.  1.
<mgrwt>
<rscale>  2 0.87710470E+02</rscale>
<asrwt>0</asrwt>
<pdfrwt beam="1">  1       21 0.11446225E+00 0.87710470E+02</pdfrwt>
<pdfrwt beam="2">  1       21 0.20437692E-02 0.87710470E+02</pdfrwt>
<totfact> 0.71424279E+05</totfact>
</mgrwt>
</event>
<event>
 5    1  0.1595802E+000  0.7533196E+02  0.7546771E-02  0.1342846E+00
         21   -1    0    0  501  502  0.00000000000E+00  0.00000000000E+00  0.47134237614E+03  0.47134237614E+03  0.00000000000E+00 0.  1.
         21   -1    0    0  502  503 -0.00000000000E+00 -0.00000000000E+00 -0.34394775210E+02  0.34394775210E+02  0.00000000000E+00 0.  1.
         24    1    1    2    0    0 -0.15357737279E+02 -0.50700674187E+02  0.40736973201E+03  0.41859733989E+03  0.80419002446E+02 0.  1.
          1    1    1    2  501    0  0.15346007978E+02  0.30309259809E+02  0.48571095914E+02  0.59273118268E+02  0.00000000000E+00 0. -1.
         -2    1    1    2    0  503  0.11729301452E-01  0.20391414378E+02 -0.18993226987E+02  0.27866693190E+02  0.00000000000E+00 0.  1.
<mgrwt>
<rscale>  2 0.75331965E+02</rscale>
<asrwt>0</asrwt>
<pdfrwt beam="1">  1       21 0.72514207E-01 0.75331965E+02</pdfrwt>
<pdfrwt beam="2">  1       21 0.52915042E-02 0.75331965E+02</pdfrwt>
<totfact> 0.42627504E+05</totfact>
</mgrwt>
</event>
<event>
 5    1  0.1595802E+000  0.6598526E+02  0.7546771E-02  0.1374303E+00
         21   -1    0    0  503  502  0.00000000000E+00  0.00000000000E+00  0.15482188186E+03  0.15482188186E+03  0.00000000000E+00 0. -1.
         21   -1    0    0  501  503 -0.00000000000E+00 -0.00000000000E+00 -0.73110857018E+02  0.73110857018E+02  0.00000000000E+00 0. -1.
         24    1    1    2    0    0 -0.45848406102E+01 -0.10329405500E+02  0.98217109109E+02  0.12744227657E+03  0.80419002446E+02 0. -1.
          1    1    1    2  501    0  0.25096865655E+02  0.15642158006E+02 -0.51613050332E+02  0.59484760547E+02  0.00000000000E+00 0. -1.
         -2    1    1    2    0  502 -0.20512025044E+02 -0.53127525059E+01  0.35106966068E+02  0.41005701763E+02  0.00000000000E+00 0.  1.
<mgrwt>
<rscale>  2 0.65985261E+02</rscale>
<asrwt>0</asrwt>
<pdfrwt beam="1">  1       21 0.23818751E-01 0.65985261E+02</pdfrwt>
<pdfrwt beam="2">  1       21 0.11247824E-01 0.65985261E+02</pdfrwt>
<totfact> 0.10786730E+06</totfact>
</mgrwt>
</event>
<event>
 5    1  0.1595802E+000  0.8004220E+02  0.7546771E-02  0.1328932E+00
         21   -1    0    0  501  502  0.00000000000E+00  0.00000000000E+00  0.45518324386E+03  0.45518324386E+03  0.00000000000E+00 0. -1.
         21   -1    0    0  502  503 -0.00000000000E+00 -0.00000000000E+00 -0.20285930850E+02  0.20285930850E+02  0.00000000000E+00 0. -1.
         24    1    1    2    0    0 -0.33203199640E+02  0.45319318020E+02  0.26490336720E+03  0.28248416409E+03  0.80419002446E+02 0. -1.
          1    1    1    2  501    0  0.70056403458E+01 -0.31687955834E+02  0.15768624695E+03  0.16099117373E+03  0.00000000000E+00 0. -1.
         -2    1    1    2    0  503  0.26197559295E+02 -0.13631362186E+02  0.12307698862E+02  0.31993836896E+02  0.00000000000E+00 0.  1.
<mgrwt>
<rscale>  2 0.80042198E+02</rscale>
<asrwt>0</asrwt>
<pdfrwt beam="1">  1       21 0.70028183E-01 0.80042198E+02</pdfrwt>
<pdfrwt beam="2">  1       21 0.31209128E-02 0.80042198E+02</pdfrwt>
<totfact> 0.10935335E+06</totfact>
</mgrwt>
</event>
<event>
 5    1  0.1595802E+000  0.1074986E+03  0.7546771E-02  0.1265273E+00
         21   -1    0    0  501  502  0.00000000000E+00  0.00000000000E+00  0.30532404160E+03  0.30532404160E+03  0.00000000000E+00 0. -1.
         21   -1    0    0  502  503 -0.00000000000E+00 -0.00000000000E+00 -0.52518097176E+02  0.52518097176E+02  0.00000000000E+00 0.  1.
         24    1    1    2    0    0  0.79142189930E+00 -0.13709540450E+02  0.26933542457E+02  0.85913965754E+02  0.80419002446E+02 0.  0.
          1    1    1    2  501    0 -0.60028666620E+02 -0.22362023962E+02  0.17371336331E+03  0.18514813940E+03  0.00000000000E+00 0. -1.
         -2    1    1    2    0  503  0.59237244721E+02  0.36071564412E+02  0.52159038654E+02  0.86780033617E+02  0.00000000000E+00 0.  1.
<mgrwt>
<rscale>  2 0.10749865E+03</rscale>
<asrwt>0</asrwt>
<pdfrwt beam="1">  1       21 0.46972928E-01 0.10749865E+03</pdfrwt>
<pdfrwt beam="2">  1       21 0.80797074E-02 0.10749865E+03</pdfrwt>
<totfact> 0.51671637E+05</totfact>
</mgrwt>
</event>
<event>
 5    1  0.1595802E+000  0.9591701E+02  0.7546771E-02  0.1289124E+00
         21   -1    0    0  503  502  0.00000000000E+00  0.00000000000E+00  0.56355254586E+03  0.56355254586E+03  0.00000000000E+00 0. -1.
         21   -1    0    0  501  503 -0.00000000000E+00 -0.00000000000E+00 -0.38440678353E+02  0.38440678353E+02  0.00000000000E+00 0. -1.
         24    1    1    2    0    0 -0.20909670528E+02  0.43826792777E+02  0.18182574957E+03  0.20466025811E+03  0.80419002446E+02 0. -1.
          1    1    1    2  501    0  0.14547984525E+01 -0.67349849671E+02  0.16807832797E+02  0.69430698776E+02  0.00000000000E+00 0. -1.
         -2    1    1    2    0  502  0.19454872076E+02  0.23523056894E+02  0.32647828513E+03  0.32790226732E+03  0.00000000000E+00 0.  1.
<mgrwt>
<rscale>  2 0.95917011E+02</rscale>
<asrwt>0</asrwt>
<pdfrwt beam="1">  1       21 0.86700386E-01 0.95917011E+02</pdfrwt>
<pdfrwt beam="2">  1       21 0.59139509E-02 0.95917011E+02</pdfrwt>
<totfact> 0.23786505E+05</totfact>
</mgrwt>
</event>
<event>
 5    1  0.1595802E+000  0.6814525E+02  0.7546771E-02  0.1366516E+00
         21   -1    0    0  503  502  0.00000000000E+00  0.00000000000E+00  0.10287258247E+03  0.10287258247E+03  0.00000000000E+00 0. -1.
         21   -1    0    0  501  503 -0.00000000000E+00 -0.00000000000E+00 -0.49475144771E+02  0.49475144771E+02  0.00000000000E+00 0. -1.
         24    1    1    2    0    0  0.25721786773E+02  0.33061745943E+02  0.14038674350E+02  0.91755052675E+02  0.80419002446E+02 0. -1.
          1    1    1    2  501    0 -0.21583831968E+02 -0.13140335263E+02  0.17546174859E+02  0.30763589931E+02  0.00000000000E+00 0. -1.
         -2    1    1    2    0  502 -0.41379548044E+01 -0.19921410680E+02  0.21812588485E+02  0.29829084630E+02  0.00000000000E+00 0.  1.
<mgrwt>
<rscale>  2 0.68145253E+02</rscale>
<asrwt>0</asrwt>
<pdfrwt beam="1">  1       21 0.15826551E-01 0.68145253E+02</pdfrwt>
<pdfrwt beam="2">  1       21 0.76115607E-02 0.68145253E+02</pdfrwt>
<totfact> 0.44144188E+06</totfact>
</mgrwt>
</event>
<event>
 5    1  0.1595802E+000  0.7069865E+02  0.7546771E-02  0.1357733E+00
         21   -1    0    0  501  502  0.00000000000E+00  0.00000000000E+00  0.96912389430E+02  0.96912389430E+02  0.00000000000E+00 0. -1.
         21   -1    0    0  502  503 -0.00000000000E+00 -0.00000000000E+00 -0.11562788382E+03  0.11562788382E+03  0.00000000000E+00 0.  1.
         24    1    1    2    0    0 -0.36816241593E+01 -0.33453333911E+02 -0.38097221850E+02  0.95138289732E+02  0.80419002446E+02 0.  1.
          1    1    1    2  501    0  0.22262112979E+02  0.10289935597E+02  0.61304315196E+02  0.66028050937E+02  0.00000000000E+00 0. -1.
         -2    1    1    2    0  503 -0.18580488820E+02  0.23163398314E+02 -0.41922587735E+02  0.51373932579E+02  0.00000000000E+00 0.  1.
<mgrwt>
<rscale>  2 0.70698651E+02</rscale>
<asrwt>0</asrwt>
<pdfrwt beam="1">  1       21 0.14909598E-01 0.70698651E+02</pdfrwt>
<pdfrwt beam="2">  1       21 0.17788905E-01 0.70698651E+02</pdfrwt>
<totfact> 0.11230113E+06</totfact>
</mgrwt>
</event>
<event>
 5    1  0.1595802E+000  0.1213298E+03  0.7546771E-02  0.1240919E+00
         21   -1    0    0  501  502  0.00000000000E+00  0.00000000000E+00  0.39942436589E+02  0.39942436589E+02  0.00000000000E+00 0. -1.
         21   -1    0    0  502  503 -0.00000000000E+00 -0.00000000000E+00 -0.63830313895E+03  0.63830313895E+03  0.00000000000E+00 0. -1.
         24    1    1    2    0    0 -0.73875838780E+02  0.65692334734E+02 -0.33458806729E+03  0.35803563109E+03  0.80419002446E+02 0. -1.
          1    1    1    2  501    0  0.54810221133E+02 -0.91714909727E+01 -0.63119367160E+01  0.55929572968E+02  0.00000000000E+00 0. -1.
         -2    1    1    2    0  503  0.19065617647E+02 -0.56520843761E+02 -0.25746069835E+03  0.26428037149E+03  0.00000000000E+00 0.  1.
<mgrwt>
<rscale>  2 0.12132985E+03</rscale>
<asrwt>0</asrwt>
<pdfrwt beam="1">  1       21 0.61449908E-02 0.12132985E+03</pdfrwt>
<pdfrwt beam="2">  1       21 0.98200474E-01 0.12132985E+03</pdfrwt>
<totfact> 0.16628265E+05</totfact>
</mgrwt>
</event>
<event>
 5    1  0.1595802E+000  0.8736203E+02  0.7546771E-02  0.1309369E+00
         21   -1    0    0  503  502  0.00000000000E+00  0.00000000000E+00  0.62512266236E+02  0.62512266236E+02  0.00000000000E+00 0. -1.
         21   -1    0    0  501  503 -0.00000000000E+00 -0.00000000000E+00 -0.19102158867E+03  0.19102158867E+03  0.00000000000E+00 0. -1.
         24    1    1    2    0    0 -0.57729831902E+01 -0.41918916774E+02  0.99416770548E+01  0.91414308593E+02  0.80419002446E+02 0. -1.
          1    1    1    2  501    0  0.56858492546E+01  0.62756823247E+02 -0.96060069665E+02  0.11488378793E+03  0.00000000000E+00 0. -1.
         -2    1    1    2    0  502  0.87133935581E-01 -0.20837906473E+02 -0.42390929827E+02  0.47235758384E+02  0.00000000000E+00 0.  1.
<mgrwt>
<rscale>  2 0.87362030E+02</rscale>
<asrwt>0</asrwt>
<pdfrwt beam="1">  1       21 0.96172717E-02 0.87362030E+02</pdfrwt>
<pdfrwt beam="2">  1       21 0.29387937E-01 0.87362030E+02</pdfrwt>
<totfact> 0.96095596E+05</totfact>
</mgrwt>
</event>
<event>
 5    1  0.1595802E+000  0.6449258E+02  0.7546771E-02  0.1379890E+00
         21   -1    0    0  503  502  0.00000000000E+00  0.00000000000E+00  0.16051205689E+03  0.16051205689E+03  0.00000000000E+00 0. -1.
         21   -1    0    0  501  503 -0.00000000000E+00 -0.00000000000E+00 -0.35779739229E+02  0.35779739229E+02  0.00000000000E+00 0.  1.
         24    1    1    2    0    0 -0.22086796977E+02  0.10915090704E+02  0.90520769451E+02  0.12356452348E+03  0.80419002446E+02 0. -1.
          1    1    1    2  501    0  0.64126794877E+01 -0.23761160692E+02 -0.80199210744E+01  0.25885021724E+02  0.00000000000E+00 0. -1.
         -2    1    1    2    0  502  0.15674117489E+02  0.12846069988E+02  0.42231469286E+02  0.46842250920E+02  0.00000000000E+00 0.  1.
<mgrwt>
<rscale>  2 0.64492580E+02</rscale>
<asrwt>0</asrwt>
<pdfrwt beam="1">  1       21 0.24694162E-01 0.64492580E+02</pdfrwt>
<pdfrwt beam="2">  1       21 0.55045754E-02 0.64492580E+02</pdfrwt>
<totfact> 0.33764164E+06</totfact>
</mgrwt>
</event>
<event>
 5    1  0.1595802E+000  0.7462284E+02  0.7546771E-02  0.1345043E+00
         21   -1    0    0  501  502  0.00000000000E+00  0.00000000000E+00  0.41166748752E+02  0.41166748752E+02  0.00000000000E+00 0. -1.
         21   -1    0    0  502  503 -0.00000000000E+00 -0.00000000000E+00 -0.39389115273E+03  0.39389115273E+03  0.00000000000E+00 0. -1.
         24    1    1    2    0    0  0.39488835607E+02  0.50176237710E+01 -0.23622675103E+03  0.25269514942E+03  0.80419002446E+02 0. -1.
          1    1    1    2  501    0 -0.25171317715E+02 -0.24639765994E+02  0.22146104759E+02  0.41607250086E+02  0.00000000000E+00 0. -1.
         -2    1    1    2    0  503 -0.14317517893E+02  0.19622142223E+02 -0.13864375771E+03  0.14075550197E+03  0.00000000000E+00 0.  1.
<mgrwt>
<rscale>  2 0.74622843E+02</rscale>
<asrwt>0</asrwt>
<pdfrwt beam="1">  1       21 0.63333461E-02 0.74622843E+02</pdfrwt>
<pdfrwt beam="2">  1       21 0.60598638E-01 0.74622843E+02</pdfrwt>
<totfact> 0.46249547E+05</totfact>
</mgrwt>
</event>
<event>
 5    1  0.1595802E+000  0.8959394E+02  0.7546771E-02  0.1303838E+00
         21   -1    0    0  503  502  0.00000000000E+00  0.00000000000E+00  0.50886495293E+03  0.50886495293E+03  0.00000000000E+00 0.  1.
         21   -1    0    0  501  503 -0.00000000000E+00 -0.00000000000E+00 -0.16058889247E+02  0.16058889247E+02  0.00000000000E+00 0. -1.
         24    1    1    2    0    0 -0.66312569941E+02 -0.22344914945E+02  0.29001701309E+03  0.30898824572E+03  0.80419002446E+02 0.  0.
          1    1    1    2  501    0  0.34954926485E+02  0.21855216047E+02  0.92425423356E+02  0.10120255054E+03  0.00000000000E+00 0. -1.
         -2    1    1    2    0  502  0.31357643457E+02  0.48969889824E+00  0.11036362724E+03  0.11473304592E+03  0.00000000000E+00 0.  1.
<mgrwt>
<rscale>  2 0.89593936E+02</rscale>
<asrwt>0</asrwt>
<pdfrwt beam="1">  1       21 0.78286903E-01 0.89593936E+02</pdfrwt>
<pdfrwt beam="2">  1       21 0.24705987E-02 0.89593936E+02</pdfrwt>
<totfact> 0.12550695E+06</totfact>
</mgrwt>
</event>
<event>
 5    1  0.1595802E+000  0.7678535E+02  0.7546771E-02  0.1338430E+00
         21   -1    0    0  501  502  0.00000000000E+00  0.00000000000E+00  0.32586257775E+02  0.32586257775E+02  0.00000000000E+00 0. -1.
         21   -1    0    0  502  503 -0.00000000000E+00 -0.00000000000E+00 -0.23295180280E+03  0.23295180280E+03  0.00000000000E+00 0. -1.
         24    1    1    2    0    0 -0.50014735557E+02 -0.51090400272E+01 -0.15547041032E+03  0.18211491016E+03  0.80419002446E+02 0.  0.
          1    1    1    2  501    0  0.25590116482E+02  0.17831817792E+02 -0.51717317130E+00  0.31194474757E+02  0.00000000000E+00 0. -1.
         -2    1    1    2    0  503  0.24424619076E+02 -0.12722777765E+02 -0.44377961533E+02  0.52228675657E+02  0.00000000000E+00 0.  1.
<mgrwt>
<rscale>  2 0.76785346E+02</rscale>
<asrwt>0</asrwt>
<pdfrwt beam="1">  1       21 0.50132702E-02 0.76785346E+02</pdfrwt>
<pdfrwt beam="2">  1       21 0.35838741E-01 0.76785346E+02</pdfrwt>
<totfact> 0.19659644E+06</totfact>
</mgrwt>
</event>
<event>
 5    1  0.1595802E+000  0.1117061E+03  0.7546771E-02  0.1257443E+00
         21   -1    0    0  503  502  0.00000000000E+00  0.00000000000E+00  0.18129799848E+03  0.18129799848E+03  0.00000000000E+00 0. -1.
         21   -1    0    0  501  503 -0.00000000000E+00 -0.00000000000E+00 -0.88114189051E+02  0.88114189051E+02  0.00000000000E+00 0.  1.
         24    1    1    2    0    0  0.67202161435E+02  0.40893899238E+02 -0.16167665906E+02  0.11365320441E+03  0.80419002446E+02 0.  1.
          1    1    1    2  501    0 -0.42093062815E+02  0.18840913548E+02  0.44767837799E+02  0.64272585615E+02  0.00000000000E+00 0. -1.
         -2    1    1    2    0  502 -0.25109098621E+02 -0.59734812786E+02  0.64583637537E+02  0.91486397511E+02  0.00000000000E+00 0.  1.
<mgrwt>
<rscale>  2 0.11170608E+03</rscale>
<asrwt>0</asrwt>
<pdfrwt beam="1">  1       21 0.27892000E-01 0.11170608E+03</pdfrwt>
<pdfrwt beam="2">  1       21 0.13556029E-01 0.11170608E+03</pdfrwt>
<totfact> 0.58267504E+05</totfact>
</mgrwt>
</event>
<event>
 5    1  0.1595802E+000  0.9826987E+02  0.7546771E-02  0.1283977E+00
         21   -1    0    0  501  502  0.00000000000E+00  0.00000000000E+00  0.80203031240E+02  0.80203031240E+02  0.00000000000E+00 0. -1.
         21   -1    0    0  502  503 -0.00000000000E+00 -0.00000000000E+00 -0.15537364278E+03  0.15537364278E+03  0.00000000000E+00 0.  1.
         24    1    1    2    0    0 -0.72267224432E+01  0.25511070114E+02 -0.49318169492E+02  0.97992540594E+02  0.80419002446E+02 0.  1.
          1    1    1    2  501    0 -0.50735120077E+02 -0.15436718369E+02  0.26092184536E+02  0.59102849145E+02  0.00000000000E+00 0. -1.
         -2    1    1    2    0  503  0.57961842520E+02 -0.10074351745E+02 -0.51944626583E+02  0.78481284280E+02  0.00000000000E+00 0.  1.
<mgrwt>
<rscale>  2 0.98269875E+02</rscale>
<asrwt>0</asrwt>
<pdfrwt beam="1">  1       21 0.12338928E-01 0.98269875E+02</pdfrwt>
<pdfrwt beam="2">  1       21 0.23903637E-01 0.98269875E+02</pdfrwt>
<totfact> 0.92007798E+05</totfact>
</mgrwt>
</event>
<event>
 5    1  0.1595802E+000  0.8068480E+02  0.7546771E-02  0.1327119E+00
         21   -1    0    0  501  502  0.00000000000E+00  0.00000000000E+00  0.13607479834E+03  0.13607479834E+03  0.00000000000E+00 0. -1.
         21   -1    0    0  502  503 -0.00000000000E+00 -0.00000000000E+00 -0.12930151818E+03  0.12930151818E+03  0.00000000000E+00 0.  1.
         24    1    1    2    0    0 -0.54950619517E+02  0.20506400057E+01  0.63578570236E+01  0.97628960918E+02  0.80419002446E+02 0. -1.
          1    1    1    2  501    0  0.32759405900E+02  0.14933976454E+02  0.77662025991E+02  0.85601358685E+02  0.00000000000E+00 0. -1.
         -2    1    1    2    0  503  0.22191213616E+02 -0.16984616459E+02 -0.77246602849E+02  0.82145996918E+02  0.00000000000E+00 0.  1.
<mgrwt>
<rscale>  2 0.80684802E+02</rscale>
<asrwt>0</asrwt>
<pdfrwt beam="1">  1       21 0.20934584E-01 0.80684802E+02</pdfrwt>
<pdfrwt beam="2">  1       21 0.19892541E-01 0.80684802E+02</pdfrwt>
<totfact> 0.49891058E+05</totfact>
</mgrwt>
</event>
<event>
 5    1  0.1595802E+000  0.8954272E+02  0.7546771E-02  0.1303963E+00
         21   -1    0    0  503  502  0.00000000000E+00  0.00000000000E+00  0.93266469320E+02  0.93266469320E+02  0.00000000000E+00 0. -1.
         21   -1    0    0  501  503 -0.00000000000E+00 -0.00000000000E+00 -0.86872455083E+02  0.86872455083E+02  0.00000000000E+00 0.  1.
         24    1    1    2    0    0  0.32694205213E+01  0.82754045019E+01  0.12026420224E+02  0.81798668498E+02  0.80419002446E+02 0. -1.
          1    1    1    2  501    0 -0.11288482453E+02 -0.52260393428E+02 -0.26754004871E+01  0.53532572562E+02  0.00000000000E+00 0. -1.
         -2    1    1    2    0  502  0.80190619318E+01  0.43984988926E+02 -0.29570055006E+01  0.44807683344E+02  0.00000000000E+00 0.  1.
<mgrwt>
<rscale>  2 0.89542715E+02</rscale>
<asrwt>0</asrwt>
<pdfrwt beam="1">  1       21 0.14348688E-01 0.89542715E+02</pdfrwt>
<pdfrwt beam="2">  1       21 0.13364993E-01 0.89542715E+02</pdfrwt>
<totfact> 0.20187724E+06</totfact>
</mgrwt>
</event>
<event>
 5    1  0.1595802E+000  0.8399361E+02  0.7546771E-02  0.1318086E+00
         21   -1    0    0  501  502  0.00000000000E+00  0.00000000000E+00  0.46087699046E+02  0.46087699046E+02  0.00000000000E+00 0.  1.
         21   -1    0    0  502  503 -0.00000000000E+00 -0.00000000000E+00 -0.19940981454E+03  0.19940981454E+03  0.00000000000E+00 0.  1.
         24    1    1    2    0    0  0.35040677494E+02  0.50960615106E+01 -0.87976506491E+02  0.12434186974E+03  0.80419002446E+02 0.  1.
          1    1    1    2  501    0 -0.28801850330E+02  0.31680450646E+02  0.33908503437E+01  0.42949917364E+02  0.00000000000E+00 0. -1.
         -2    1    1    2    0  503 -0.62388271642E+01 -0.36776512156E+02 -0.68736459346E+02  0.78205726480E+02  0.00000000000E+00 0.  1.
<mgrwt>
<rscale>  2 0.83993608E+02</rscale>
<asrwt>0</asrwt>
<pdfrwt beam="1">  1       21 0.70904153E-02 0.83993608E+02</pdfrwt>
<pdfrwt beam="2">  1       21 0.30678433E-01 0.83993608E+02</pdfrwt>
<totfact> 0.14890631E+06</totfact>
</mgrwt>
</event>
<event>
 5    1  0.1595802E+000  0.7363392E+02  0.7546771E-02  0.1348154E+00
         21   -1    0    0  503  502  0.00000000000E+00  0.00000000000E+00  0.88980451957E+02  0.88980451957E+02  0.00000000000E+00 0.  1.
         21   -1    0    0  501  503 -0.00000000000E+00 -0.00000000000E+00 -0.42116925107E+03  0.42116925107E+03  0.00000000000E+00 0. -1.
         24    1    1    2    0    0  0.17835647208E+02  0.47688352951E+02 -0.23091110975E+02  0.97942353856E+02  0.80419002446E+02 0.  0.
          1    1    1    2  501    0 -0.60130787750E+01 -0.31337001708E+02 -0.35794093651E+03  0.35936037458E+03  0.00000000000E+00 0. -1.
         -2    1    1    2    0  502 -0.11822568433E+02 -0.16351351243E+02  0.48843248369E+02  0.52846974588E+02  0.00000000000E+00 0.  1.
<mgrwt>
<rscale>  2 0.73633917E+02</rscale>
<asrwt>0</asrwt>
<pdfrwt beam="1">  1       21 0.13689300E-01 0.73633917E+02</pdfrwt>
<pdfrwt beam="2">  1       21 0.64795270E-01 0.73633917E+02</pdfrwt>
<totfact> 0.10703528E+05</totfact>
</mgrwt>
</event>
<event>
 5    1  0.1595802E+000  0.6609627E+02  0.7546771E-02  0.1373895E+00
         21   -1    0    0  501  502  0.00000000000E+00  0.00000000000E+00  0.10683818340E+03  0.10683818340E+03  0.00000000000E+00 0. -1.
         21   -1    0    0  502  503 -0.00000000000E+00 -0.00000000000E+00 -0.12538401971E+03  0.12538401971E+03  0.00000000000E+00 0. -1.
         24    1    1    2    0    0 -0.11300623988E+02  0.33531719468E+02 -0.94539434636E+02  0.12906200436E+03  0.80419002446E+02 0. -1.
          1    1    1    2  501    0  0.18638420941E+02 -0.13540617855E+02  0.78413693756E+02  0.81727880405E+02  0.00000000000E+00 0. -1.
         -2    1    1    2    0  503 -0.73377969525E+01 -0.19991101613E+02 -0.24200954394E+01  0.21432318348E+02  0.00000000000E+00 0.  1.
<mgrwt>
<rscale>  2 0.66096272E+02</rscale>
<asrwt>0</asrwt>
<pdfrwt beam="1">  1       21 0.16436644E-01 0.66096272E+02</pdfrwt>
<pdfrwt beam="2">  1       21 0.19289849E-01 0.66096272E+02</pdfrwt>
<totfact> 0.81452488E+05</totfact>
</mgrwt>
</event>
<event>
 5    1  0.1595802E+000  0.9934771E+02  0.7546771E-02  0.1281674E+00
         21   -1    0    0  501  502  0.00000000000E+00  0.00000000000E+00  0.48274485735E+03  0.48274485735E+03  0.00000000000E+00 0.  1.
         21   -1    0    0  502  503 -0.00000000000E+00 -0.00000000000E+00 -0.22151436428E+02  0.22151436428E+02  0.00000000000E+00 0. -1.
         24    1    1    2    0    0  0.38329633070E+02  0.21972443314E+02  0.20213122279E+03  0.22198242322E+03  0.80419002446E+02 0.  0.
          1    1    1    2  501    0  0.32284395033E+02  0.20543433310E+01  0.13367296703E+03  0.13753168582E+03  0.00000000000E+00 0. -1.
         -2    1    1    2    0  503 -0.70614028102E+02 -0.24026786645E+02  0.12478923109E+03  0.14538218473E+03  0.00000000000E+00 0.  1.
<mgrwt>
<rscale>  2 0.99347713E+02</rscale>
<asrwt>0</asrwt>
<pdfrwt beam="1">  1       21 0.74268431E-01 0.99347713E+02</pdfrwt>
<pdfrwt beam="2">  1       21 0.34079137E-02 0.99347713E+02</pdfrwt>
<totfact> 0.83623009E+05</totfact>
</mgrwt>
</event>
<event>
 5    1  0.1595802E+000  0.8694106E+02  0.7546771E-02  0.1310433E+00
         21   -1    0    0  503  502  0.00000000000E+00  0.00000000000E+00  0.70162509662E+02  0.70162509662E+02  0.00000000000E+00 0.  1.
         21   -1    0    0  501  503 -0.00000000000E+00 -0.00000000000E+00 -0.10848675635E+03  0.10848675635E+03  0.00000000000E+00 0. -1.
         24    1    1    2    0    0  0.15891184619E+02 -0.19951221512E+02 -0.17416695748E+02  0.86146028542E+02  0.80419002446E+02 0. -1.
          1    1    1    2  501    0 -0.43920819157E+02 -0.13428326628E+02 -0.16025559869E+02  0.48643364199E+02  0.00000000000E+00 0. -1.
         -2    1    1    2    0  502  0.28029634538E+02  0.33379548141E+02 -0.48819910680E+01  0.43859873269E+02  0.00000000000E+00 0.  1.
<mgrwt>
<rscale>  2 0.86941055E+02</rscale>
<asrwt>0</asrwt>
<pdfrwt beam="1">  1       21 0.10794232E-01 0.86941055E+02</pdfrwt>
<pdfrwt beam="2">  1       21 0.16690270E-01 0.86941055E+02</pdfrwt>
<totfact> 0.22377333E+06</totfact>
</mgrwt>
</event>
<event>
 5    1  0.2105052E+000  0.1270568E+03  0.7546771E-02  0.1231889E+00
         21   -1    0    0  503  502  0.00000000000E+00  0.00000000000E+00  0.17545740025E+03  0.17545740025E+03  0.00000000000E+00 0.  1.
         21   -1    0    0  501  503 -0.00000000000E+00 -0.00000000000E+00 -0.28909308750E+03  0.28909308750E+03  0.00000000000E+00 0. -1.
         24    1    1    2    0    0  0.24044078625E+01  0.59886329599E+02  0.12830830227E+02  0.10111379633E+03  0.80419002446E+02 0.  1.
          1    1    1    2  501    0 -0.10467705874E+02  0.46227307521E+02 -0.21798430282E+03  0.22307777367E+03  0.00000000000E+00 0. -1.
         -2    1    1    2    0  502  0.80632980112E+01 -0.10611363712E+03  0.91517785348E+02  0.14035891775E+03  0.00000000000E+00 0.  1.
<mgrwt>
<rscale>  2 0.12705680E+03</rscale>
<asrwt>0</asrwt>
<pdfrwt beam="1">  1       21 0.26993447E-01 0.12705680E+03</pdfrwt>
<pdfrwt beam="2">  1       21 0.44475859E-01 0.12705680E+03</pdfrwt>
<totfact> 0.65399528E+04</totfact>
</mgrwt>
</event>
<event>
 5    1  0.1595802E+000  0.1146334E+03  0.7546771E-02  0.1252222E+00
         21   -1    0    0  503  502  0.00000000000E+00  0.00000000000E+00  0.54131498842E+02  0.54131498842E+02  0.00000000000E+00 0.  1.
         21   -1    0    0  501  503 -0.00000000000E+00 -0.00000000000E+00 -0.33671600234E+03  0.33671600234E+03  0.00000000000E+00 0.  1.
         24    1    1    2    0    0  0.80650593058E+02 -0.23565936336E+02 -0.39872024849E+02  0.12295066424E+03  0.80419002446E+02 0.  1.
          1    1    1    2  501    0 -0.12426705029E+02 -0.25876031376E+02 -0.72394814631E+02  0.77878117485E+02  0.00000000000E+00 0. -1.
         -2    1    1    2    0  502 -0.68223888029E+02  0.49441967712E+02 -0.17031766402E+03  0.19001871946E+03  0.00000000000E+00 0.  1.
<mgrwt>
<rscale>  2 0.11463344E+03</rscale>
<asrwt>0</asrwt>
<pdfrwt beam="1">  1       21 0.83279228E-02 0.11463344E+03</pdfrwt>
<pdfrwt beam="2">  1       21 0.51802463E-01 0.11463344E+03</pdfrwt>
<totfact> 0.40105560E+05</totfact>
</mgrwt>
</event>
<event>
 5    1  0.1595802E+000  0.8473598E+02  0.7546771E-02  0.1316124E+00
         21   -1    0    0  501  502  0.00000000000E+00  0.00000000000E+00  0.31951249881E+03  0.31951249881E+03  0.00000000000E+00 0. -1.
         21   -1    0    0  502  503 -0.00000000000E+00 -0.00000000000E+00 -0.12808912449E+03  0.12808912449E+03  0.00000000000E+00 0. -1.
         24    1    1    2    0    0 -0.39355730404E+02 -0.28145140102E+02 -0.94908825570E+02  0.13347630334E+03  0.80419002446E+02 0. -1.
          1    1    1    2  501    0 -0.13346919698E+02  0.17236559928E+02  0.24576255362E+03  0.24672752588E+03  0.00000000000E+00 0. -1.
         -2    1    1    2    0  503  0.52702650102E+02  0.10908580174E+02  0.40569646268E+02  0.67397794085E+02  0.00000000000E+00 0.  1.
<mgrwt>
<rscale>  2 0.84735979E+02</rscale>
<asrwt>0</asrwt>
<pdfrwt beam="1">  1       21 0.49155769E-01 0.84735979E+02</pdfrwt>
<pdfrwt beam="2">  1       21 0.19706019E-01 0.84735979E+02</pdfrwt>
<totfact> 0.98142940E+04</totfact>
</mgrwt>
</event>
<event>
 5    1  0.1595802E+000  0.8752503E+02  0.7546771E-02  0.1308958E+00
         21   -1    0    0  503  502  0.00000000000E+00  0.00000000000E+00  0.13064008070E+02  0.13064008070E+02  0.00000000000E+00 0. -1.
         21   -1    0    0  501  503 -0.00000000000E+00 -0.00000000000E+00 -0.64175093965E+03  0.64175093965E+03  0.00000000000E+00 0. -1.
         24    1    1    2    0    0 -0.35425782058E+02  0.52892136125E+02 -0.33149988205E+03  0.34700425336E+03  0.80419002446E+02 0. -1.
          1    1    1    2  501    0  0.10065825218E+02 -0.44721630335E+02 -0.24460842206E+03  0.24886668158E+03  0.00000000000E+00 0. -1.
         -2    1    1    2    0  502  0.25359956840E+02 -0.81705057897E+01 -0.52578627471E+02  0.58944012779E+02  0.00000000000E+00 0.  1.
<mgrwt>
<rscale>  2 0.87525034E+02</rscale>
<asrwt>0</asrwt>
<pdfrwt beam="1">  1       21 0.20098469E-02 0.87525034E+02</pdfrwt>
<pdfrwt beam="2">  1       21 0.98730936E-01 0.87525034E+02</pdfrwt>
<totfact> 0.10370924E+06</totfact>
</mgrwt>
</event>
<event>
 5    1  0.1595802E+000  0.7630172E+02  0.7546771E-02  0.1339887E+00
         21   -1    0    0  503  502  0.00000000000E+00  0.00000000000E+00  0.24166869094E+01  0.24166869094E+01  0.00000000000E+00 0. -1.
         21   -1    0    0  501  503 -0.00000000000E+00 -0.00000000000E+00 -0.30529549892E+04  0.30529549892E+04  0.00000000000E+00 0.  1.
         24    1    1    2    0    0 -0.43605801701E+01  0.40900915028E+02 -0.21903032395E+04  0.21921650021E+04  0.80419002446E+02 0.  0.
          1    1    1    2  501    0 -0.20827938646E+02 -0.12401760257E+02 -0.56662555611E+03  0.56714383319E+03  0.00000000000E+00 0. -1.
         -2    1    1    2    0  502  0.25188518816E+02 -0.28499154770E+02 -0.29360950669E+03  0.29606284083E+03  0.00000000000E+00 0.  1.
<mgrwt>
<rscale>  2 0.76301725E+02</rscale>
<asrwt>0</asrwt>
<pdfrwt beam="1">  1       21 0.37179892E-03 0.76301725E+02</pdfrwt>
<pdfrwt beam="2">  1       21 0.46968420E+00 0.76301725E+02</pdfrwt>
<totfact> 0.66752449E+04</totfact>
</mgrwt>
</event>
<event>
 5    1  0.1595802E+000  0.1147409E+03  0.7546771E-02  0.1252034E+00
         21   -1    0    0  503  502  0.00000000000E+00  0.00000000000E+00  0.14616867037E+03  0.14616867037E+03  0.00000000000E+00 0.  1.
         21   -1    0    0  501  503 -0.00000000000E+00 -0.00000000000E+00 -0.14108737061E+03  0.14108737061E+03  0.00000000000E+00 0.  1.
         24    1    1    2    0    0  0.44285520362E+02 -0.29316319589E+02  0.38271412470E+02  0.10369460388E+03  0.80419002446E+02 0.  1.
          1    1    1    2  501    0 -0.27725440432E+01 -0.46547001178E+02 -0.74369436615E+02  0.87778832423E+02  0.00000000000E+00 0. -1.
         -2    1    1    2    0  502 -0.41512976319E+02  0.75863320767E+02  0.41179323906E+02  0.95782604673E+02  0.00000000000E+00 0.  1.
<mgrwt>
<rscale>  2 0.11474091E+03</rscale>
<asrwt>0</asrwt>
<pdfrwt beam="1">  1       21 0.22487488E-01 0.11474091E+03</pdfrwt>
<pdfrwt beam="2">  1       21 0.21705749E-01 0.11474091E+03</pdfrwt>
<totfact> 0.37145479E+05</totfact>
</mgrwt>
</event>
<event>
 5    1  0.1595802E+000  0.8922688E+02  0.7546771E-02  0.1304735E+00
         21   -1    0    0  501  502  0.00000000000E+00  0.00000000000E+00  0.74796371062E+02  0.74796371062E+02  0.00000000000E+00 0. -1.
         21   -1    0    0  502  503 -0.00000000000E+00 -0.00000000000E+00 -0.22237674678E+03  0.22237674678E+03  0.00000000000E+00 0.  1.
         24    1    1    2    0    0  0.13781829527E+02 -0.33804681286E+02  0.15873181963E+02  0.89732208052E+02  0.80419002446E+02 0.  0.
          1    1    1    2  501    0 -0.34486778994E+01 -0.27627289915E+02  0.45943705139E+01  0.28218234666E+02  0.00000000000E+00 0. -1.
         -2    1    1    2    0  503 -0.10333151627E+02  0.61431971200E+02 -0.16804792820E+03  0.17922267513E+03  0.00000000000E+00 0.  1.
<mgrwt>
<rscale>  2 0.89226882E+02</rscale>
<asrwt>0</asrwt>
<pdfrwt beam="1">  1       21 0.11507134E-01 0.89226882E+02</pdfrwt>
<pdfrwt beam="2">  1       21 0.34211807E-01 0.89226882E+02</pdfrwt>
<totfact> 0.52557779E+05</totfact>
</mgrwt>
</event>
<event>
 5    1  0.1595802E+000  0.6998025E+02  0.7546771E-02  0.1360160E+00
         21   -1    0    0  501  502  0.00000000000E+00  0.00000000000E+00  0.75160808247E+03  0.75160808247E+03  0.00000000000E+00 0.  1.
         21   -1    0    0  502  503 -0.00000000000E+00 -0.00000000000E+00 -0.87577427944E+01  0.87577427944E+01  0.00000000000E+00 0. -1.
         24    1    1    2    0    0  0.22453870196E+02  0.46092008659E+01  0.31929046587E+03  0.33005914405E+03  0.80419002446E+02 0.  0.
          1    1    1    2  501    0 -0.55999084812E+01 -0.27414832857E+02  0.35517278029E+03  0.35627326015E+03  0.00000000000E+00 0. -1.
         -2    1    1    2    0  503 -0.16853961715E+02  0.22805631992E+02  0.68387093509E+02  0.74033421065E+02  0.00000000000E+00 0.  1.
<mgrwt>
<rscale>  2 0.69980250E+02</rscale>
<asrwt>0</asrwt>
<pdfrwt beam="1">  1       21 0.11563196E+00 0.69980250E+02</pdfrwt>
<pdfrwt beam="2">  1       21 0.13473456E-02 0.69980250E+02</pdfrwt>
<totfact> 0.13462526E+06</totfact>
</mgrwt>
</event>
<event>
 5    1  0.1595802E+000  0.8026695E+02  0.7546771E-02  0.1328296E+00
         21   -1    0    0  501  502  0.00000000000E+00  0.00000000000E+00  0.81687023595E+02  0.81687023595E+02  0.00000000000E+00 0. -1.
         21   -1    0    0  502  503 -0.00000000000E+00 -0.00000000000E+00 -0.14315998621E+03  0.14315998621E+03  0.00000000000E+00 0.  1.
         24    1    1    2    0    0  0.11647748478E+02  0.49774892463E+02  0.28216650915E+01  0.95333035788E+02  0.80419002446E+02 0. -1.
          1    1    1    2  501    0  0.14751902688E+02 -0.25059879399E+02  0.21661316012E+02  0.36260568112E+02  0.00000000000E+00 0. -1.
         -2    1    1    2    0  503 -0.26399651166E+02 -0.24715013064E+02 -0.85955943716E+02  0.93253405903E+02  0.00000000000E+00 0.  1.
<mgrwt>
<rscale>  2 0.80266950E+02</rscale>
<asrwt>0</asrwt>
<pdfrwt beam="1">  1       21 0.12567235E-01 0.80266950E+02</pdfrwt>
<pdfrwt beam="2">  1       21 0.22024613E-01 0.80266950E+02</pdfrwt>
<totfact> 0.10329157E+06</totfact>
</mgrwt>
</event>
<event>
 5    1  0.1595802E+000  0.1254082E+03  0.7546771E-02  0.1234433E+00
         21   -1    0    0  501  502  0.00000000000E+00  0.00000000000E+00  0.17719585022E+02  0.17719585022E+02  0.00000000000E+00 0. -1.
         21   -1    0    0  502  503 -0.00000000000E+00 -0.00000000000E+00 -0.22681389343E+04  0.22681389343E+04  0.00000000000E+00 0.  1.
         24    1    1    2    0    0  0.98719221336E+02 -0.66613256008E+01 -0.44051022189E+03  0.45859168054E+03  0.80419002446E+02 0.  1.
          1    1    1    2  501    0 -0.29273690695E+01  0.25515965402E+02 -0.15077640297E+02  0.29782028423E+02  0.00000000000E+00 0. -1.
         -2    1    1    2    0  503 -0.95791852267E+02 -0.18854639801E+02 -0.17948314871E+04  0.17974848104E+04  0.00000000000E+00 0.  1.
<mgrwt>
<rscale>  2 0.12540818E+03</rscale>
<asrwt>0</asrwt>
<pdfrwt beam="1">  1       21 0.27260913E-02 0.12540818E+03</pdfrwt>
<pdfrwt beam="2">  1       21 0.34894429E+00 0.12540818E+03</pdfrwt>
<totfact> 0.14421638E+04</totfact>
</mgrwt>
</event>
<event>
 5    1  0.1595802E+000  0.9198209E+02  0.7546771E-02  0.1298122E+00
         21   -1    0    0  501  502  0.00000000000E+00  0.00000000000E+00  0.60174659826E+02  0.60174659826E+02  0.00000000000E+00 0. -1.
         21   -1    0    0  502  503 -0.00000000000E+00 -0.00000000000E+00 -0.33859485281E+03  0.33859485281E+03  0.00000000000E+00 0.  1.
         24    1    1    2    0    0 -0.38073214672E+02 -0.35043021104E+02 -0.20551491095E+03  0.22667416611E+03  0.80419002446E+02 0.  1.
          1    1    1    2  501    0 -0.21506516548E+02  0.90753395779E+01  0.37388236526E+02  0.44076890465E+02  0.00000000000E+00 0. -1.
         -2    1    1    2    0  503  0.59579731220E+02  0.25967681526E+02 -0.11029351856E+03  0.12801845606E+03  0.00000000000E+00 0.  1.
<mgrwt>
<rscale>  2 0.91982086E+02</rscale>
<asrwt>0</asrwt>
<pdfrwt beam="1">  1       21 0.92576398E-02 0.91982086E+02</pdfrwt>
<pdfrwt beam="2">  1       21 0.52091517E-01 0.91982086E+02</pdfrwt>
<totfact> 0.33143993E+05</totfact>
</mgrwt>
</event>
<event>
 5    1  0.1595802E+000  0.1024429E+03  0.7546771E-02  0.1275241E+00
         21   -1    0    0  503  502  0.00000000000E+00  0.00000000000E+00  0.15637592080E+03  0.15637592080E+03  0.00000000000E+00 0.  1.
         21   -1    0    0  501  503 -0.00000000000E+00 -0.00000000000E+00 -0.22515983346E+03  0.22515983346E+03  0.00000000000E+00 0. -1.
         24    1    1    2    0    0  0.74612432338E+02  0.18495753899E+02 -0.12689737778E+03  0.16875801733E+03  0.80419002446E+02 0. -1.
          1    1    1    2  501    0 -0.42076443840E+02  0.17094181792E+02 -0.65720600237E+02  0.79886391037E+02  0.00000000000E+00 0. -1.
         -2    1    1    2    0  502 -0.32535988498E+02 -0.35589935691E+02  0.12383406536E+03  0.13289134590E+03  0.00000000000E+00 0.  1.
<mgrwt>
<rscale>  2 0.10244294E+03</rscale>
<asrwt>0</asrwt>
<pdfrwt beam="1">  1       21 0.24057834E-01 0.10244294E+03</pdfrwt>
<pdfrwt beam="2">  1       21 0.34639974E-01 0.10244294E+03</pdfrwt>
<totfact> 0.13507723E+05</totfact>
</mgrwt>
</event>
<event>
 5    1  0.1595802E+000  0.7290179E+02  0.7546771E-02  0.1350494E+00
         21   -1    0    0  503  502  0.00000000000E+00  0.00000000000E+00  0.15276882991E+03  0.15276882991E+03  0.00000000000E+00 0.  1.
         21   -1    0    0  501  503 -0.00000000000E+00 -0.00000000000E+00 -0.37030837342E+02  0.37030837342E+02  0.00000000000E+00 0. -1.
         24    1    1    2    0    0  0.31698937982E+01  0.29101803666E+02  0.69577156954E+02  0.11029578382E+03  0.80419002446E+02 0. -1.
          1    1    1    2  501    0  0.24316765228E+02 -0.80999696779E+01  0.56721927165E+01  0.26250492379E+02  0.00000000000E+00 0. -1.
         -2    1    1    2    0  502 -0.27486659026E+02 -0.21001833988E+02  0.40488642893E+02  0.53253391053E+02  0.00000000000E+00 0.  1.
<mgrwt>
<rscale>  2 0.72901788E+02</rscale>
<asrwt>0</asrwt>
<pdfrwt beam="1">  1       21 0.23502897E-01 0.72901788E+02</pdfrwt>
<pdfrwt beam="2">  1       21 0.56970520E-02 0.72901788E+02</pdfrwt>
<totfact> 0.35225780E+06</totfact>
</mgrwt>
</event>
<event>
 5    1  0.1595802E+000  0.7187267E+02  0.7546771E-02  0.1353838E+00
         21   -1    0    0  503  502  0.00000000000E+00  0.00000000000E+00  0.50875361996E+03  0.50875361996E+03  0.00000000000E+00 0.  1.
         21   -1    0    0  501  503 -0.00000000000E+00 -0.00000000000E+00 -0.49689732325E+02  0.49689732325E+02  0.00000000000E+00 0. -1.
         24    1    1    2    0    0 -0.11819964408E+02  0.80434712814E+00  0.42881317187E+03  0.43644966589E+03  0.80419002446E+02 0.  0.
          1    1    1    2  501    0  0.25503296749E+02 -0.24327106124E+02 -0.35994432913E+02  0.50376834340E+02  0.00000000000E+00 0. -1.
         -2    1    1    2    0  502 -0.13683332341E+02  0.23522758996E+02  0.66245148669E+02  0.71616852046E+02  0.00000000000E+00 0.  1.
<mgrwt>
<rscale>  2 0.71872668E+02</rscale>
<asrwt>0</asrwt>
<pdfrwt beam="1">  1       21 0.78269784E-01 0.71872668E+02</pdfrwt>
<pdfrwt beam="2">  1       21 0.76445746E-02 0.71872668E+02</pdfrwt>
<totfact> 0.19504862E+05</totfact>
</mgrwt>
</event>
<event>
 5    1  0.1595802E+000  0.7179811E+02  0.7546771E-02  0.1354083E+00
         21   -1    0    0  503  502  0.00000000000E+00  0.00000000000E+00  0.22073894983E+03  0.22073894983E+03  0.00000000000E+00 0. -1.
         21   -1    0    0  501  503 -0.00000000000E+00 -0.00000000000E+00 -0.33486251106E+02  0.33486251106E+02  0.00000000000E+00 0. -1.
         24    1    1    2    0    0  0.43103881359E+02 -0.23885317541E+02  0.50115683312E+02  0.10680473140E+03  0.80419002446E+02 0. -1.
          1    1    1    2  501    0 -0.22577579422E+02  0.12546221901E+02  0.40944186052E+02  0.48410547900E+02  0.00000000000E+00 0. -1.
         -2    1    1    2    0  502 -0.20526301937E+02  0.11339095640E+02  0.96192829362E+02  0.99009921633E+02  0.00000000000E+00 0.  1.
<mgrwt>
<rscale>  2 0.71798114E+02</rscale>
<asrwt>0</asrwt>
<pdfrwt beam="1">  1       21 0.33959838E-01 0.71798114E+02</pdfrwt>
<pdfrwt beam="2">  1       21 0.51517311E-02 0.71798114E+02</pdfrwt>
<totfact> 0.20788363E+06</totfact>
</mgrwt>
</event>
<event>
 5    1  0.1595802E+000  0.1613685E+03  0.7546771E-02  0.1187160E+00
         21   -1    0    0  503  502  0.00000000000E+00  0.00000000000E+00  0.21204694596E+03  0.21204694596E+03  0.00000000000E+00 0. -1.
         21   -1    0    0  501  503 -0.00000000000E+00 -0.00000000000E+00 -0.16076805920E+03  0.16076805920E+03  0.00000000000E+00 0.  1.
         24    1    1    2    0    0  0.69160950338E+02 -0.47218689949E+02  0.80327560063E+02  0.14118277017E+03  0.80419002446E+02 0.  0.
          1    1    1    2  501    0 -0.97120305010E+02 -0.47328529570E+02 -0.65698468699E+02  0.12644616303E+03  0.00000000000E+00 0. -1.
         -2    1    1    2    0  502  0.27959354672E+02  0.94547219518E+02  0.36649795397E+02  0.10518607196E+03  0.00000000000E+00 0.  1.
<mgrwt>
<rscale>  2 0.16136845E+03</rscale>
<asrwt>0</asrwt>
<pdfrwt beam="1">  1       21 0.32622607E-01 0.16136845E+03</pdfrwt>
<pdfrwt beam="2">  1       21 0.24733548E-01 0.16136845E+03</pdfrwt>
<totfact> 0.14131573E+05</totfact>
</mgrwt>
</event>
<event>
 5    1  0.1595802E+000  0.8129475E+02  0.7546771E-02  0.1325417E+00
         21   -1    0    0  501  502  0.00000000000E+00  0.00000000000E+00  0.13776325806E+04  0.13776325806E+04  0.00000000000E+00 0. -1.
         21   -1    0    0  502  503 -0.00000000000E+00 -0.00000000000E+00 -0.17376449299E+02  0.17376449299E+02  0.00000000000E+00 0. -1.
         24    1    1    2    0    0 -0.41838400444E+02  0.69818358611E+01  0.16582059848E+03  0.18911077340E+03  0.80419002446E+02 0. -1.
          1    1    1    2  501    0  0.45460067292E+02  0.16159440324E+02  0.11734741688E+04  0.11744655678E+04  0.00000000000E+00 0. -1.
         -2    1    1    2    0  503 -0.36216668479E+01 -0.23141276186E+02  0.20961364058E+02  0.31432688676E+02  0.00000000000E+00 0.  1.
<mgrwt>
<rscale>  2 0.81294747E+02</rscale>
<asrwt>0</asrwt>
<pdfrwt beam="1">  1       21 0.21194339E+00 0.81294747E+02</pdfrwt>
<pdfrwt beam="2">  1       21 0.26733010E-02 0.81294747E+02</pdfrwt>
<totfact> 0.94155876E+04</totfact>
</mgrwt>
</event>
<event>
 5    1  0.1595802E+000  0.7628386E+02  0.7546771E-02  0.1339941E+00
         21   -1    0    0  501  502  0.00000000000E+00  0.00000000000E+00  0.18483337981E+04  0.18483337981E+04  0.00000000000E+00 0. -1.
         21   -1    0    0  502  503 -0.00000000000E+00 -0.00000000000E+00 -0.40556913167E+01  0.40556913167E+01  0.00000000000E+00 0.  1.
         24    1    1    2    0    0 -0.26597654012E+01 -0.34864612137E+02  0.14463044538E+04  0.14489604565E+04  0.80419002446E+02 0. -1.
          1    1    1    2  501    0 -0.22910445618E+02  0.16651064194E+01  0.18040178664E+03  0.18185836720E+03  0.00000000000E+00 0. -1.
         -2    1    1    2    0  503  0.25570211019E+02  0.33199505718E+02  0.21757186632E+03  0.22157066567E+03  0.00000000000E+00 0.  1.
<mgrwt>
<rscale>  2 0.76283862E+02</rscale>
<asrwt>0</asrwt>
<pdfrwt beam="1">  1       21 0.28435837E+00 0.76283862E+02</pdfrwt>
<pdfrwt beam="2">  1       21 0.62395399E-03 0.76283862E+02</pdfrwt>
<totfact> 0.36647861E+05</totfact>
</mgrwt>
</event>
<event>
 5    1  0.1595802E+000  0.1291898E+03  0.7546771E-02  0.1228663E+00
         21   -1    0    0  503  502  0.00000000000E+00  0.00000000000E+00  0.18348920455E+03  0.18348920455E+03  0.00000000000E+00 0.  1.
         21   -1    0    0  501  503 -0.00000000000E+00 -0.00000000000E+00 -0.82671752929E+03  0.82671752929E+03  0.00000000000E+00 0. -1.
         24    1    1    2    0    0  0.64035529659E+02 -0.46160983424E+01  0.13536988662E+03  0.17004140549E+03  0.80419002446E+02 0.  1.
          1    1    1    2  501    0  0.44191044348E+02 -0.12452857617E+02 -0.70873866063E+03  0.71022419780E+03  0.00000000000E+00 0. -1.
         -2    1    1    2    0  502 -0.10822657401E+03  0.17068955959E+02 -0.69859550738E+02  0.12994113055E+03  0.00000000000E+00 0.  1.
<mgrwt>
<rscale>  2 0.12918983E+03</rscale>
<asrwt>0</asrwt>
<pdfrwt beam="1">  1       21 0.28229108E-01 0.12918983E+03</pdfrwt>
<pdfrwt beam="2">  1       21 0.12718731E+00 0.12918983E+03</pdfrwt>
<totfact> 0.58016472E+03</totfact>
</mgrwt>
</event>
<event>
 5    1  0.1595802E+000  0.7560519E+02  0.7546771E-02  0.1342007E+00
         21   -1    0    0  503  502  0.00000000000E+00  0.00000000000E+00  0.59752024028E+02  0.59752024028E+02  0.00000000000E+00 0.  1.
         21   -1    0    0  501  503 -0.00000000000E+00 -0.00000000000E+00 -0.98473909000E+02  0.98473909000E+02  0.00000000000E+00 0.  1.
         24    1    1    2    0    0  0.13953759843E+02 -0.25394983235E+01 -0.19736532618E+02  0.84011327449E+02  0.80419002446E+02 0.  0.
          1    1    1    2  501    0  0.26088295785E+02  0.11511869622E+02 -0.16855332098E+02  0.33124379832E+02  0.00000000000E+00 0. -1.
         -2    1    1    2    0  502 -0.40042055628E+02 -0.89723712982E+01 -0.21300202558E+01  0.41090225747E+02  0.00000000000E+00 0.  1.
<mgrwt>
<rscale>  2 0.75605192E+02</rscale>
<asrwt>0</asrwt>
<pdfrwt beam="1">  1       21 0.91926191E-02 0.75605192E+02</pdfrwt>
<pdfrwt beam="2">  1       21 0.15149832E-01 0.75605192E+02</pdfrwt>
<totfact> 0.34859137E+06</totfact>
</mgrwt>
</event>
<event>
 5    1  0.1595802E+000  0.1423710E+03  0.7546771E-02  0.1210174E+00
         21   -1    0    0  503  502  0.00000000000E+00  0.00000000000E+00  0.16525262497E+03  0.16525262497E+03  0.00000000000E+00 0. -1.
         21   -1    0    0  501  503 -0.00000000000E+00 -0.00000000000E+00 -0.22843808338E+03  0.22843808338E+03  0.00000000000E+00 0.  1.
         24    1    1    2    0    0 -0.22162365451E+02 -0.15112261667E+02  0.86964413247E+02  0.12144783251E+03  0.80419002446E+02 0. -1.
          1    1    1    2  501    0 -0.24344278922E+02 -0.85621994025E+02 -0.13290226959E+03  0.15995869166E+03  0.00000000000E+00 0. -1.
         -2    1    1    2    0  502  0.46506644372E+02  0.10073425569E+03 -0.17247602067E+02  0.11228418418E+03  0.00000000000E+00 0.  1.
<mgrwt>
<rscale>  2 0.14237098E+03</rscale>
<asrwt>0</asrwt>
<pdfrwt beam="1">  1       21 0.25423481E-01 0.14237098E+03</pdfrwt>
<pdfrwt beam="2">  1       21 0.35144320E-01 0.14237098E+03</pdfrwt>
<totfact> 0.11657666E+05</totfact>
</mgrwt>
</event>
<event>
 5    1  0.1595802E+000  0.8551918E+02  0.7546771E-02  0.1314080E+00
         21   -1    0    0  503  502  0.00000000000E+00  0.00000000000E+00  0.54256778205E+02  0.54256778205E+02  0.00000000000E+00 0. -1.
         21   -1    0    0  501  503 -0.00000000000E+00 -0.00000000000E+00 -0.13998286940E+03  0.13998286940E+03  0.00000000000E+00 0.  1.
         24    1    1    2    0    0  0.11972911773E+02  0.27632490923E+02 -0.58970101732E+02  0.10417098456E+03  0.80419002446E+02 0.  1.
          1    1    1    2  501    0 -0.16694885955E+01  0.28271176864E+02 -0.14897423055E+02  0.31999685110E+02  0.00000000000E+00 0. -1.
         -2    1    1    2    0  502 -0.10303423178E+02 -0.55903667787E+02 -0.11858566404E+02  0.58068977935E+02  0.00000000000E+00 0.  1.
<mgrwt>
<rscale>  2 0.85519182E+02</rscale>
<asrwt>0</asrwt>
<pdfrwt beam="1">  1       21 0.83471966E-02 0.85519182E+02</pdfrwt>
<pdfrwt beam="2">  1       21 0.21535826E-01 0.85519182E+02</pdfrwt>
<totfact> 0.21910357E+06</totfact>
</mgrwt>
</event>
<event>
 5    1  0.1595802E+000  0.7006803E+02  0.7546771E-02  0.1359862E+00
         21   -1    0    0  501  502  0.00000000000E+00  0.00000000000E+00  0.68324398406E+02  0.68324398406E+02  0.00000000000E+00 0.  1.
         21   -1    0    0  502  503 -0.00000000000E+00 -0.00000000000E+00 -0.22193596818E+03  0.22193596818E+03  0.00000000000E+00 0.  1.
         24    1    1    2    0    0 -0.59789493809E+01  0.28947965957E+02 -0.31966649904E+02  0.91448429342E+02  0.80419002446E+02 0.  1.
          1    1    1    2  501    0 -0.15218566378E+02 -0.29563089568E+02  0.30545619050E+02  0.45151033992E+02  0.00000000000E+00 0. -1.
         -2    1    1    2    0  503  0.21197515759E+02  0.61512361121E+00 -0.15219053892E+03  0.15366090325E+03  0.00000000000E+00 0.  1.
<mgrwt>
<rscale>  2 0.70068026E+02</rscale>
<asrwt>0</asrwt>
<pdfrwt beam="1">  1       21 0.10511446E-01 0.70068026E+02</pdfrwt>
<pdfrwt beam="2">  1       21 0.34143996E-01 0.70068026E+02</pdfrwt>
<totfact> 0.61636786E+05</totfact>
</mgrwt>
</event>
<event>
 5    1  0.1595802E+000  0.7317354E+02  0.7546771E-02  0.1349622E+00
         21   -1    0    0  501  502  0.00000000000E+00  0.00000000000E+00  0.47540173494E+02  0.47540173494E+02  0.00000000000E+00 0. -1.
         21   -1    0    0  502  503 -0.00000000000E+00 -0.00000000000E+00 -0.13064734254E+03  0.13064734254E+03  0.00000000000E+00 0.  1.
         24    1    1    2    0    0  0.25063787875E+02 -0.69548245551E+01 -0.48815418975E+02  0.97604939073E+02  0.80419002446E+02 0. -1.
          1    1    1    2  501    0 -0.28241514286E+02  0.28455996059E+02 -0.12870264248E+00  0.40091687483E+02  0.00000000000E+00 0. -1.
         -2    1    1    2    0  503  0.31777264109E+01 -0.21501171503E+02 -0.34163047429E+02  0.40490889479E+02  0.00000000000E+00 0.  1.
<mgrwt>
<rscale>  2 0.73173543E+02</rscale>
<asrwt>0</asrwt>
<pdfrwt beam="1">  1       21 0.73138729E-02 0.73173543E+02</pdfrwt>
<pdfrwt beam="2">  1       21 0.20099591E-01 0.73173543E+02</pdfrwt>
<totfact> 0.30872623E+06</totfact>
</mgrwt>
</event>
<event>
 5    1  0.1595802E+000  0.1006577E+03  0.7546771E-02  0.1278919E+00
         21   -1    0    0  501  502  0.00000000000E+00  0.00000000000E+00  0.44852780300E+02  0.44852780300E+02  0.00000000000E+00 0. -1.
         21   -1    0    0  502  503 -0.00000000000E+00 -0.00000000000E+00 -0.40224901124E+03  0.40224901124E+03  0.00000000000E+00 0. -1.
         24    1    1    2    0    0 -0.30136011611E+01 -0.66632366427E+02 -0.30020491829E+03  0.31786658045E+03  0.80419002446E+02 0. -1.
          1    1    1    2  501    0  0.35756787929E+02  0.23935961233E+02  0.89729655598E+01  0.43954433611E+02  0.00000000000E+00 0. -1.
         -2    1    1    2    0  503 -0.32743186768E+02  0.42696405193E+02 -0.66164278204E+02  0.85280777473E+02  0.00000000000E+00 0.  1.
<mgrwt>
<rscale>  2 0.10065770E+03</rscale>
<asrwt>0</asrwt>
<pdfrwt beam="1">  1       21 0.69004279E-02 0.10065770E+03</pdfrwt>
<pdfrwt beam="2">  1       21 0.61884462E-01 0.10065770E+03</pdfrwt>
<totfact> 0.38201447E+05</totfact>
</mgrwt>
</event>
<event>
 5    1  0.1595802E+000  0.7216815E+02  0.7546771E-02  0.1352872E+00
         21   -1    0    0  503  502  0.00000000000E+00  0.00000000000E+00  0.41758708477E+03  0.41758708477E+03  0.00000000000E+00 0.  1.
         21   -1    0    0  501  503 -0.00000000000E+00 -0.00000000000E+00 -0.16854599588E+02  0.16854599588E+02  0.00000000000E+00 0.  1.
         24    1    1    2    0    0 -0.16290402716E+02  0.43902045845E+02  0.14827476966E+03  0.17505824780E+03  0.80419002446E+02 0.  1.
          1    1    1    2  501    0 -0.79202303906E+00 -0.27770584199E+02  0.68317819350E+02  0.73750641272E+02  0.00000000000E+00 0. -1.
         -2    1    1    2    0  502  0.17082425755E+02 -0.16131461646E+02  0.18413989617E+03  0.18563279528E+03  0.00000000000E+00 0.  1.
<mgrwt>
<rscale>  2 0.72168147E+02</rscale>
<asrwt>0</asrwt>
<pdfrwt beam="1">  1       21 0.64244159E-01 0.72168147E+02</pdfrwt>
<pdfrwt beam="2">  1       21 0.25930156E-02 0.72168147E+02</pdfrwt>
<totfact> 0.17668913E+06</totfact>
</mgrwt>
</event>
<event>
 5    1  0.1595802E+000  0.9046805E+02  0.7546771E-02  0.1301722E+00
         21   -1    0    0  503  502  0.00000000000E+00  0.00000000000E+00  0.24660414073E+03  0.24660414073E+03  0.00000000000E+00 0.  1.
         21   -1    0    0  501  503 -0.00000000000E+00 -0.00000000000E+00 -0.78775712487E+02  0.78775712487E+02  0.00000000000E+00 0. -1.
         24    1    1    2    0    0  0.29534772455E+02 -0.60647035520E+02  0.17557417365E+02  0.10642295129E+03  0.80419002446E+02 0. -1.
          1    1    1    2  501    0  0.60356057634E+01  0.24598266089E+02 -0.25556619744E+02  0.35981162353E+02  0.00000000000E+00 0. -1.
         -2    1    1    2    0  502 -0.35570378218E+02  0.36048769431E+02  0.17582763063E+03  0.18297573958E+03  0.00000000000E+00 0.  1.
<mgrwt>
<rscale>  2 0.90468049E+02</rscale>
<asrwt>0</asrwt>
<pdfrwt beam="1">  1       21 0.37939098E-01 0.90468049E+02</pdfrwt>
<pdfrwt beam="2">  1       21 0.12119340E-01 0.90468049E+02</pdfrwt>
<totfact> 0.39222680E+05</totfact>
</mgrwt>
</event>
<event>
 5    1  0.1595802E+000  0.6154455E+02  0.7546771E-02  0.1391462E+00
         21   -1    0    0  501  502  0.00000000000E+00  0.00000000000E+00  0.17288755625E+03  0.17288755625E+03  0.00000000000E+00 0.  1.
         21   -1    0    0  502  503 -0.00000000000E+00 -0.00000000000E+00 -0.37346599374E+02  0.37346599374E+02  0.00000000000E+00 0. -1.
         24    1    1    2    0    0  0.10947578827E+02 -0.12292286814E+02  0.72280637619E+02  0.10937392891E+03  0.80419002446E+02 0.  0.
          1    1    1    2  501    0  0.79101512822E+01  0.19321153043E+02  0.74801690780E+02  0.77660610297E+02  0.00000000000E+00 0. -1.
         -2    1    1    2    0  503 -0.18857730109E+02 -0.70288662291E+01 -0.11541371519E+02  0.23199616416E+02  0.00000000000E+00 0.  1.
<mgrwt>
<rscale>  2 0.61544546E+02</rscale>
<asrwt>0</asrwt>
<pdfrwt beam="1">  1       21 0.26598085E-01 0.61544546E+02</pdfrwt>
<pdfrwt beam="2">  1       21 0.57456308E-02 0.61544546E+02</pdfrwt>
<totfact> 0.27316838E+06</totfact>
</mgrwt>
</event>
<event>
 5    1  0.1595802E+000  0.6618677E+02  0.7546771E-02  0.1373562E+00
         21   -1    0    0  501  502  0.00000000000E+00  0.00000000000E+00  0.46405762863E+02  0.46405762863E+02  0.00000000000E+00 0. -1.
         21   -1    0    0  502  503 -0.00000000000E+00 -0.00000000000E+00 -0.10451255002E+04  0.10451255002E+04  0.00000000000E+00 0.  1.
         24    1    1    2    0    0  0.39220900802E+02 -0.51841746008E+01 -0.13589790240E+03  0.16279008126E+03  0.80419002446E+02 0. -1.
          1    1    1    2  501    0 -0.18243437907E+02  0.10580556289E+02  0.29441127809E+02  0.36215344879E+02  0.00000000000E+00 0. -1.
         -2    1    1    2    0  503 -0.20977462895E+02 -0.53963816886E+01 -0.89226296270E+03  0.89252583687E+03  0.00000000000E+00 0.  1.
<mgrwt>
<rscale>  2 0.66186769E+02</rscale>
<asrwt>0</asrwt>
<pdfrwt beam="1">  1       21 0.71393476E-02 0.66186769E+02</pdfrwt>
<pdfrwt beam="2">  1       21 0.16078855E+00 0.66186769E+02</pdfrwt>
<totfact> 0.40358122E+04</totfact>
</mgrwt>
</event>
<event>
 5    1  0.1595802E+000  0.1004456E+03  0.7546771E-02  0.1279362E+00
         21   -1    0    0  503  502  0.00000000000E+00  0.00000000000E+00  0.37036934334E+03  0.37036934334E+03  0.00000000000E+00 0. -1.
         21   -1    0    0  501  503 -0.00000000000E+00 -0.00000000000E+00 -0.44583948806E+02  0.44583948806E+02  0.00000000000E+00 0.  1.
         24    1    1    2    0    0  0.37688212526E+02 -0.54743361115E+01  0.22867395883E+02  0.91872212709E+02  0.80419002446E+02 0.  1.
          1    1    1    2  501    0  0.22615299288E+02  0.37378259558E+02  0.10460998053E+03  0.11336592996E+03  0.00000000000E+00 0. -1.
         -2    1    1    2    0  502 -0.60303511815E+02 -0.31903923446E+02  0.19830801812E+03  0.20971514948E+03  0.00000000000E+00 0.  1.
<mgrwt>
<rscale>  2 0.10044558E+03</rscale>
<asrwt>0</asrwt>
<pdfrwt beam="1">  1       21 0.56979897E-01 0.10044558E+03</pdfrwt>
<pdfrwt beam="2">  1       21 0.68590693E-02 0.10044558E+03</pdfrwt>
<totfact> 0.45920528E+05</totfact>
</mgrwt>
</event>
<event>
 5    1  0.1595802E+000  0.7321073E+02  0.7546771E-02  0.1349503E+00
         21   -1    0    0  501  502  0.00000000000E+00  0.00000000000E+00  0.21169380931E+03  0.21169380931E+03  0.00000000000E+00 0. -1.
         21   -1    0    0  502  503 -0.00000000000E+00 -0.00000000000E+00 -0.29349841809E+02  0.29349841809E+02  0.00000000000E+00 0. -1.
         24    1    1    2    0    0 -0.61713976538E+01 -0.49968760832E+02  0.11091109445E+03  0.14595701434E+03  0.80419002446E+02 0. -1.
          1    1    1    2  501    0  0.84694821632E+01  0.23614419889E+02  0.62197771475E+02  0.67066651410E+02  0.00000000000E+00 0. -1.
         -2    1    1    2    0  503 -0.22980845095E+01  0.26354340943E+02  0.92351015727E+01  0.28019985368E+02  0.00000000000E+00 0.  1.
<mgrwt>
<rscale>  2 0.73210734E+02</rscale>
<asrwt>0</asrwt>
<pdfrwt beam="1">  1       21 0.32568277E-01 0.73210734E+02</pdfrwt>
<pdfrwt beam="2">  1       21 0.45153604E-02 0.73210734E+02</pdfrwt>
<totfact> 0.28036372E+06</totfact>
</mgrwt>
</event>
<event>
 5    1  0.1595802E+000  0.1118547E+03  0.7546771E-02  0.1257173E+00
         21   -1    0    0  503  502  0.00000000000E+00  0.00000000000E+00  0.46346360602E+02  0.46346360602E+02  0.00000000000E+00 0. -1.
         21   -1    0    0  501  503 -0.00000000000E+00 -0.00000000000E+00 -0.60079593380E+03  0.60079593380E+03  0.00000000000E+00 0. -1.
         24    1    1    2    0    0  0.34795989124E+02 -0.83399065301E+02 -0.50060866571E+02  0.13091780348E+03  0.80419002446E+02 0. -1.
          1    1    1    2  501    0  0.27011902316E+01  0.56568955641E+02 -0.36603272559E+03  0.37038803891E+03  0.00000000000E+00 0. -1.
         -2    1    1    2    0  502 -0.37497179355E+02  0.26830109661E+02 -0.13835598104E+03  0.14583645201E+03  0.00000000000E+00 0.  1.
<mgrwt>
<rscale>  2 0.11185467E+03</rscale>
<asrwt>0</asrwt>
<pdfrwt beam="1">  1       21 0.71302098E-02 0.11185467E+03</pdfrwt>
<pdfrwt beam="2">  1       21 0.92430137E-01 0.11185467E+03</pdfrwt>
<totfact> 0.14902038E+05</totfact>
</mgrwt>
</event>
<event>
 5    1  0.1595802E+000  0.6903208E+02  0.7546771E-02  0.1363416E+00
         21   -1    0    0  503  502  0.00000000000E+00  0.00000000000E+00  0.50747002283E+02  0.50747002283E+02  0.00000000000E+00 0. -1.
         21   -1    0    0  501  503 -0.00000000000E+00 -0.00000000000E+00 -0.10381377075E+03  0.10381377075E+03  0.00000000000E+00 0. -1.
         24    1    1    2    0    0 -0.19296557545E+02  0.36330978127E+02 -0.16407017112E+02  0.91807969532E+02  0.80419002446E+02 0. -1.
          1    1    1    2  501    0  0.31513691441E+00 -0.26230999423E+02 -0.30819898447E+02  0.40472592976E+02  0.00000000000E+00 0. -1.
         -2    1    1    2    0  502  0.18981420630E+02 -0.10099978705E+02 -0.58398529074E+01  0.22280210523E+02  0.00000000000E+00 0.  1.
<mgrwt>
<rscale>  2 0.69032084E+02</rscale>
<asrwt>0</asrwt>
<pdfrwt beam="1">  1       21 0.78072311E-02 0.69032084E+02</pdfrwt>
<pdfrwt beam="2">  1       21 0.15971349E-01 0.69032084E+02</pdfrwt>
<totfact> 0.41649384E+06</totfact>
</mgrwt>
</event>
<event>
 5    1  0.1595802E+000  0.8438013E+02  0.7546771E-02  0.1317062E+00
         21   -1    0    0  503  502  0.00000000000E+00  0.00000000000E+00  0.15609722288E+04  0.15609722288E+04  0.00000000000E+00 0. -1.
         21   -1    0    0  501  503 -0.00000000000E+00 -0.00000000000E+00 -0.99405267853E+01  0.99405267853E+01  0.00000000000E+00 0. -1.
         24    1    1    2    0    0 -0.12545575602E+02 -0.27621789477E+02  0.12386767086E+04  0.12416551692E+04  0.80419002446E+02 0. -1.
          1    1    1    2  501    0 -0.14210807034E+02 -0.22141132217E+02  0.24634687176E+02  0.36042261092E+02  0.00000000000E+00 0. -1.
         -2    1    1    2    0  502  0.26756382636E+02  0.49762921693E+02  0.28772030620E+03  0.29321532530E+03  0.00000000000E+00 0.  1.
<mgrwt>
<rscale>  2 0.84380126E+02</rscale>
<asrwt>0</asrwt>
<pdfrwt beam="1">  1       21 0.24014938E+00 0.84380126E+02</pdfrwt>
<pdfrwt beam="2">  1       21 0.15293130E-02 0.84380126E+02</pdfrwt>
<totfact> 0.15733239E+05</totfact>
</mgrwt>
</event>
<event>
 5    1  0.1595802E+000  0.1490750E+03  0.7546771E-02  0.1201614E+00
         21   -1    0    0  501  502  0.00000000000E+00  0.00000000000E+00  0.53597847242E+02  0.53597847242E+02  0.00000000000E+00 0. -1.
         21   -1    0    0  502  503 -0.00000000000E+00 -0.00000000000E+00 -0.41557930357E+03  0.41557930357E+03  0.00000000000E+00 0.  1.
         24    1    1    2    0    0  0.74238202335E+02 -0.56001840706E+02 -0.14211162735E+03  0.18791074326E+03  0.80419002446E+02 0. -1.
          1    1    1    2  501    0 -0.48989503228E+02 -0.47760408840E+02 -0.79358541059E+02  0.10477979823E+03  0.00000000000E+00 0. -1.
         -2    1    1    2    0  503 -0.25248699107E+02  0.10376224955E+03 -0.14051128792E+03  0.17648660932E+03  0.00000000000E+00 0.  1.
<mgrwt>
<rscale>  2 0.14907501E+03</rscale>
<asrwt>0</asrwt>
<pdfrwt beam="1">  1       21 0.82458228E-02 0.14907501E+03</pdfrwt>
<pdfrwt beam="2">  1       21 0.63935276E-01 0.14907501E+03</pdfrwt>
<totfact> 0.26007582E+05</totfact>
</mgrwt>
</event>
<event>
 5    1  0.1595802E+000  0.7850990E+02  0.7546771E-02  0.1333334E+00
         21   -1    0    0  501  502  0.00000000000E+00  0.00000000000E+00  0.14481746117E+03  0.14481746117E+03  0.00000000000E+00 0.  1.
         21   -1    0    0  502  503 -0.00000000000E+00 -0.00000000000E+00 -0.45734659010E+02  0.45734659010E+02  0.00000000000E+00 0. -1.
         24    1    1    2    0    0 -0.52416801422E+02 -0.17476417686E+02  0.42528462804E+02  0.10643698769E+03  0.80419002446E+02 0.  0.
          1    1    1    2  501    0  0.30426804726E+02 -0.14126450298E+01  0.41418094282E+02  0.51412494063E+02  0.00000000000E+00 0. -1.
         -2    1    1    2    0  503  0.21989996696E+02  0.18889062716E+02  0.15136245073E+02  0.32702638424E+02  0.00000000000E+00 0.  1.
<mgrwt>
<rscale>  2 0.78509902E+02</rscale>
<asrwt>0</asrwt>
<pdfrwt beam="1">  1       21 0.22279609E-01 0.78509902E+02</pdfrwt>
<pdfrwt beam="2">  1       21 0.70361015E-02 0.78509902E+02</pdfrwt>
<totfact> 0.27403724E+06</totfact>
</mgrwt>
</event>
<event>
 5    1  0.1595802E+000  0.6481804E+02  0.7546771E-02  0.1378657E+00
         21   -1    0    0  501  502  0.00000000000E+00  0.00000000000E+00  0.11933673411E+03  0.11933673411E+03  0.00000000000E+00 0.  1.
         21   -1    0    0  502  503 -0.00000000000E+00 -0.00000000000E+00 -0.45496836164E+02  0.45496836164E+02  0.00000000000E+00 0. -1.
         24    1    1    2    0    0 -0.81533341942E+01 -0.40735775577E+01  0.49454514354E+02  0.94847434530E+02  0.80419002446E+02 0.  0.
          1    1    1    2  501    0 -0.75521582220E+01  0.22941784928E+02  0.35581103496E+02  0.43004366238E+02  0.00000000000E+00 0. -1.
         -2    1    1    2    0  503  0.15705492416E+02 -0.18868207371E+02 -0.11195719905E+02  0.26981769505E+02  0.00000000000E+00 0.  1.
<mgrwt>
<rscale>  2 0.64818037E+02</rscale>
<asrwt>0</asrwt>
<pdfrwt beam="1">  1       21 0.18359497E-01 0.64818037E+02</pdfrwt>
<pdfrwt beam="2">  1       21 0.69995133E-02 0.64818037E+02</pdfrwt>
<totfact> 0.38845507E+06</totfact>
</mgrwt>
</event>
<event>
 5    1  0.1595802E+000  0.9292632E+02  0.7546771E-02  0.1295916E+00
         21   -1    0    0  503  502  0.00000000000E+00  0.00000000000E+00  0.86925393135E+03  0.86925393135E+03  0.00000000000E+00 0.  1.
         21   -1    0    0  501  503 -0.00000000000E+00 -0.00000000000E+00 -0.16214279561E+02  0.16214279561E+02  0.00000000000E+00 0.  1.
         24    1    1    2    0    0  0.50837475174E+02 -0.51432345948E+02  0.22221436452E+03  0.24713594406E+03  0.80419002446E+02 0.  1.
          1    1    1    2  501    0 -0.21335118963E+02  0.41337486158E+02  0.16408731086E+03  0.17055386436E+03  0.00000000000E+00 0. -1.
         -2    1    1    2    0  502 -0.29502356211E+02  0.10094859790E+02  0.46673797641E+03  0.46777840250E+03  0.00000000000E+00 0.  1.
<mgrwt>
<rscale>  2 0.92926319E+02</rscale>
<asrwt>0</asrwt>
<pdfrwt beam="1">  1       21 0.13373134E+00 0.92926319E+02</pdfrwt>
<pdfrwt beam="2">  1       21 0.24945052E-02 0.92926319E+02</pdfrwt>
<totfact> 0.35524878E+05</totfact>
</mgrwt>
</event>
<event>
 5    1  0.1595802E+000  0.1095201E+03  0.7546771E-02  0.1261461E+00
         21   -1    0    0  503  502  0.00000000000E+00  0.00000000000E+00  0.12751973385E+03  0.12751973385E+03  0.00000000000E+00 0. -1.
         21   -1    0    0  501  503 -0.00000000000E+00 -0.00000000000E+00 -0.14778722961E+03  0.14778722961E+03  0.00000000000E+00 0.  1.
         24    1    1    2    0    0 -0.44427799938E+02  0.51272004844E+02  0.44671190900E+02  0.11430388943E+03  0.80419002446E+02 0. -1.
          1    1    1    2  501    0  0.18523937597E+02 -0.75873649859E+02 -0.88633400374E+02  0.11813478179E+03  0.00000000000E+00 0. -1.
         -2    1    1    2    0  502  0.25903862340E+02  0.24601645015E+02  0.23694713706E+02  0.42868292236E+02  0.00000000000E+00 0.  1.
<mgrwt>
<rscale>  2 0.10952012E+03</rscale>
<asrwt>0</asrwt>
<pdfrwt beam="1">  1       21 0.19618421E-01 0.10952012E+03</pdfrwt>
<pdfrwt beam="2">  1       21 0.22736497E-01 0.10952012E+03</pdfrwt>
<totfact> 0.43892329E+05</totfact>
</mgrwt>
</event>
<event>
 5    1  0.1595802E+000  0.8203614E+02  0.7546771E-02  0.1323370E+00
         21   -1    0    0  503  502  0.00000000000E+00  0.00000000000E+00  0.63171185652E+03  0.63171185652E+03  0.00000000000E+00 0.  1.
         21   -1    0    0  501  503 -0.00000000000E+00 -0.00000000000E+00 -0.18333173962E+02  0.18333173962E+02  0.00000000000E+00 0. -1.
         24    1    1    2    0    0  0.53581300506E+01  0.60725046564E+02  0.44941297321E+03  0.46060338392E+03  0.80419002446E+02 0.  1.
          1    1    1    2  501    0  0.47679279840E+01 -0.37772025639E+02  0.19426949007E+02  0.42741846074E+02  0.00000000000E+00 0. -1.
         -2    1    1    2    0  502 -0.10126058035E+02 -0.22953020925E+02  0.14453876035E+03  0.14669980049E+03  0.00000000000E+00 0.  1.
<mgrwt>
<rscale>  2 0.82036144E+02</rscale>
<asrwt>0</asrwt>
<pdfrwt beam="1">  1       21 0.97186423E-01 0.82036144E+02</pdfrwt>
<pdfrwt beam="2">  1       21 0.28204888E-02 0.82036144E+02</pdfrwt>
<totfact> 0.62342446E+05</totfact>
</mgrwt>
</event>
<event>
 5    1  0.1595802E+000  0.7879366E+02  0.7546771E-02  0.1332510E+00
         21   -1    0    0  501  502  0.00000000000E+00  0.00000000000E+00  0.68021115729E+03  0.68021115729E+03  0.00000000000E+00 0. -1.
         21   -1    0    0  502  503 -0.00000000000E+00 -0.00000000000E+00 -0.30626695778E+02  0.30626695778E+02  0.00000000000E+00 0. -1.
         24    1    1    2    0    0  0.42562220082E+02 -0.35330001328E+02  0.97330784223E+02  0.13784139104E+03  0.80419002446E+02 0. -1.
          1    1    1    2  501    0 -0.36463284581E+02  0.16195551660E+02  0.55145625809E+03  0.55289770446E+03  0.00000000000E+00 0. -1.
         -2    1    1    2    0  503 -0.60989355016E+01  0.19134449668E+02  0.79741920393E+00  0.20098757567E+02  0.00000000000E+00 0.  1.
<mgrwt>
<rscale>  2 0.78793663E+02</rscale>
<asrwt>0</asrwt>
<pdfrwt beam="1">  1       21 0.10464786E+00 0.78793663E+02</pdfrwt>
<pdfrwt beam="2">  1       21 0.47117999E-02 0.78793663E+02</pdfrwt>
<totfact> 0.22726708E+05</totfact>
</mgrwt>
</event>
<event>
 5    1  0.1595802E+000  0.1423651E+03  0.7546771E-02  0.1210182E+00
         21   -1    0    0  501  502  0.00000000000E+00  0.00000000000E+00  0.39061422345E+03  0.39061422345E+03  0.00000000000E+00 0. -1.
         21   -1    0    0  502  503 -0.00000000000E+00 -0.00000000000E+00 -0.20486978964E+03  0.20486978964E+03  0.00000000000E+00 0.  1.
         24    1    1    2    0    0 -0.67956023836E+02 -0.10202366738E+03 -0.16186469162E+03  0.21839011934E+03  0.80419002446E+02 0.  1.
          1    1    1    2  501    0  0.44888006405E+02  0.13843620172E+02  0.18301708043E+03  0.18894928068E+03  0.00000000000E+00 0. -1.
         -2    1    1    2    0  503  0.23068017430E+02  0.88180047205E+02  0.16459204499E+03  0.18814461307E+03  0.00000000000E+00 0.  1.
<mgrwt>
<rscale>  2 0.14236511E+03</rscale>
<asrwt>0</asrwt>
<pdfrwt beam="1">  1       21 0.60094496E-01 0.14236511E+03</pdfrwt>
<pdfrwt beam="2">  1       21 0.31518429E-01 0.14236511E+03</pdfrwt>
<totfact> 0.25748218E+04</totfact>
</mgrwt>
</event>
<event>
 5    1  0.1595802E+000  0.9609139E+02  0.7546771E-02  0.1288737E+00
         21   -1    0    0  501  502  0.00000000000E+00  0.00000000000E+00  0.46260668963E+02  0.46260668963E+02  0.00000000000E+00 0. -1.
         21   -1    0    0  502  503 -0.00000000000E+00 -0.00000000000E+00 -0.20597098115E+03  0.20597098115E+03  0.00000000000E+00 0. -1.
         24    1    1    2    0    0 -0.27759418577E+01 -0.10133316712E+02 -0.80463565407E+02  0.11424531182E+03  0.80419002446E+02 0. -1.
          1    1    1    2  501    0 -0.13068747518E+01  0.60517195843E+02 -0.30578582676E+02  0.67816580811E+02  0.00000000000E+00 0. -1.
         -2    1    1    2    0  503  0.40828166096E+01 -0.50383879132E+02 -0.48668164107E+02  0.70169757484E+02  0.00000000000E+00 0.  1.
<mgrwt>
<rscale>  2 0.96091389E+02</rscale>
<asrwt>0</asrwt>
<pdfrwt beam="1">  1       21 0.71170260E-02 0.96091389E+02</pdfrwt>
<pdfrwt beam="2">  1       21 0.31687843E-01 0.96091389E+02</pdfrwt>
<totfact> 0.13959988E+06</totfact>
</mgrwt>
</event>
<event>
 5    1  0.1595802E+000  0.8608029E+02  0.7546771E-02  0.1312631E+00
         21   -1    0    0  501  502  0.00000000000E+00  0.00000000000E+00  0.29772617136E+02  0.29772617136E+02  0.00000000000E+00 0. -1.
         21   -1    0    0  502  503 -0.00000000000E+00 -0.00000000000E+00 -0.53713695190E+03  0.53713695190E+03  0.00000000000E+00 0. -1.
         24    1    1    2    0    0  0.30173576290E+02 -0.57052475361E+02 -0.33112272928E+03  0.34680672925E+03  0.80419002446E+02 0. -1.
          1    1    1    2  501    0 -0.20540161814E+02  0.13828496006E+02  0.11433587235E+02  0.27273658834E+02  0.00000000000E+00 0. -1.
         -2    1    1    2    0  503 -0.96334144761E+01  0.43223979355E+02 -0.18767519272E+03  0.19282918096E+03  0.00000000000E+00 0.  1.
<mgrwt>
<rscale>  2 0.86080286E+02</rscale>
<asrwt>0</asrwt>
<pdfrwt beam="1">  1       21 0.45804028E-02 0.86080286E+02</pdfrwt>
<pdfrwt beam="2">  1       21 0.82636451E-01 0.86080286E+02</pdfrwt>
<totfact> 0.40639107E+05</totfact>
</mgrwt>
</event>
<event>
 5    1  0.2583117E+000  0.1345857E+03  0.7546771E-02  0.1220806E+00
         21   -1    0    0  503  502  0.00000000000E+00  0.00000000000E+00  0.42704932256E+03  0.42704932256E+03  0.00000000000E+00 0. -1.
         21   -1    0    0  501  503 -0.00000000000E+00 -0.00000000000E+00 -0.20333232951E+03  0.20333232951E+03  0.00000000000E+00 0. -1.
         24    1    1    2    0    0 -0.65035464144E+02  0.93047942485E+02  0.31529558974E+03  0.34462451460E+03  0.80419002446E+02 0. -1.
          1    1    1    2  501    0  0.65922974501E+02 -0.40238707762E+02 -0.17257073765E+03  0.18906520479E+03  0.00000000000E+00 0. -1.
         -2    1    1    2    0  502 -0.88751035682E+00 -0.52809234723E+02  0.80992140957E+02  0.96691932670E+02  0.00000000000E+00 0.  1.
<mgrwt>
<rscale>  2 0.13458570E+03</rscale>
<asrwt>0</asrwt>
<pdfrwt beam="1">  1       21 0.65699895E-01 0.13458570E+03</pdfrwt>
<pdfrwt beam="2">  1       21 0.31281897E-01 0.13458570E+03</pdfrwt>
<totfact> 0.21692107E+04</totfact>
</mgrwt>
</event>
<event>
 5    1  0.1595802E+000  0.9826845E+02  0.7546771E-02  0.1283980E+00
         21   -1    0    0  503  502  0.00000000000E+00  0.00000000000E+00  0.52547472968E+02  0.52547472968E+02  0.00000000000E+00 0. -1.
         21   -1    0    0  501  503 -0.00000000000E+00 -0.00000000000E+00 -0.31479340798E+03  0.31479340798E+03  0.00000000000E+00 0.  1.
         24    1    1    2    0    0 -0.55512329396E+02  0.50357366002E+02 -0.18393309048E+03  0.21428037884E+03  0.80419002446E+02 0. -1.
          1    1    1    2  501    0  0.26588306887E+02  0.21338483214E+01 -0.88353916850E+02  0.92292502374E+02  0.00000000000E+00 0. -1.
         -2    1    1    2    0  502  0.28924022509E+02 -0.52491214324E+02  0.10041072316E+02  0.60767999741E+02  0.00000000000E+00 0.  1.
<mgrwt>
<rscale>  2 0.98268454E+02</rscale>
<asrwt>0</asrwt>
<pdfrwt beam="1">  1       21 0.80842265E-02 0.98268454E+02</pdfrwt>
<pdfrwt beam="2">  1       21 0.48429755E-01 0.98268454E+02</pdfrwt>
<totfact> 0.48532813E+05</totfact>
</mgrwt>
</event>
<event>
 5    1  0.1595802E+000  0.7106045E+02  0.7546771E-02  0.1356524E+00
         21   -1    0    0  503  502  0.00000000000E+00  0.00000000000E+00  0.99310998072E+03  0.99310998072E+03  0.00000000000E+00 0.  1.
         21   -1    0    0  501  503 -0.00000000000E+00 -0.00000000000E+00 -0.13609234369E+02  0.13609234369E+02  0.00000000000E+00 0. -1.
         24    1    1    2    0    0  0.20774477696E+02 -0.30167369712E+02  0.15207641942E+03  0.17588661807E+03  0.80419002446E+02 0. -1.
          1    1    1    2  501    0  0.46711198871E+01  0.27808863563E+02  0.13386994101E+03  0.13680757786E+03  0.00000000000E+00 0. -1.
         -2    1    1    2    0  502 -0.25445597583E+02  0.23585061499E+01  0.69355438592E+03  0.69402501915E+03  0.00000000000E+00 0.  1.
<mgrwt>
<rscale>  2 0.71060447E+02</rscale>
<asrwt>0</asrwt>
<pdfrwt beam="1">  1       21 0.15278609E+00 0.71060447E+02</pdfrwt>
<pdfrwt beam="2">  1       21 0.20937291E-02 0.71060447E+02</pdfrwt>
<totfact> 0.33954722E+05</totfact>
</mgrwt>
</event>
<event>
 5    1  0.1595802E+000  0.1099551E+03  0.7546771E-02  0.1260653E+00
         21   -1    0    0  501  502  0.00000000000E+00  0.00000000000E+00  0.44625414034E+02  0.44625414034E+02  0.00000000000E+00 0.  1.
         21   -1    0    0  502  503 -0.00000000000E+00 -0.00000000000E+00 -0.51692287153E+03  0.51692287153E+03  0.00000000000E+00 0. -1.
         24    1    1    2    0    0  0.47243683236E+01 -0.18921691867E+02 -0.60150666837E+02  0.10230185118E+03  0.80419002446E+02 0.  1.
          1    1    1    2  501    0  0.42392156355E+02 -0.42313629753E+02 -0.25743421804E+02  0.65194033081E+02  0.00000000000E+00 0. -1.
         -2    1    1    2    0  503 -0.47116524678E+02  0.61235321620E+02 -0.38640336886E+03  0.39405240131E+03  0.00000000000E+00 0.  1.
<mgrwt>
<rscale>  2 0.10995506E+03</rscale>
<asrwt>0</asrwt>
<pdfrwt beam="1">  1       21 0.68654482E-02 0.10995506E+03</pdfrwt>
<pdfrwt beam="2">  1       21 0.79526597E-01 0.10995506E+03</pdfrwt>
<totfact> 0.22322160E+05</totfact>
</mgrwt>
</event>
<event>
 5    1  0.1595802E+000  0.1052416E+03  0.7546771E-02  0.1269644E+00
         21   -1    0    0  503  502  0.00000000000E+00  0.00000000000E+00  0.25503124375E+02  0.25503124375E+02  0.00000000000E+00 0. -1.
         21   -1    0    0  501  503 -0.00000000000E+00 -0.00000000000E+00 -0.63934656634E+03  0.63934656634E+03  0.00000000000E+00 0. -1.
         24    1    1    2    0    0 -0.52135649875E+02 -0.69668405220E+02 -0.23166571945E+03  0.26020767513E+03  0.80419002446E+02 0. -1.
          1    1    1    2  501    0  0.27294321811E+02  0.58909836567E+02 -0.36875309145E+03  0.37442514780E+03  0.00000000000E+00 0. -1.
         -2    1    1    2    0  502  0.24841328065E+02  0.10758568653E+02 -0.13424631055E+02  0.30216867780E+02  0.00000000000E+00 0.  1.
<mgrwt>
<rscale>  2 0.10524156E+03</rscale>
<asrwt>0</asrwt>
<pdfrwt beam="1">  1       21 0.39235572E-02 0.10524156E+03</pdfrwt>
<pdfrwt beam="2">  1       21 0.98361019E-01 0.10524156E+03</pdfrwt>
<totfact> 0.35254035E+05</totfact>
</mgrwt>
</event>
<event>
 5    1  0.1595802E+000  0.9016465E+02  0.7546771E-02  0.1302453E+00
         21   -1    0    0  503  502  0.00000000000E+00  0.00000000000E+00  0.81132181869E+03  0.81132181869E+03  0.00000000000E+00 0.  1.
         21   -1    0    0  501  503 -0.00000000000E+00 -0.00000000000E+00 -0.10980207383E+02  0.10980207383E+02  0.00000000000E+00 0.  1.
         24    1    1    2    0    0  0.10391687822E+02  0.41438060136E+02  0.34147885621E+03  0.35341211807E+03  0.80419002446E+02 0.  1.
          1    1    1    2  501    0 -0.18349611834E+02  0.20100311120E+02  0.69950362793E+02  0.75058537265E+02  0.00000000000E+00 0. -1.
         -2    1    1    2    0  502  0.79579240120E+01 -0.61538371256E+02  0.38891239230E+03  0.39383137074E+03  0.00000000000E+00 0.  1.
<mgrwt>
<rscale>  2 0.90164653E+02</rscale>
<asrwt>0</asrwt>
<pdfrwt beam="1">  1       21 0.12481869E+00 0.90164653E+02</pdfrwt>
<pdfrwt beam="2">  1       21 0.16892633E-02 0.90164653E+02</pdfrwt>
<totfact> 0.78585549E+05</totfact>
</mgrwt>
</event>
<event>
 5    1  0.1595802E+000  0.7873720E+02  0.7546771E-02  0.1332674E+00
         21   -1    0    0  503  502  0.00000000000E+00  0.00000000000E+00  0.16598934867E+03  0.16598934867E+03  0.00000000000E+00 0.  1.
         21   -1    0    0  501  503 -0.00000000000E+00 -0.00000000000E+00 -0.70448500762E+02  0.70448500762E+02  0.00000000000E+00 0. -1.
         24    1    1    2    0    0 -0.29432664033E+02 -0.28489980636E+02 -0.27595565638E+02  0.94375271686E+02  0.80419002446E+02 0. -1.
          1    1    1    2  501    0 -0.96377840910E+01  0.26392364632E+02  0.30323728116E+02  0.41339717946E+02  0.00000000000E+00 0. -1.
         -2    1    1    2    0  502  0.39070448124E+02  0.20976160039E+01  0.92812685426E+02  0.10072285980E+03  0.00000000000E+00 0.  1.
<mgrwt>
<rscale>  2 0.78737195E+02</rscale>
<asrwt>0</asrwt>
<pdfrwt beam="1">  1       21 0.25536823E-01 0.78737195E+02</pdfrwt>
<pdfrwt beam="2">  1       21 0.10838231E-01 0.78737195E+02</pdfrwt>
<totfact> 0.10159804E+06</totfact>
</mgrwt>
</event>
<event>
 5    1  0.1595802E+000  0.1229863E+03  0.7546771E-02  0.1238250E+00
         21   -1    0    0  501  502  0.00000000000E+00  0.00000000000E+00  0.24912674135E+03  0.24912674135E+03  0.00000000000E+00 0. -1.
         21   -1    0    0  502  503 -0.00000000000E+00 -0.00000000000E+00 -0.13091961400E+03  0.13091961400E+03  0.00000000000E+00 0.  1.
         24    1    1    2    0    0  0.41415778050E+02 -0.91124748491E+02 -0.32554237940E+02  0.13246124271E+03  0.80419002446E+02 0.  1.
          1    1    1    2  501    0 -0.49860380686E+02  0.35244297558E+02  0.17555533171E+03  0.18587063394E+03  0.00000000000E+00 0. -1.
         -2    1    1    2    0  503  0.84446026367E+01  0.55880450933E+02 -0.24793966407E+02  0.61714478693E+02  0.00000000000E+00 0.  1.
<mgrwt>
<rscale>  2 0.12298633E+03</rscale>
<asrwt>0</asrwt>
<pdfrwt beam="1">  1       21 0.38327191E-01 0.12298633E+03</pdfrwt>
<pdfrwt beam="2">  1       21 0.20141479E-01 0.12298633E+03</pdfrwt>
<totfact> 0.15290032E+05</totfact>
</mgrwt>
</event>
<event>
 5    1  0.1595802E+000  0.8548213E+02  0.7546771E-02  0.1314176E+00
         21   -1    0    0  501  502  0.00000000000E+00  0.00000000000E+00  0.46955661614E+03  0.46955661614E+03  0.00000000000E+00 0. -1.
         21   -1    0    0  502  503 -0.00000000000E+00 -0.00000000000E+00 -0.38393765268E+02  0.38393765268E+02  0.00000000000E+00 0. -1.
         24    1    1    2    0    0 -0.54618399049E+00  0.68797196397E+01  0.28308503497E+02  0.85534882848E+02  0.80419002446E+02 0. -1.
          1    1    1    2  501    0  0.35310155761E+02 -0.31766018993E+02  0.35533017843E+03  0.35849047792E+03  0.00000000000E+00 0. -1.
         -2    1    1    2    0  503 -0.34763971771E+02  0.24886299353E+02  0.47524168944E+02  0.63925020630E+02  0.00000000000E+00 0.  1.
<mgrwt>
<rscale>  2 0.85482133E+02</rscale>
<asrwt>0</asrwt>
<pdfrwt beam="1">  1       21 0.72239475E-01 0.85482133E+02</pdfrwt>
<pdfrwt beam="2">  1       21 0.59067335E-02 0.85482133E+02</pdfrwt>
<totfact> 0.35731540E+05</totfact>
</mgrwt>
</event>
<event>
 5    1  0.1595802E+000  0.1544000E+03  0.7546771E-02  0.1195168E+00
         21   -1    0    0  503  502  0.00000000000E+00  0.00000000000E+00  0.17282153560E+03  0.17282153560E+03  0.00000000000E+00 0.  1.
         21   -1    0    0  501  503 -0.00000000000E+00 -0.00000000000E+00 -0.58692635026E+03  0.58692635026E+03  0.00000000000E+00 0. -1.
         24    1    1    2    0    0  0.91634501399E+02  0.34053176273E+02 -0.54788431652E+02  0.13793291434E+03  0.80419002446E+02 0. -1.
          1    1    1    2  501    0 -0.13401136214E+03 -0.12282000786E+02 -0.47659440509E+03  0.49522936069E+03  0.00000000000E+00 0. -1.
         -2    1    1    2    0  502  0.42376860739E+02 -0.21771175487E+02  0.11727802207E+03  0.12658561083E+03  0.00000000000E+00 0.  1.
<mgrwt>
<rscale>  2 0.15440003E+03</rscale>
<asrwt>0</asrwt>
<pdfrwt beam="1">  1       21 0.26587929E-01 0.15440003E+03</pdfrwt>
<pdfrwt beam="2">  1       21 0.90296361E-01 0.15440003E+03</pdfrwt>
<totfact> 0.14410959E+04</totfact>
</mgrwt>
</event>
<event>
 5    1  0.1595802E+000  0.8583544E+02  0.7546771E-02  0.1313262E+00
         21   -1    0    0  501  502  0.00000000000E+00  0.00000000000E+00  0.15417255017E+03  0.15417255017E+03  0.00000000000E+00 0.  1.
         21   -1    0    0  502  503 -0.00000000000E+00 -0.00000000000E+00 -0.60666091216E+02  0.60666091216E+02  0.00000000000E+00 0. -1.
         24    1    1    2    0    0  0.18199244141E+02  0.27011708866E+02  0.11592803879E+02  0.87535444017E+02  0.80419002446E+02 0. -1.
          1    1    1    2  501    0  0.31147484549E+02 -0.10247231798E+02  0.64496648198E+02  0.72353225098E+02  0.00000000000E+00 0. -1.
         -2    1    1    2    0  503 -0.49346728690E+02 -0.16764477068E+02  0.17417006873E+02  0.54949972267E+02  0.00000000000E+00 0.  1.
<mgrwt>
<rscale>  2 0.85835439E+02</rscale>
<asrwt>0</asrwt>
<pdfrwt beam="1">  1       21 0.23718854E-01 0.85835439E+02</pdfrwt>
<pdfrwt beam="2">  1       21 0.93332449E-02 0.85835439E+02</pdfrwt>
<totfact> 0.15133733E+06</totfact>
</mgrwt>
</event>
<event>
 5    1  0.1595802E+000  0.1248723E+03  0.7546771E-02  0.1235269E+00
         21   -1    0    0  503  502  0.00000000000E+00  0.00000000000E+00  0.16194499001E+03  0.16194499001E+03  0.00000000000E+00 0.  1.
         21   -1    0    0  501  503 -0.00000000000E+00 -0.00000000000E+00 -0.15620244176E+03  0.15620244176E+03  0.00000000000E+00 0. -1.
         24    1    1    2    0    0  0.48173885608E+02 -0.33973837402E+02  0.57792298433E+02  0.11524803944E+03  0.80419002446E+02 0.  0.
          1    1    1    2  501    0 -0.48639390257E+02 -0.47837314363E+02 -0.89818320285E+02  0.11278975835E+03  0.00000000000E+00 0. -1.
         -2    1    1    2    0  502  0.46550464903E+00  0.81811151764E+02  0.37768570106E+02  0.90109633977E+02  0.00000000000E+00 0.  1.
<mgrwt>
<rscale>  2 0.12487228E+03</rscale>
<asrwt>0</asrwt>
<pdfrwt beam="1">  1       21 0.24914614E-01 0.12487228E+03</pdfrwt>
<pdfrwt beam="2">  1       21 0.24031145E-01 0.12487228E+03</pdfrwt>
<totfact> 0.25295296E+05</totfact>
</mgrwt>
</event>
<event>
 5    1  0.1595802E+000  0.7115726E+02  0.7546771E-02  0.1356201E+00
         21   -1    0    0  503  502  0.00000000000E+00  0.00000000000E+00  0.10512650170E+04  0.10512650170E+04  0.00000000000E+00 0. -1.
         21   -1    0    0  501  503 -0.00000000000E+00 -0.00000000000E+00 -0.80617490868E+01  0.80617490868E+01  0.00000000000E+00 0.  1.
         24    1    1    2    0    0 -0.42994915096E+01 -0.22455969660E+02  0.54066199000E+03  0.54708807297E+03  0.80419002446E+02 0. -1.
          1    1    1    2  501    0 -0.22090858815E+02 -0.26926159096E+01  0.25659670110E+02  0.33965790051E+02  0.00000000000E+00 0. -1.
         -2    1    1    2    0  502  0.26390350325E+02  0.25148585569E+02  0.47688160778E+03  0.47827290304E+03  0.00000000000E+00 0.  1.
<mgrwt>
<rscale>  2 0.71157257E+02</rscale>
<asrwt>0</asrwt>
<pdfrwt beam="1">  1       21 0.16173297E+00 0.71157257E+02</pdfrwt>
<pdfrwt beam="2">  1       21 0.12402699E-02 0.71157257E+02</pdfrwt>
<totfact> 0.67056624E+05</totfact>
</mgrwt>
</event>
<event>
 5    1  0.1595802E+000  0.9451740E+02  0.7546771E-02  0.1292267E+00
         21   -1    0    0  501  502  0.00000000000E+00  0.00000000000E+00  0.97360924927E+02  0.97360924927E+02  0.00000000000E+00 0. -1.
         21   -1    0    0  502  503 -0.00000000000E+00 -0.00000000000E+00 -0.13520482242E+03  0.13520482242E+03  0.00000000000E+00 0.  1.
         24    1    1    2    0    0  0.34057436901E+02 -0.45450806621E+02 -0.49703263061E+02  0.11028742061E+03  0.80419002446E+02 0. -1.
          1    1    1    2  501    0 -0.15190369404E+02  0.63005914830E+02  0.46019320985E+02  0.79487549529E+02  0.00000000000E+00 0. -1.
         -2    1    1    2    0  503 -0.18867067496E+02 -0.17555108209E+02 -0.34159955414E+02  0.42790777208E+02  0.00000000000E+00 0.  1.
<mgrwt>
<rscale>  2 0.94517404E+02</rscale>
<asrwt>0</asrwt>
<pdfrwt beam="1">  1       21 0.14978604E-01 0.94517404E+02</pdfrwt>
<pdfrwt beam="2">  1       21 0.20800742E-01 0.94517404E+02</pdfrwt>
<totfact> 0.84352652E+05</totfact>
</mgrwt>
</event>
<event>
 5    1  0.1595802E+000  0.8759682E+02  0.7546771E-02  0.1308778E+00
         21   -1    0    0  503  502  0.00000000000E+00  0.00000000000E+00  0.15249434968E+02  0.15249434968E+02  0.00000000000E+00 0. -1.
         21   -1    0    0  501  503 -0.00000000000E+00 -0.00000000000E+00 -0.76414274182E+03  0.76414274182E+03  0.00000000000E+00 0. -1.
         24    1    1    2    0    0  0.24612754162E+02 -0.29127826577E+02 -0.15592284125E+03  0.17953653201E+03  0.80419002446E+02 0. -1.
          1    1    1    2  501    0 -0.41791713662E+02 -0.10421918941E+02 -0.38899766901E+03  0.39137494838E+03  0.00000000000E+00 0. -1.
         -2    1    1    2    0  502  0.17178959500E+02  0.39549745518E+02 -0.20397279659E+03  0.20848069639E+03  0.00000000000E+00 0.  1.
<mgrwt>
<rscale>  2 0.87596819E+02</rscale>
<asrwt>0</asrwt>
<pdfrwt beam="1">  1       21 0.23460669E-02 0.87596819E+02</pdfrwt>
<pdfrwt beam="2">  1       21 0.11756042E+00 0.87596819E+02</pdfrwt>
<totfact> 0.53726489E+05</totfact>
</mgrwt>
</event>
<event>
 5    1  0.1595802E+000  0.7029121E+02  0.7546771E-02  0.1359106E+00
         21   -1    0    0  503  502  0.00000000000E+00  0.00000000000E+00  0.10252132913E+04  0.10252132913E+04  0.00000000000E+00 0.  1.
         21   -1    0    0  501  503 -0.00000000000E+00 -0.00000000000E+00 -0.77384016331E+01  0.77384016331E+01  0.00000000000E+00 0. -1.
         24    1    1    2    0    0 -0.47453004323E+01 -0.17493888041E+01  0.38643367296E+03  0.39474520616E+03  0.80419002446E+02 0.  0.
          1    1    1    2  501    0  0.30521038078E+02 -0.93783092443E+01  0.75728252188E+02  0.82184272395E+02  0.00000000000E+00 0. -1.
         -2    1    1    2    0  502 -0.25775737646E+02  0.11127698048E+02  0.55531296453E+03  0.55602221438E+03  0.00000000000E+00 0.  1.
<mgrwt>
<rscale>  2 0.70291215E+02</rscale>
<asrwt>0</asrwt>
<pdfrwt beam="1">  1       21 0.15772501E+00 0.70291215E+02</pdfrwt>
<pdfrwt beam="2">  1       21 0.11905241E-02 0.70291215E+02</pdfrwt>
<totfact> 0.76266785E+05</totfact>
</mgrwt>
</event>
<event>
 5    1  0.1595802E+000  0.1180234E+03  0.7546771E-02  0.1246394E+00
         21   -1    0    0  501  502  0.00000000000E+00  0.00000000000E+00  0.22780284540E+03  0.22780284540E+03  0.00000000000E+00 0. -1.
         21   -1    0    0  502  503 -0.00000000000E+00 -0.00000000000E+00 -0.38138605512E+03  0.38138605512E+03  0.00000000000E+00 0.  1.
         24    1    1    2    0    0 -0.55695004577E+02  0.11584686935E+02 -0.34425732534E+03  0.35807326137E+03  0.80419002446E+02 0.  1.
          1    1    1    2  501    0  0.90673132958E+02 -0.33042121406E+02  0.18634587445E+03  0.20985276685E+03  0.00000000000E+00 0. -1.
         -2    1    1    2    0  503 -0.34978128382E+02  0.21457434472E+02  0.43282411731E+01  0.41262872305E+02  0.00000000000E+00 0.  1.
<mgrwt>
<rscale>  2 0.11802340E+03</rscale>
<asrwt>0</asrwt>
<pdfrwt beam="1">  1       21 0.35046592E-01 0.11802340E+03</pdfrwt>
<pdfrwt beam="2">  1       21 0.58674777E-01 0.11802340E+03</pdfrwt>
<totfact> 0.22400509E+04</totfact>
</mgrwt>
</event>
<event>
 5    1  0.1595802E+000  0.7869304E+02  0.7546771E-02  0.1332802E+00
         21   -1    0    0  503  502  0.00000000000E+00  0.00000000000E+00  0.20452255581E+03  0.20452255581E+03  0.00000000000E+00 0.  1.
         21   -1    0    0  501  503 -0.00000000000E+00 -0.00000000000E+00 -0.90163121153E+02  0.90163121153E+02  0.00000000000E+00 0. -1.
         24    1    1    2    0    0  0.21590033580E+02  0.19449576332E+02  0.69190647533E+02  0.10999535095E+03  0.80419002446E+02 0.  0.
          1    1    1    2  501    0  0.21398682125E+02 -0.19408403911E+02 -0.62447162121E+02  0.68805797691E+02  0.00000000000E+00 0. -1.
         -2    1    1    2    0  502 -0.42988715704E+02 -0.41172421699E-01  0.10761594924E+03  0.11588452832E+03  0.00000000000E+00 0.  1.
<mgrwt>
<rscale>  2 0.78693040E+02</rscale>
<asrwt>0</asrwt>
<pdfrwt beam="1">  1       21 0.31465009E-01 0.78693040E+02</pdfrwt>
<pdfrwt beam="2">  1       21 0.13871249E-01 0.78693040E+02</pdfrwt>
<totfact> 0.44457521E+05</totfact>
</mgrwt>
</event>
<event>
 5    1  0.1595802E+000  0.1936369E+03  0.7546771E-02  0.1155221E+00
         21   -1    0    0  501  502  0.00000000000E+00  0.00000000000E+00  0.40202681173E+03  0.40202681173E+03  0.00000000000E+00 0. -1.
         21   -1    0    0  502  503 -0.00000000000E+00 -0.00000000000E+00 -0.13061474633E+03  0.13061474633E+03  0.00000000000E+00 0.  1.
         24    1    1    2    0    0  0.81172585405E+01  0.17189499370E+03  0.15478607788E+03  0.24503004837E+03  0.80419002446E+02 0. -1.
          1    1    1    2  501    0 -0.42309068831E+02 -0.31293498494E+02  0.13199477262E+03  0.14209841784E+03  0.00000000000E+00 0. -1.
         -2    1    1    2    0  503  0.34191810290E+02 -0.14060149520E+03 -0.15368785107E+02  0.14551309185E+03  0.00000000000E+00 0.  1.
<mgrwt>
<rscale>  2 0.19363685E+03</rscale>
<asrwt>0</asrwt>
<pdfrwt beam="1">  1       21 0.61850278E-01 0.19363685E+03</pdfrwt>
<pdfrwt beam="2">  1       21 0.20094577E-01 0.19363685E+03</pdfrwt>
<totfact> 0.55513293E+04</totfact>
</mgrwt>
</event>
<event>
 5    1  0.1595802E+000  0.7536095E+02  0.7546771E-02  0.1342757E+00
         21   -1    0    0  503  502  0.00000000000E+00  0.00000000000E+00  0.43583870642E+02  0.43583870642E+02  0.00000000000E+00 0.  1.
         21   -1    0    0  501  503 -0.00000000000E+00 -0.00000000000E+00 -0.20544058675E+03  0.20544058675E+03  0.00000000000E+00 0.  1.
         24    1    1    2    0    0 -0.30396324672E+02 -0.61807174804E+01 -0.45527895036E+02  0.97478936201E+02  0.80419002446E+02 0.  0.
          1    1    1    2  501    0  0.52192712851E+00 -0.22859284934E+02 -0.10624774007E+03  0.10868027229E+03  0.00000000000E+00 0. -1.
         -2    1    1    2    0  502  0.29874397544E+02  0.29040002414E+02 -0.10081081001E+02  0.42865248896E+02  0.00000000000E+00 0.  1.
<mgrwt>
<rscale>  2 0.75360946E+02</rscale>
<asrwt>0</asrwt>
<pdfrwt beam="1">  1       21 0.67052107E-02 0.75360946E+02</pdfrwt>
<pdfrwt beam="2">  1       21 0.31606245E-01 0.75360946E+02</pdfrwt>
<totfact> 0.15401196E+06</totfact>
</mgrwt>
</event>
<event>
 5    1  0.1595802E+000  0.1113567E+03  0.7546771E-02  0.1258078E+00
         21   -1    0    0  501  502  0.00000000000E+00  0.00000000000E+00  0.50016476268E+02  0.50016476268E+02  0.00000000000E+00 0.  1.
         21   -1    0    0  502  503 -0.00000000000E+00 -0.00000000000E+00 -0.26966755507E+03  0.26966755507E+03  0.00000000000E+00 0. -1.
         24    1    1    2    0    0  0.15088532452E+01 -0.40288706556E+02 -0.88033474871E+02  0.12586725216E+03  0.80419002446E+02 0.  1.
          1    1    1    2  501    0 -0.35106045372E+02  0.76003935736E+02 -0.46978729807E+02  0.96000175642E+02  0.00000000000E+00 0. -1.
         -2    1    1    2    0  503  0.33597192127E+02 -0.35715229180E+02 -0.84638874125E+02  0.97816603536E+02  0.00000000000E+00 0.  1.
<mgrwt>
<rscale>  2 0.11135670E+03</rscale>
<asrwt>0</asrwt>
<pdfrwt beam="1">  1       21 0.76948423E-02 0.11135670E+03</pdfrwt>
<pdfrwt beam="2">  1       21 0.41487317E-01 0.11135670E+03</pdfrwt>
<totfact> 0.72175116E+05</totfact>
</mgrwt>
</event>
<event>
 5    1  0.1595802E+000  0.9485618E+02  0.7546771E-02  0.1291500E+00
         21   -1    0    0  503  502  0.00000000000E+00  0.00000000000E+00  0.18524919520E+03  0.18524919520E+03  0.00000000000E+00 0.  1.
         21   -1    0    0  501  503 -0.00000000000E+00 -0.00000000000E+00 -0.52744396547E+02  0.52744396547E+02  0.00000000000E+00 0. -1.
         24    1    1    2    0    0 -0.50710495987E+02 -0.34484523264E+02  0.36899191130E+02  0.10765455405E+03  0.80419002446E+02 0.  1.
          1    1    1    2  501    0  0.15430385046E+02 -0.19018677840E+02  0.27268250085E+02  0.36651935176E+02  0.00000000000E+00 0. -1.
         -2    1    1    2    0  502  0.35280110941E+02  0.53503201104E+02  0.68337357433E+02  0.93687102513E+02  0.00000000000E+00 0.  1.
<mgrwt>
<rscale>  2 0.94856176E+02</rscale>
<asrwt>0</asrwt>
<pdfrwt beam="1">  1       21 0.28499876E-01 0.94856176E+02</pdfrwt>
<pdfrwt beam="2">  1       21 0.81145226E-02 0.94856176E+02</pdfrwt>
<totfact> 0.13667954E+06</totfact>
</mgrwt>
</event>
<event>
 5    1  0.1595802E+000  0.1052546E+03  0.7546771E-02  0.1269619E+00
         21   -1    0    0  503  502  0.00000000000E+00  0.00000000000E+00  0.29227178508E+03  0.29227178508E+03  0.00000000000E+00 0. -1.
         21   -1    0    0  501  503 -0.00000000000E+00 -0.00000000000E+00 -0.47572774819E+02  0.47572774819E+02  0.00000000000E+00 0.  1.
         24    1    1    2    0    0  0.31601461976E+02 -0.15890993028E+02  0.54413488493E+02  0.10334031035E+03  0.80419002446E+02 0.  1.
          1    1    1    2  501    0 -0.56523296235E+02 -0.34653387025E+02  0.43563283397E+02  0.79331582046E+02  0.00000000000E+00 0. -1.
         -2    1    1    2    0  502  0.24921834259E+02  0.50544380054E+02  0.14672223837E+03  0.15717266750E+03  0.00000000000E+00 0.  1.
<mgrwt>
<rscale>  2 0.10525464E+03</rscale>
<asrwt>0</asrwt>
<pdfrwt beam="1">  1       21 0.44964889E-01 0.10525464E+03</pdfrwt>
<pdfrwt beam="2">  1       21 0.73188886E-02 0.10525464E+03</pdfrwt>
<totfact> 0.66869977E+05</totfact>
</mgrwt>
</event>
<event>
 5    1  0.1595802E+000  0.6792211E+02  0.7546771E-02  0.1367305E+00
         21   -1    0    0  501  502  0.00000000000E+00  0.00000000000E+00  0.78741037917E+03  0.78741037917E+03  0.00000000000E+00 0. -1.
         21   -1    0    0  502  503 -0.00000000000E+00 -0.00000000000E+00 -0.66308287102E+02  0.66308287102E+02  0.00000000000E+00 0. -1.
         24    1    1    2    0    0 -0.32118365702E+01 -0.93819302132E+01  0.17693991639E+02  0.82937505407E+02  0.80419002446E+02 0. -1.
          1    1    1    2  501    0 -0.23135698632E+02  0.15396875215E+02  0.73136756900E+03  0.73189537866E+03  0.00000000000E+00 0. -1.
         -2    1    1    2    0  503  0.26347535202E+02 -0.60149450022E+01 -0.27959468574E+02  0.38885782203E+02  0.00000000000E+00 0.  1.
<mgrwt>
<rscale>  2 0.67922110E+02</rscale>
<asrwt>0</asrwt>
<pdfrwt beam="1">  1       21 0.12114005E+00 0.67922110E+02</pdfrwt>
<pdfrwt beam="2">  1       21 0.10201276E-01 0.67922110E+02</pdfrwt>
<totfact> 0.44173213E+04</totfact>
</mgrwt>
</event>
<event>
 5    1  0.1595802E+000  0.6923177E+02  0.7546771E-02  0.1362725E+00
         21   -1    0    0  501  502  0.00000000000E+00  0.00000000000E+00  0.68449839197E+03  0.68449839197E+03  0.00000000000E+00 0. -1.
         21   -1    0    0  502  503 -0.00000000000E+00 -0.00000000000E+00 -0.27786142890E+02  0.27786142890E+02  0.00000000000E+00 0. -1.
         24    1    1    2    0    0  0.11113711268E+00  0.11169059805E+02  0.45197612019E+02  0.92923626355E+02  0.80419002446E+02 0. -1.
          1    1    1    2  501    0  0.13857486853E+02 -0.30454901851E+02  0.57368734122E+03  0.57466224555E+03  0.00000000000E+00 0. -1.
         -2    1    1    2    0  503 -0.13968623966E+02  0.19285842047E+02  0.37827295842E+02  0.44698662952E+02  0.00000000000E+00 0.  1.
<mgrwt>
<rscale>  2 0.69231765E+02</rscale>
<asrwt>0</asrwt>
<pdfrwt beam="1">  1       21 0.10530743E+00 0.69231765E+02</pdfrwt>
<pdfrwt beam="2">  1       21 0.42747917E-02 0.69231765E+02</pdfrwt>
<totfact> 0.26374816E+05</totfact>
</mgrwt>
</event>
<event>
 5    1  0.1595802E+000  0.9091310E+02  0.7546771E-02  0.1300655E+00
         21   -1    0    0  503  502  0.00000000000E+00  0.00000000000E+00  0.72894396863E+02  0.72894396863E+02  0.00000000000E+00 0.  1.
         21   -1    0    0  501  503 -0.00000000000E+00 -0.00000000000E+00 -0.38497686227E+03  0.38497686227E+03  0.00000000000E+00 0.  1.
         24    1    1    2    0    0 -0.32315250004E+02 -0.53103543959E+00 -0.27764186135E+03  0.29085525010E+03  0.80419002446E+02 0.  1.
          1    1    1    2  501    0 -0.26137204905E+02  0.20679003648E+02 -0.82324108375E+02  0.88814601794E+02  0.00000000000E+00 0. -1.
         -2    1    1    2    0  502  0.58452454909E+02 -0.20147968208E+02  0.47883504321E+02  0.78201407237E+02  0.00000000000E+00 0.  1.
<mgrwt>
<rscale>  2 0.90913098E+02</rscale>
<asrwt>0</asrwt>
<pdfrwt beam="1">  1       21 0.11214523E-01 0.90913098E+02</pdfrwt>
<pdfrwt beam="2">  1       21 0.59227209E-01 0.90913098E+02</pdfrwt>
<totfact> 0.18206868E+05</totfact>
</mgrwt>
</event>
<event>
 5    1  0.1595802E+000  0.6969630E+02  0.7546771E-02  0.1361129E+00
         21   -1    0    0  503  502  0.00000000000E+00  0.00000000000E+00  0.44132384036E+01  0.44132384036E+01  0.00000000000E+00 0.  1.
         21   -1    0    0  501  503 -0.00000000000E+00 -0.00000000000E+00 -0.11858435242E+04  0.11858435242E+04  0.00000000000E+00 0.  1.
         24    1    1    2    0    0 -0.61984638276E+01  0.32682647424E+02 -0.87250476153E+03  0.87683427810E+03  0.80419002446E+02 0.  1.
          1    1    1    2  501    0  0.20842673788E+02 -0.56083229846E+01 -0.14982420572E+03  0.15137094489E+03  0.00000000000E+00 0. -1.
         -2    1    1    2    0  502 -0.14644209961E+02 -0.27074324439E+02 -0.15910131853E+03  0.16205153960E+03  0.00000000000E+00 0.  1.
<mgrwt>
<rscale>  2 0.69696300E+02</rscale>
<asrwt>0</asrwt>
<pdfrwt beam="1">  1       21 0.67895842E-03 0.69696300E+02</pdfrwt>
<pdfrwt beam="2">  1       21 0.18243782E+00 0.69696300E+02</pdfrwt>
<totfact> 0.12421478E+06</totfact>
</mgrwt>
</event>
<event>
 5    1  0.1595802E+000  0.9587602E+02  0.7546771E-02  0.1289215E+00
         21   -1    0    0  501  502  0.00000000000E+00  0.00000000000E+00  0.24413370214E+04  0.24413370214E+04  0.00000000000E+00 0. -1.
         21   -1    0    0  502  503 -0.00000000000E+00 -0.00000000000E+00 -0.10483829822E+02  0.10483829822E+02  0.00000000000E+00 0.  1.
         24    1    1    2    0    0  0.11128642842E+02 -0.60589330367E+01  0.23477239832E+03  0.24848712709E+03  0.80419002446E+02 0.  0.
          1    1    1    2  501    0  0.31961435196E+02  0.43004251798E+02  0.19521912989E+04  0.19529264621E+04  0.00000000000E+00 0. -1.
         -2    1    1    2    0  503 -0.43090078039E+02 -0.36945318761E+02  0.24388949443E+03  0.25040726207E+03  0.00000000000E+00 0.  1.
<mgrwt>
<rscale>  2 0.95876015E+02</rscale>
<asrwt>0</asrwt>
<pdfrwt beam="1">  1       21 0.37558986E+00 0.95876015E+02</pdfrwt>
<pdfrwt beam="2">  1       21 0.16128988E-02 0.95876015E+02</pdfrwt>
<totfact> 0.24945159E+04</totfact>
</mgrwt>
</event>
<event>
 5    1  0.1595802E+000  0.9990174E+02  0.7546771E-02  0.1280503E+00
         21   -1    0    0  503  502  0.00000000000E+00  0.00000000000E+00  0.25043084964E+03  0.25043084964E+03  0.00000000000E+00 0. -1.
         21   -1    0    0  501  503 -0.00000000000E+00 -0.00000000000E+00 -0.45654209836E+02  0.45654209836E+02  0.00000000000E+00 0.  1.
         24    1    1    2    0    0 -0.39970841237E+02 -0.14810860764E+02  0.42355388367E+02  0.10039036121E+03  0.80419002446E+02 0.  1.
          1    1    1    2  501    0 -0.27796137900E+02 -0.18383697890E+02  0.42509127523E+02  0.54014919726E+02  0.00000000000E+00 0. -1.
         -2    1    1    2    0  502  0.67766979137E+02  0.33194558654E+02  0.11991212391E+03  0.14167977854E+03  0.00000000000E+00 0.  1.
<mgrwt>
<rscale>  2 0.99901742E+02</rscale>
<asrwt>0</asrwt>
<pdfrwt beam="1">  1       21 0.38527822E-01 0.99901742E+02</pdfrwt>
<pdfrwt beam="2">  1       21 0.70237247E-02 0.99901742E+02</pdfrwt>
<totfact> 0.97611122E+05</totfact>
</mgrwt>
</event>
<event>
 5    1  0.1595802E+000  0.7694366E+02  0.7546771E-02  0.1337956E+00
         21   -1    0    0  503  502  0.00000000000E+00  0.00000000000E+00  0.10944085538E+03  0.10944085538E+03  0.00000000000E+00 0. -1.
         21   -1    0    0  501  503 -0.00000000000E+00 -0.00000000000E+00 -0.65970265990E+02  0.65970265990E+02  0.00000000000E+00 0.  1.
         24    1    1    2    0    0  0.11696610504E+02  0.17960993813E+02 -0.80875460954E+01  0.83618373294E+02  0.80419002446E+02 0.  1.
          1    1    1    2  501    0  0.14836275336E+02 -0.35756959262E+02  0.11161641648E+02  0.40289669220E+02  0.00000000000E+00 0. -1.
         -2    1    1    2    0  502 -0.26532885840E+02  0.17795965449E+02  0.40396493833E+02  0.51503078852E+02  0.00000000000E+00 0.  1.
<mgrwt>
<rscale>  2 0.76943657E+02</rscale>
<asrwt>0</asrwt>
<pdfrwt beam="1">  1       21 0.16837055E-01 0.76943657E+02</pdfrwt>
<pdfrwt beam="2">  1       21 0.10149272E-01 0.76943657E+02</pdfrwt>
<totfact> 0.24370202E+06</totfact>
</mgrwt>
</event>
<event>
 5    1  0.1595802E+000  0.8898352E+02  0.7546771E-02  0.1305332E+00
         21   -1    0    0  501  502  0.00000000000E+00  0.00000000000E+00  0.67137800233E+02  0.67137800233E+02  0.00000000000E+00 0. -1.
         21   -1    0    0  502  503 -0.00000000000E+00 -0.00000000000E+00 -0.13309131195E+03  0.13309131195E+03  0.00000000000E+00 0.  1.
         24    1    1    2    0    0 -0.70615771468E+00  0.91308998530E+01  0.23938778221E+01  0.80974184752E+02  0.80419002446E+02 0. -1.
          1    1    1    2  501    0  0.45811351551E+02  0.11794840335E+02 -0.26223909777E+02  0.54087814093E+02  0.00000000000E+00 0. -1.
         -2    1    1    2    0  503 -0.45105193836E+02 -0.20925740188E+02 -0.42123479759E+02  0.65167113335E+02  0.00000000000E+00 0.  1.
<mgrwt>
<rscale>  2 0.88983523E+02</rscale>
<asrwt>0</asrwt>
<pdfrwt beam="1">  1       21 0.10328892E-01 0.88983523E+02</pdfrwt>
<pdfrwt beam="2">  1       21 0.20475586E-01 0.88983523E+02</pdfrwt>
<totfact> 0.16682599E+06</totfact>
</mgrwt>
</event>
<event>
 5    1  0.1595802E+000  0.8197625E+02  0.7546771E-02  0.1323535E+00
         21   -1    0    0  503  502  0.00000000000E+00  0.00000000000E+00  0.47437955495E+02  0.47437955495E+02  0.00000000000E+00 0.  1.
         21   -1    0    0  501  503 -0.00000000000E+00 -0.00000000000E+00 -0.15844207647E+03  0.15844207647E+03  0.00000000000E+00 0.  1.
         24    1    1    2    0    0  0.17189075737E+02 -0.48980634253E+02 -0.93904320850E+02  0.13408879254E+03  0.80419002446E+02 0.  1.
          1    1    1    2  501    0  0.15020473888E+02  0.19112987960E+02 -0.13278039464E+02  0.27698867785E+02  0.00000000000E+00 0. -1.
         -2    1    1    2    0  502 -0.32209549625E+02  0.29867646293E+02 -0.38217606605E+01  0.44092371638E+02  0.00000000000E+00 0.  1.
<mgrwt>
<rscale>  2 0.81976250E+02</rscale>
<asrwt>0</asrwt>
<pdfrwt beam="1">  1       21 0.72981469E-02 0.81976250E+02</pdfrwt>
<pdfrwt beam="2">  1       21 0.24375704E-01 0.81976250E+02</pdfrwt>
<totfact> 0.21854732E+06</totfact>
</mgrwt>
</event>
<event>
 5    1  0.1595802E+000  0.1209162E+03  0.7546771E-02  0.1241593E+00
         21   -1    0    0  503  502  0.00000000000E+00  0.00000000000E+00  0.51635137748E+02  0.51635137748E+02  0.00000000000E+00 0. -1.
         21   -1    0    0  501  503 -0.00000000000E+00 -0.00000000000E+00 -0.35441102604E+03  0.35441102604E+03  0.00000000000E+00 0.  1.
         24    1    1    2    0    0  0.46687021638E+02 -0.20129514778E+02 -0.10164746833E+03  0.13922750851E+03  0.80419002446E+02 0.  1.
          1    1    1    2  501    0 -0.72621119920E+02 -0.38778242502E+02 -0.18187008833E+03  0.19963543819E+03  0.00000000000E+00 0. -1.
         -2    1    1    2    0  502  0.25934098281E+02  0.58907757280E+02 -0.19258331633E+02  0.67183217091E+02  0.00000000000E+00 0.  1.
<mgrwt>
<rscale>  2 0.12091618E+03</rscale>
<asrwt>0</asrwt>
<pdfrwt beam="1">  1       21 0.79438674E-02 0.12091618E+03</pdfrwt>
<pdfrwt beam="2">  1       21 0.54524773E-01 0.12091618E+03</pdfrwt>
<totfact> 0.39078652E+05</totfact>
</mgrwt>
</event>
<event>
 5    1  0.1595802E+000  0.7195498E+02  0.7546771E-02  0.1353568E+00
         21   -1    0    0  501  502  0.00000000000E+00  0.00000000000E+00  0.53259482383E+03  0.53259482383E+03  0.00000000000E+00 0. -1.
         21   -1    0    0  502  503 -0.00000000000E+00 -0.00000000000E+00 -0.46017203188E+02  0.46017203188E+02  0.00000000000E+00 0.  1.
         24    1    1    2    0    0  0.27539703363E+02  0.26507807788E+02  0.30029866064E+02  0.93968654057E+02  0.80419002446E+02 0.  0.
          1    1    1    2  501    0  0.25034426437E+01 -0.24640931127E+02  0.45373572704E+03  0.45441121542E+03  0.00000000000E+00 0. -1.
         -2    1    1    2    0  503 -0.30043146007E+02 -0.18668766606E+01  0.28120275401E+01  0.30232157537E+02  0.00000000000E+00 0.  1.
<mgrwt>
<rscale>  2 0.71954978E+02</rscale>
<asrwt>0</asrwt>
<pdfrwt beam="1">  1       21 0.81937661E-01 0.71954978E+02</pdfrwt>
<pdfrwt beam="2">  1       21 0.70795701E-02 0.71954978E+02</pdfrwt>
<totfact> 0.20082594E+05</totfact>
</mgrwt>
</event>
<event>
 5    1  0.1595802E+000  0.1739690E+03  0.7546771E-02  0.1173771E+00
         21   -1    0    0  501  502  0.00000000000E+00  0.00000000000E+00  0.12934498986E+03  0.12934498986E+03  0.00000000000E+00 0. -1.
         21   -1    0    0  502  503 -0.00000000000E+00 -0.00000000000E+00 -0.12888500660E+04  0.12888500660E+04  0.00000000000E+00 0.  1.
         24    1    1    2    0    0 -0.12222865100E+03  0.50941052081E+02 -0.44341922880E+03  0.46970486727E+03  0.80419002446E+02 0.  1.
          1    1    1    2  501    0 -0.31046721544E+02  0.13128678668E+01  0.10607503067E+03  0.11053295740E+03  0.00000000000E+00 0. -1.
         -2    1    1    2    0  503  0.15327537255E+03 -0.52253919948E+02 -0.82216087805E+03  0.83795723124E+03  0.00000000000E+00 0.  1.
<mgrwt>
<rscale>  2 0.17396905E+03</rscale>
<asrwt>0</asrwt>
<pdfrwt beam="1">  1       21 0.19899229E-01 0.17396905E+03</pdfrwt>
<pdfrwt beam="2">  1       21 0.19828463E+00 0.17396905E+03</pdfrwt>
<totfact> 0.32707594E+03</totfact>
</mgrwt>
</event>
<event>
 5    1  0.1595802E+000  0.1408427E+03  0.7546771E-02  0.1212200E+00
         21   -1    0    0  503  502  0.00000000000E+00  0.00000000000E+00  0.11782262791E+03  0.11782262791E+03  0.00000000000E+00 0.  1.
         21   -1    0    0  501  503 -0.00000000000E+00 -0.00000000000E+00 -0.67987548766E+03  0.67987548766E+03  0.00000000000E+00 0. -1.
         24    1    1    2    0    0 -0.84591042709E+02  0.21794580812E+02 -0.83314101452E+02  0.14504862534E+03  0.80419002446E+02 0. -1.
          1    1    1    2  501    0  0.10431010494E+03  0.29163830190E+02 -0.55128716464E+03  0.56182618743E+03  0.00000000000E+00 0. -1.
         -2    1    1    2    0  502 -0.19719062229E+02 -0.50958411001E+02  0.72548406341E+02  0.90823302789E+02  0.00000000000E+00 0.  1.
<mgrwt>
<rscale>  2 0.14084270E+03</rscale>
<asrwt>0</asrwt>
<pdfrwt beam="1">  1       21 0.18126559E-01 0.14084270E+03</pdfrwt>
<pdfrwt beam="2">  1       21 0.10459623E+00 0.14084270E+03</pdfrwt>
<totfact> 0.21143347E+04</totfact>
</mgrwt>
</event>
<event>
 5    1  0.1595802E+000  0.7663689E+02  0.7546771E-02  0.1338876E+00
         21   -1    0    0  501  502  0.00000000000E+00  0.00000000000E+00  0.14408798521E+03  0.14408798521E+03  0.00000000000E+00 0. -1.
         21   -1    0    0  502  503 -0.00000000000E+00 -0.00000000000E+00 -0.51114464957E+02  0.51114464957E+02  0.00000000000E+00 0.  1.
         24    1    1    2    0    0  0.10505780114E+02 -0.17374751843E+02  0.87603328653E+02  0.12063918336E+03  0.80419002446E+02 0.  0.
          1    1    1    2  501    0  0.25240905516E+02 -0.80177190867E+01  0.13875559752E+02  0.29898466333E+02  0.00000000000E+00 0. -1.
         -2    1    1    2    0  503 -0.35746685631E+02  0.25392470929E+02 -0.85053681521E+01  0.44664800469E+02  0.00000000000E+00 0.  1.
<mgrwt>
<rscale>  2 0.76636890E+02</rscale>
<asrwt>0</asrwt>
<pdfrwt beam="1">  1       21 0.22167382E-01 0.76636890E+02</pdfrwt>
<pdfrwt beam="2">  1       21 0.78637639E-02 0.76636890E+02</pdfrwt>
<totfact> 0.22884548E+06</totfact>
</mgrwt>
</event>
<event>
 5    1  0.1595802E+000  0.1166248E+03  0.7546771E-02  0.1248771E+00
         21   -1    0    0  503  502  0.00000000000E+00  0.00000000000E+00  0.12621287180E+02  0.12621287180E+02  0.00000000000E+00 0.  1.
         21   -1    0    0  501  503 -0.00000000000E+00 -0.00000000000E+00 -0.12115087328E+04  0.12115087328E+04  0.00000000000E+00 0.  1.
         24    1    1    2    0    0 -0.21333278847E+02  0.90683195213E+02 -0.80719823511E+03  0.81652602984E+03  0.80419002446E+02 0.  1.
          1    1    1    2  501    0 -0.20294297957E+02 -0.37551015859E+02 -0.19622770200E+03  0.20081645439E+03  0.00000000000E+00 0. -1.
         -2    1    1    2    0  502  0.41627576804E+02 -0.53132179353E+02 -0.19546150848E+03  0.20678753572E+03  0.00000000000E+00 0.  1.
<mgrwt>
<rscale>  2 0.11662479E+03</rscale>
<asrwt>0</asrwt>
<pdfrwt beam="1">  1       21 0.19417366E-02 0.11662479E+03</pdfrwt>
<pdfrwt beam="2">  1       21 0.18638595E+00 0.11662479E+03</pdfrwt>
<totfact> 0.22078753E+05</totfact>
</mgrwt>
</event>
<event>
 5    1  0.1595802E+000  0.1088022E+03  0.7546771E-02  0.1262804E+00
         21   -1    0    0  501  502  0.00000000000E+00  0.00000000000E+00  0.12728465313E+03  0.12728465313E+03  0.00000000000E+00 0.  1.
         21   -1    0    0  502  503 -0.00000000000E+00 -0.00000000000E+00 -0.16262085973E+03  0.16262085973E+03  0.00000000000E+00 0. -1.
         24    1    1    2    0    0 -0.12029245581E+02  0.21836900528E+02  0.82821220293E+01  0.84601196644E+02  0.80419002446E+02 0.  1.
          1    1    1    2  501    0  0.15788490205E+02  0.54622115502E+02  0.55909744878E+02  0.79741780123E+02  0.00000000000E+00 0. -1.
         -2    1    1    2    0  503 -0.37592446241E+01 -0.76459016029E+02 -0.99528073513E+02  0.12556253609E+03  0.00000000000E+00 0.  1.
<mgrwt>
<rscale>  2 0.10880219E+03</rscale>
<asrwt>0</asrwt>
<pdfrwt beam="1">  1       21 0.19582255E-01 0.10880219E+03</pdfrwt>
<pdfrwt beam="2">  1       21 0.25018594E-01 0.10880219E+03</pdfrwt>
<totfact> 0.36822740E+05</totfact>
</mgrwt>
</event>
<event>
 5    1  0.1595802E+000  0.1071853E+03  0.7546771E-02  0.1265873E+00
         21   -1    0    0  503  502  0.00000000000E+00  0.00000000000E+00  0.10381357758E+03  0.10381357758E+03  0.00000000000E+00 0.  1.
         21   -1    0    0  501  503 -0.00000000000E+00 -0.00000000000E+00 -0.21677615030E+03  0.21677615030E+03  0.00000000000E+00 0. -1.
         24    1    1    2    0    0  0.27688623988E+02 -0.69728461164E+01  0.59290905295E+01  0.85543267124E+02  0.80419002446E+02 0.  1.
          1    1    1    2  501    0 -0.61662965438E+02 -0.38180021941E+02 -0.15280550981E+03  0.16914360529E+03  0.00000000000E+00 0. -1.
         -2    1    1    2    0  502  0.33974341450E+02  0.45152868058E+02  0.33913846556E+02  0.65902855470E+02  0.00000000000E+00 0.  1.
<mgrwt>
<rscale>  2 0.10718531E+03</rscale>
<asrwt>0</asrwt>
<pdfrwt beam="1">  1       21 0.15971320E-01 0.10718531E+03</pdfrwt>
<pdfrwt beam="2">  1       21 0.33350177E-01 0.10718531E+03</pdfrwt>
<totfact> 0.30806816E+05</totfact>
</mgrwt>
</event>
<event>
 5    1  0.1595802E+000  0.1048841E+03  0.7546771E-02  0.1270348E+00
         21   -1    0    0  503  502  0.00000000000E+00  0.00000000000E+00  0.14806737206E+03  0.14806737206E+03  0.00000000000E+00 0.  1.
         21   -1    0    0  501  503 -0.00000000000E+00 -0.00000000000E+00 -0.99910173270E+02  0.99910173270E+02  0.00000000000E+00 0.  1.
         24    1    1    2    0    0 -0.58757739437E+02 -0.27836530125E+01  0.24137830152E+01  0.99665756259E+02  0.80419002446E+02 0.  1.
          1    1    1    2  501    0  0.51778885294E+02 -0.40844152775E+02 -0.20166049909E+02  0.68963521858E+02  0.00000000000E+00 0. -1.
         -2    1    1    2    0  502  0.69788541439E+01  0.43627805787E+02  0.65909465689E+02  0.79348267217E+02  0.00000000000E+00 0.  1.
<mgrwt>
<rscale>  2 0.10488409E+03</rscale>
<asrwt>0</asrwt>
<pdfrwt beam="1">  1       21 0.22779596E-01 0.10488409E+03</pdfrwt>
<pdfrwt beam="2">  1       21 0.15370796E-01 0.10488409E+03</pdfrwt>
<totfact> 0.68127149E+05</totfact>
</mgrwt>
</event>
<event>
 5    1  0.1595802E+000  0.6905515E+02  0.7546771E-02  0.1363336E+00
         21   -1    0    0  503  502  0.00000000000E+00  0.00000000000E+00  0.29304775641E+02  0.29304775641E+02  0.00000000000E+00 0.  1.
         21   -1    0    0  501  503 -0.00000000000E+00 -0.00000000000E+00 -0.30396722172E+03  0.30396722172E+03  0.00000000000E+00 0. -1.
         24    1    1    2    0    0 -0.39035118250E+02  0.13845606890E+02 -0.57272721448E+02  0.10706456866E+03  0.80419002446E+02 0.  1.
          1    1    1    2  501    0  0.12063752484E+02 -0.16622001676E+02 -0.17283521595E+03  0.17405124802E+03  0.00000000000E+00 0. -1.
         -2    1    1    2    0  502  0.26971365766E+02  0.27763947863E+01 -0.44554508680E+02  0.52156180678E+02  0.00000000000E+00 0.  1.
<mgrwt>
<rscale>  2 0.69055155E+02</rscale>
<asrwt>0</asrwt>
<pdfrwt beam="1">  1       21 0.45084269E-02 0.69055155E+02</pdfrwt>
<pdfrwt beam="2">  1       21 0.46764189E-01 0.69055155E+02</pdfrwt>
<totfact> 0.13799540E+06</totfact>
</mgrwt>
</event>
<event>
 5    1  0.1595802E+000  0.7569347E+02  0.7546771E-02  0.1341737E+00
         21   -1    0    0  503  502  0.00000000000E+00  0.00000000000E+00  0.93119049255E+02  0.93119049255E+02  0.00000000000E+00 0. -1.
         21   -1    0    0  501  503 -0.00000000000E+00 -0.00000000000E+00 -0.95222669977E+02  0.95222669977E+02  0.00000000000E+00 0. -1.
         24    1    1    2    0    0  0.11530642514E+02  0.47031741018E+02 -0.12433338924E+02  0.94692894407E+02  0.80419002446E+02 0.  0.
          1    1    1    2  501    0 -0.20484555829E+02 -0.18471215650E+02 -0.31719428187E+02  0.42034806525E+02  0.00000000000E+00 0. -1.
         -2    1    1    2    0  502  0.89539133150E+01 -0.28560525368E+02  0.42049146389E+02  0.51614018299E+02  0.00000000000E+00 0.  1.
<mgrwt>
<rscale>  2 0.75693466E+02</rscale>
<asrwt>0</asrwt>
<pdfrwt beam="1">  1       21 0.14326008E-01 0.75693466E+02</pdfrwt>
<pdfrwt beam="2">  1       21 0.14649642E-01 0.75693466E+02</pdfrwt>
<totfact> 0.17090944E+06</totfact>
</mgrwt>
</event>
<event>
 5    1  0.1595802E+000  0.9735030E+02  0.7546771E-02  0.1285969E+00
         21   -1    0    0  503  502  0.00000000000E+00  0.00000000000E+00  0.33531988074E+03  0.33531988074E+03  0.00000000000E+00 0. -1.
         21   -1    0    0  501  503 -0.00000000000E+00 -0.00000000000E+00 -0.52218413561E+02  0.52218413561E+02  0.00000000000E+00 0. -1.
         24    1    1    2    0    0  0.36900661536E+02  0.64899211799E+02  0.25048214805E+03  0.27346314003E+03  0.80419002446E+02 0. -1.
          1    1    1    2  501    0 -0.44973701321E+02 -0.45582928074E+02 -0.11667837923E+02  0.65088982049E+02  0.00000000000E+00 0. -1.
         -2    1    1    2    0  502  0.80730397850E+01 -0.19316283725E+02  0.44287157054E+02  0.48986172215E+02  0.00000000000E+00 0.  1.
<mgrwt>
<rscale>  2 0.97350299E+02</rscale>
<asrwt>0</asrwt>
<pdfrwt beam="1">  1       21 0.51587673E-01 0.97350299E+02</pdfrwt>
<pdfrwt beam="2">  1       21 0.80336023E-02 0.97350299E+02</pdfrwt>
<totfact> 0.43111284E+05</totfact>
</mgrwt>
</event>
<event>
 5    1  0.1595802E+000  0.6933715E+02  0.7546771E-02  0.1362362E+00
         21   -1    0    0  501  502  0.00000000000E+00  0.00000000000E+00  0.34561709110E+03  0.34561709110E+03  0.00000000000E+00 0.  1.
         21   -1    0    0  502  503 -0.00000000000E+00 -0.00000000000E+00 -0.16110401510E+02  0.16110401510E+02  0.00000000000E+00 0. -1.
         24    1    1    2    0    0  0.25821571923E+02  0.34822282702E+02  0.23887429058E+03  0.25574887605E+03  0.80419002446E+02 0.  0.
          1    1    1    2  501    0 -0.21831459324E+02 -0.13600889375E+02  0.75090700075E+02  0.79373862485E+02  0.00000000000E+00 0. -1.
         -2    1    1    2    0  503 -0.39901125996E+01 -0.21221393327E+02  0.15541698936E+02  0.26604754070E+02  0.00000000000E+00 0.  1.
<mgrwt>
<rscale>  2 0.69337145E+02</rscale>
<asrwt>0</asrwt>
<pdfrwt beam="1">  1       21 0.53171855E-01 0.69337145E+02</pdfrwt>
<pdfrwt beam="2">  1       21 0.24785236E-02 0.69337145E+02</pdfrwt>
<totfact> 0.28083465E+06</totfact>
</mgrwt>
</event>
<event>
 5    1  0.1595802E+000  0.7903573E+02  0.7546771E-02  0.1331810E+00
         21   -1    0    0  503  502  0.00000000000E+00  0.00000000000E+00  0.26330290757E+03  0.26330290757E+03  0.00000000000E+00 0.  1.
         21   -1    0    0  501  503 -0.00000000000E+00 -0.00000000000E+00 -0.52043265653E+02  0.52043265653E+02  0.00000000000E+00 0.  1.
         24    1    1    2    0    0  0.34244715083E+02 -0.39781428212E+02  0.81274930512E+01  0.96377044151E+02  0.80419002446E+02 0.  1.
          1    1    1    2  501    0 -0.33605147460E+02  0.14255481742E+02  0.41237257692E+02  0.55073007158E+02  0.00000000000E+00 0. -1.
         -2    1    1    2    0  502 -0.63956762312E+00  0.25525946470E+02  0.16189489118E+03  0.16389612191E+03  0.00000000000E+00 0.  1.
<mgrwt>
<rscale>  2 0.79035728E+02</rscale>
<asrwt>0</asrwt>
<pdfrwt beam="1">  1       21 0.40508139E-01 0.79035728E+02</pdfrwt>
<pdfrwt beam="2">  1       21 0.80066564E-02 0.79035728E+02</pdfrwt>
<totfact> 0.70544188E+05</totfact>
</mgrwt>
</event>
<event>
 5    1  0.1595802E+000  0.6266858E+02  0.7546771E-02  0.1386962E+00
         21   -1    0    0  501  502  0.00000000000E+00  0.00000000000E+00  0.44555867153E+01  0.44555867153E+01  0.00000000000E+00 0.  1.
         21   -1    0    0  502  503 -0.00000000000E+00 -0.00000000000E+00 -0.13377076578E+04  0.13377076578E+04  0.00000000000E+00 0. -1.
         24    1    1    2    0    0 -0.89465214291E+01 -0.12470303472E+02 -0.46936257216E+03  0.47644935598E+03  0.80419002446E+02 0. -1.
          1    1    1    2  501    0 -0.11145236979E+02  0.19265466530E+02 -0.16403574298E+03  0.16553881564E+03  0.00000000000E+00 0. -1.
         -2    1    1    2    0  503  0.20091758408E+02 -0.67951630578E+01 -0.69985375597E+03  0.70017507292E+03  0.00000000000E+00 0.  1.
<mgrwt>
<rscale>  2 0.62668581E+02</rscale>
<asrwt>0</asrwt>
<pdfrwt beam="1">  1       21 0.68547590E-03 0.62668581E+02</pdfrwt>
<pdfrwt beam="2">  1       21 0.20580087E+00 0.62668581E+02</pdfrwt>
<totfact> 0.88042803E+05</totfact>
</mgrwt>
</event>
<event>
 5    1  0.1595802E+000  0.8588428E+02  0.7546771E-02  0.1313136E+00
         21   -1    0    0  503  502  0.00000000000E+00  0.00000000000E+00  0.20757425748E+04  0.20757425748E+04  0.00000000000E+00 0.  1.
         21   -1    0    0  501  503 -0.00000000000E+00 -0.00000000000E+00 -0.13353050924E+02  0.13353050924E+02  0.00000000000E+00 0.  1.
         24    1    1    2    0    0 -0.55926618022E+02 -0.34166792583E+02  0.22704484970E+03  0.24962318812E+03  0.80419002446E+02 0.  1.
          1    1    1    2  501    0  0.21308812214E+02  0.31387651812E+01  0.64180025990E+02  0.67697806914E+02  0.00000000000E+00 0. -1.
         -2    1    1    2    0  502  0.34617805808E+02  0.31028027402E+02  0.17711646482E+04  0.17717746307E+04  0.00000000000E+00 0.  1.
<mgrwt>
<rscale>  2 0.85884280E+02</rscale>
<asrwt>0</asrwt>
<pdfrwt beam="1">  1       21 0.31934476E+00 0.85884280E+02</pdfrwt>
<pdfrwt beam="2">  1       21 0.20543172E-02 0.85884280E+02</pdfrwt>
<totfact> 0.35999491E+04</totfact>
</mgrwt>
</event>
<event>
 5    1  0.2470238E+000  0.7041798E+02  0.7546771E-02  0.1358677E+00
         21   -1    0    0  503  502  0.00000000000E+00  0.00000000000E+00  0.90197628152E+03  0.90197628152E+03  0.00000000000E+00 0.  1.
         21   -1    0    0  501  503 -0.00000000000E+00 -0.00000000000E+00 -0.14966285217E+03  0.14966285217E+03  0.00000000000E+00 0. -1.
         24    1    1    2    0    0  0.62312953001E+01 -0.19489805642E+02  0.28858697625E+03  0.30028043622E+03  0.80419002446E+02 0. -1.
          1    1    1    2  501    0  0.21749987915E+02  0.20453953790E+02 -0.14193964703E+03  0.14504581897E+03  0.00000000000E+00 0. -1.
         -2    1    1    2    0  502 -0.27981283215E+02 -0.96414814896E+00  0.60566610013E+03  0.60631287850E+03  0.00000000000E+00 0.  1.
<mgrwt>
<rscale>  2 0.70417979E+02</rscale>
<asrwt>0</asrwt>
<pdfrwt beam="1">  1       21 0.13876558E+00 0.70417979E+02</pdfrwt>
<pdfrwt beam="2">  1       21 0.23025055E-01 0.70417979E+02</pdfrwt>
<totfact> 0.74524013E+03</totfact>
</mgrwt>
</event>
<event>
 5    1  0.1595802E+000  0.6462990E+02  0.7546771E-02  0.1379369E+00
         21   -1    0    0  503  502  0.00000000000E+00  0.00000000000E+00  0.37806497259E+03  0.37806497259E+03  0.00000000000E+00 0. -1.
         21   -1    0    0  501  503 -0.00000000000E+00 -0.00000000000E+00 -0.15852485205E+02  0.15852485205E+02  0.00000000000E+00 0.  1.
         24    1    1    2    0    0  0.32119245599E+02 -0.71157606548E+01  0.13897032589E+03  0.16389706349E+03  0.80419002446E+02 0.  1.
          1    1    1    2  501    0 -0.18630325466E+02 -0.95467365305E+01  0.36702108155E+02  0.42252502273E+02  0.00000000000E+00 0. -1.
         -2    1    1    2    0  502 -0.13488920133E+02  0.16662497185E+02  0.18654005334E+03  0.18776789203E+03  0.00000000000E+00 0.  1.
<mgrwt>
<rscale>  2 0.64629903E+02</rscale>
<asrwt>0</asrwt>
<pdfrwt beam="1">  1       21 0.58163835E-01 0.64629903E+02</pdfrwt>
<pdfrwt beam="2">  1       21 0.24388442E-02 0.64629903E+02</pdfrwt>
<totfact> 0.23874915E+06</totfact>
</mgrwt>
</event>
<event>
 5    1  0.1595802E+000  0.8703939E+02  0.7546771E-02  0.1310184E+00
         21   -1    0    0  503  502  0.00000000000E+00  0.00000000000E+00  0.83189216825E+02  0.83189216825E+02  0.00000000000E+00 0.  1.
         21   -1    0    0  501  503 -0.00000000000E+00 -0.00000000000E+00 -0.26016805022E+03  0.26016805022E+03  0.00000000000E+00 0.  1.
         24    1    1    2    0    0  0.23614377166E+02 -0.48134393971E+02 -0.20297670956E+03  0.22481396591E+03  0.80419002446E+02 0.  1.
          1    1    1    2  501    0 -0.41966562228E+02  0.37083618867E+02 -0.26415769819E+02  0.61920756040E+02  0.00000000000E+00 0. -1.
         -2    1    1    2    0  502  0.18352185062E+02  0.11050775104E+02  0.52413645985E+02  0.56622545089E+02  0.00000000000E+00 0.  1.
<mgrwt>
<rscale>  2 0.87039393E+02</rscale>
<asrwt>0</asrwt>
<pdfrwt beam="1">  1       21 0.12798341E-01 0.87039393E+02</pdfrwt>
<pdfrwt beam="2">  1       21 0.40025853E-01 0.87039393E+02</pdfrwt>
<totfact> 0.32079836E+05</totfact>
</mgrwt>
</event>
<event>
 5    1  0.1595802E+000  0.1010924E+03  0.7546771E-02  0.1278015E+00
         21   -1    0    0  503  502  0.00000000000E+00  0.00000000000E+00  0.32171461985E+03  0.32171461985E+03  0.00000000000E+00 0.  1.
         21   -1    0    0  501  503 -0.00000000000E+00 -0.00000000000E+00 -0.78479811207E+02  0.78479811207E+02  0.00000000000E+00 0. -1.
         24    1    1    2    0    0 -0.94355488353E+01 -0.30071426575E+02 -0.11212805096E+02  0.87099157462E+02  0.80419002446E+02 0. -1.
          1    1    1    2  501    0  0.60133160185E+02  0.24019170524E+02  0.12663968733E+02  0.65979493864E+02  0.00000000000E+00 0. -1.
         -2    1    1    2    0  502 -0.50697611350E+02  0.60522560513E+01  0.24178364500E+03  0.24711577973E+03  0.00000000000E+00 0.  1.
<mgrwt>
<rscale>  2 0.10109236E+03</rscale>
<asrwt>0</asrwt>
<pdfrwt beam="1">  1       21 0.49494556E-01 0.10109236E+03</pdfrwt>
<pdfrwt beam="2">  1       21 0.12073817E-01 0.10109236E+03</pdfrwt>
<totfact> 0.23124809E+05</totfact>
</mgrwt>
</event>
<event>
 5    1  0.1595802E+000  0.7611920E+02  0.7546771E-02  0.1340440E+00
         21   -1    0    0  501  502  0.00000000000E+00  0.00000000000E+00  0.97297944917E+02  0.97297944917E+02  0.00000000000E+00 0. -1.
         21   -1    0    0  502  503 -0.00000000000E+00 -0.00000000000E+00 -0.61460057844E+02  0.61460057844E+02  0.00000000000E+00 0. -1.
         24    1    1    2    0    0  0.11553070995E+02  0.31017688400E+02  0.34241641817E+02  0.93462700752E+02  0.80419002446E+02 0. -1.
          1    1    1    2  501    0 -0.33429960972E+02 -0.27132284277E+02  0.12736116819E+01  0.43073718523E+02  0.00000000000E+00 0. -1.
         -2    1    1    2    0  503  0.21876889976E+02 -0.38854041227E+01  0.32263357489E+00  0.22221583487E+02  0.00000000000E+00 0.  1.
<mgrwt>
<rscale>  2 0.76119204E+02</rscale>
<asrwt>0</asrwt>
<pdfrwt beam="1">  1       21 0.14968915E-01 0.76119204E+02</pdfrwt>
<pdfrwt beam="2">  1       21 0.94553935E-02 0.76119204E+02</pdfrwt>
<totfact> 0.33942952E+06</totfact>
</mgrwt>
</event>
<event>
 5    1  0.1595802E+000  0.1197974E+03  0.7546771E-02  0.1243432E+00
         21   -1    0    0  503  502  0.00000000000E+00  0.00000000000E+00  0.85724913943E+02  0.85724913943E+02  0.00000000000E+00 0. -1.
         21   -1    0    0  501  503 -0.00000000000E+00 -0.00000000000E+00 -0.18284163686E+03  0.18284163686E+03  0.00000000000E+00 0. -1.
         24    1    1    2    0    0 -0.79495671046E+02 -0.50862227173E+02 -0.23899455952E+02  0.12627322684E+03  0.80419002446E+02 0. -1.
          1    1    1    2  501    0  0.27859979519E+02  0.57157607279E+02 -0.62546417120E+02  0.89192067042E+02  0.00000000000E+00 0. -1.
         -2    1    1    2    0  502  0.51635691527E+02 -0.62953801054E+01 -0.10670849847E+02  0.53101256921E+02  0.00000000000E+00 0.  1.
<mgrwt>
<rscale>  2 0.11979744E+03</rscale>
<asrwt>0</asrwt>
<pdfrwt beam="1">  1       21 0.13188448E-01 0.11979744E+03</pdfrwt>
<pdfrwt beam="2">  1       21 0.28129482E-01 0.11979744E+03</pdfrwt>
<totfact> 0.60194343E+05</totfact>
</mgrwt>
</event>
<event>
 5    1  0.1595802E+000  0.7687954E+02  0.7546771E-02  0.1338148E+00
         21   -1    0    0  501  502  0.00000000000E+00  0.00000000000E+00  0.23359632882E+03  0.23359632882E+03  0.00000000000E+00 0. -1.
         21   -1    0    0  502  503 -0.00000000000E+00 -0.00000000000E+00 -0.11620796766E+03  0.11620796766E+03  0.00000000000E+00 0. -1.
         24    1    1    2    0    0  0.29776821752E+02  0.47083354398E+02 -0.32443300602E+02  0.10306932174E+03  0.80419002446E+02 0. -1.
          1    1    1    2  501    0 -0.13382656751E+02 -0.25792568648E+02  0.19338679547E+03  0.19555767630E+03  0.00000000000E+00 0. -1.
         -2    1    1    2    0  503 -0.16394165001E+02 -0.21290785750E+02 -0.43555133704E+02  0.51177298443E+02  0.00000000000E+00 0.  1.
<mgrwt>
<rscale>  2 0.76879535E+02</rscale>
<asrwt>0</asrwt>
<pdfrwt beam="1">  1       21 0.35937897E-01 0.76879535E+02</pdfrwt>
<pdfrwt beam="2">  1       21 0.17878149E-01 0.76879535E+02</pdfrwt>
<totfact> 0.21885170E+05</totfact>
</mgrwt>
</event>
<event>
 5    1  0.1595802E+000  0.9737627E+02  0.7546771E-02  0.1285912E+00
         21   -1    0    0  503  502  0.00000000000E+00  0.00000000000E+00  0.16399805027E+03  0.16399805027E+03  0.00000000000E+00 0. -1.
         21   -1    0    0  501  503 -0.00000000000E+00 -0.00000000000E+00 -0.70861430298E+02  0.70861430298E+02  0.00000000000E+00 0. -1.
         24    1    1    2    0    0 -0.48435862500E+02 -0.36768801186E+02 -0.24007099692E+01  0.10085116201E+03  0.80419002446E+02 0. -1.
          1    1    1    2  501    0  0.46741209121E+02  0.56951402144E+02  0.73252259374E+02  0.10389464057E+03  0.00000000000E+00 0. -1.
         -2    1    1    2    0  502  0.16946533792E+01 -0.20182600957E+02  0.22285070569E+02  0.30113677984E+02  0.00000000000E+00 0.  1.
<mgrwt>
<rscale>  2 0.97376273E+02</rscale>
<asrwt>0</asrwt>
<pdfrwt beam="1">  1       21 0.25230469E-01 0.97376273E+02</pdfrwt>
<pdfrwt beam="2">  1       21 0.10901759E-01 0.97376273E+02</pdfrwt>
<totfact> 0.10332205E+06</totfact>
</mgrwt>
</event>
<event>
 5    1  0.1595802E+000  0.8878697E+02  0.7546771E-02  0.1305816E+00
         21   -1    0    0  501  502  0.00000000000E+00  0.00000000000E+00  0.66813550241E+03  0.66813550241E+03  0.00000000000E+00 0.  1.
         21   -1    0    0  502  503 -0.00000000000E+00 -0.00000000000E+00 -0.22544951389E+02  0.22544951389E+02  0.00000000000E+00 0.  1.
         24    1    1    2    0    0  0.32688337641E+01 -0.28235546160E+02  0.46194104643E+03  0.46974959039E+03  0.80419002446E+02 0.  1.
          1    1    1    2  501    0  0.16528642982E+02  0.55882225538E+02  0.17691569318E+03  0.18626642656E+03  0.00000000000E+00 0. -1.
         -2    1    1    2    0  503 -0.19797476746E+02 -0.27646679378E+02  0.67338114146E+01  0.34664436853E+02  0.00000000000E+00 0.  1.
<mgrwt>
<rscale>  2 0.88786975E+02</rscale>
<asrwt>0</asrwt>
<pdfrwt beam="1">  1       21 0.10279006E+00 0.88786975E+02</pdfrwt>
<pdfrwt beam="2">  1       21 0.34684546E-02 0.88786975E+02</pdfrwt>
<totfact> 0.39103087E+05</totfact>
</mgrwt>
</event>
<event>
 5    1  0.1595802E+000  0.7418450E+02  0.7546771E-02  0.1346415E+00
         21   -1    0    0  503  502  0.00000000000E+00  0.00000000000E+00  0.13358864688E+02  0.13358864688E+02  0.00000000000E+00 0. -1.
         21   -1    0    0  501  503 -0.00000000000E+00 -0.00000000000E+00 -0.72776465783E+03  0.72776465783E+03  0.00000000000E+00 0.  1.
         24    1    1    2    0    0  0.22044285498E+02 -0.55944495982E+01 -0.34889025299E+03  0.35876018867E+03  0.80419002446E+02 0.  0.
          1    1    1    2  501    0  0.13991118032E+02  0.21302051158E+02 -0.32469035442E+03  0.32568904652E+03  0.00000000000E+00 0. -1.
         -2    1    1    2    0  502 -0.36035403530E+02 -0.15707601560E+02 -0.40825185734E+02  0.56674287332E+02  0.00000000000E+00 0.  1.
<mgrwt>
<rscale>  2 0.74184500E+02</rscale>
<asrwt>0</asrwt>
<pdfrwt beam="1">  1       21 0.20552093E-02 0.74184500E+02</pdfrwt>
<pdfrwt beam="2">  1       21 0.11196383E+00 0.74184500E+02</pdfrwt>
<totfact> 0.74575709E+05</totfact>
</mgrwt>
</event>
<event>
 5    1  0.1595802E+000  0.8039072E+02  0.7546771E-02  0.1327946E+00
         21   -1    0    0  503  502  0.00000000000E+00  0.00000000000E+00  0.10810388189E+04  0.10810388189E+04  0.00000000000E+00 0. -1.
         21   -1    0    0  501  503 -0.00000000000E+00 -0.00000000000E+00 -0.85265928047E+01  0.85265928047E+01  0.00000000000E+00 0.  1.
         24    1    1    2    0    0  0.18277081788E+02  0.29628292158E+02  0.59722468064E+03  0.60361943519E+03  0.80419002446E+02 0.  1.
          1    1    1    2  501    0 -0.39466304210E+02 -0.33309806851E+02  0.12846389064E+03  0.13845614323E+03  0.00000000000E+00 0. -1.
         -2    1    1    2    0  502  0.21189222422E+02  0.36815146933E+01  0.34682365485E+03  0.34748983332E+03  0.00000000000E+00 0.  1.
<mgrwt>
<rscale>  2 0.80390723E+02</rscale>
<asrwt>0</asrwt>
<pdfrwt beam="1">  1       21 0.16631356E+00 0.80390723E+02</pdfrwt>
<pdfrwt beam="2">  1       21 0.13117844E-02 0.80390723E+02</pdfrwt>
<totfact> 0.56976467E+05</totfact>
</mgrwt>
</event>
<event>
 5    1  0.1595802E+000  0.9333442E+02  0.7546771E-02  0.1294972E+00
         21   -1    0    0  501  502  0.00000000000E+00  0.00000000000E+00  0.38465180054E+02  0.38465180054E+02  0.00000000000E+00 0.  1.
         21   -1    0    0  502  503 -0.00000000000E+00 -0.00000000000E+00 -0.43320832471E+03  0.43320832471E+03  0.00000000000E+00 0.  1.
         24    1    1    2    0    0  0.36744554855E+02  0.63849360732E+02 -0.54885479216E+02  0.12209232146E+03  0.80419002446E+02 0.  1.
          1    1    1    2  501    0 -0.26152755086E+01 -0.27961240518E+02 -0.73994665197E+02  0.79144684692E+02  0.00000000000E+00 0. -1.
         -2    1    1    2    0  503 -0.34129279346E+02 -0.35888120214E+02 -0.26586300024E+03  0.27043649861E+03  0.00000000000E+00 0.  1.
<mgrwt>
<rscale>  2 0.93334420E+02</rscale>
<asrwt>0</asrwt>
<pdfrwt beam="1">  1       21 0.59177207E-02 0.93334420E+02</pdfrwt>
<pdfrwt beam="2">  1       21 0.66647427E-01 0.93334420E+02</pdfrwt>
<totfact> 0.42326770E+05</totfact>
</mgrwt>
</event>
<event>
 5    1  0.1595802E+000  0.8715305E+02  0.7546771E-02  0.1309896E+00
         21   -1    0    0  501  502  0.00000000000E+00  0.00000000000E+00  0.33764732929E+03  0.33764732929E+03  0.00000000000E+00 0.  1.
         21   -1    0    0  502  503 -0.00000000000E+00 -0.00000000000E+00 -0.46882255922E+02  0.46882255922E+02  0.00000000000E+00 0.  1.
         24    1    1    2    0    0  0.48937589499E+02  0.23371881312E+02  0.83230451709E+02  0.12781101888E+03  0.80419002446E+02 0.  0.
          1    1    1    2  501    0 -0.14344646673E+02  0.18234559908E+02  0.20086473726E+03  0.20220017492E+03  0.00000000000E+00 0. -1.
         -2    1    1    2    0  503 -0.34592942826E+02 -0.41606441221E+02  0.66698844048E+01  0.54518391414E+02  0.00000000000E+00 0.  1.
<mgrwt>
<rscale>  2 0.87153048E+02</rscale>
<asrwt>0</asrwt>
<pdfrwt beam="1">  1       21 0.51945741E-01 0.87153048E+02</pdfrwt>
<pdfrwt beam="2">  1       21 0.72126550E-02 0.87153048E+02</pdfrwt>
<totfact> 0.51101967E+05</totfact>
</mgrwt>
</event>
<event>
 5    1  0.1595802E+000  0.1131335E+03  0.7546771E-02  0.1254875E+00
         21   -1    0    0  503  502  0.00000000000E+00  0.00000000000E+00  0.64607282703E+02  0.64607282703E+02  0.00000000000E+00 0.  1.
         21   -1    0    0  501  503 -0.00000000000E+00 -0.00000000000E+00 -0.54231047078E+03  0.54231047078E+03  0.00000000000E+00 0.  1.
         24    1    1    2    0    0  0.14657046458E+02 -0.62589643917E+02 -0.45422442767E+03  0.46574600286E+03  0.80419002446E+02 0.  1.
          1    1    1    2  501    0  0.45498911844E+02  0.33445937266E+02 -0.43625276823E+02  0.71357876065E+02  0.00000000000E+00 0. -1.
         -2    1    1    2    0  502 -0.60155958302E+02  0.29143706651E+02  0.20146516416E+02  0.69813874554E+02  0.00000000000E+00 0.  1.
<mgrwt>
<rscale>  2 0.11313351E+03</rscale>
<asrwt>0</asrwt>
<pdfrwt beam="1">  1       21 0.99395821E-02 0.11313351E+03</pdfrwt>
<pdfrwt beam="2">  1       21 0.83432379E-01 0.11313351E+03</pdfrwt>
<totfact> 0.10594447E+05</totfact>
</mgrwt>
</event>
<event>
 5    1  0.1595802E+000  0.9157999E+02  0.7546771E-02  0.1299070E+00
         21   -1    0    0  503  502  0.00000000000E+00  0.00000000000E+00  0.93617088435E+02  0.93617088435E+02  0.00000000000E+00 0.  1.
         21   -1    0    0  501  503 -0.00000000000E+00 -0.00000000000E+00 -0.20902358145E+03  0.20902358145E+03  0.00000000000E+00 0.  1.
         24    1    1    2    0    0  0.21751680084E+02  0.32601606043E+02 -0.35360267298E+02  0.96195450832E+02  0.80419002446E+02 0.  0.
          1    1    1    2  501    0  0.21287429527E+02  0.17566317022E+02 -0.12402043263E+03  0.12705431067E+03  0.00000000000E+00 0. -1.
         -2    1    1    2    0  502 -0.43039109611E+02 -0.50167923065E+02  0.43974206912E+02  0.79390908386E+02  0.00000000000E+00 0.  1.
<mgrwt>
<rscale>  2 0.91579985E+02</rscale>
<asrwt>0</asrwt>
<pdfrwt beam="1">  1       21 0.14402629E-01 0.91579985E+02</pdfrwt>
<pdfrwt beam="2">  1       21 0.32157474E-01 0.91579985E+02</pdfrwt>
<totfact> 0.39866619E+05</totfact>
</mgrwt>
</event>
<event>
 5    1  0.1595802E+000  0.6352401E+02  0.7546771E-02  0.1383611E+00
         21   -1    0    0  503  502  0.00000000000E+00  0.00000000000E+00  0.17642819089E+03  0.17642819089E+03  0.00000000000E+00 0.  1.
         21   -1    0    0  501  503 -0.00000000000E+00 -0.00000000000E+00 -0.27491579274E+03  0.27491579274E+03  0.00000000000E+00 0.  1.
         24    1    1    2    0    0  0.21391628924E+01 -0.48449054215E+01 -0.19556502236E+03  0.21152054995E+03  0.80419002446E+02 0.  1.
          1    1    1    2  501    0 -0.80771786766E+01 -0.19652698640E+02 -0.68818199267E+02  0.72023703942E+02  0.00000000000E+00 0. -1.
         -2    1    1    2    0  502  0.59380157841E+01  0.24497604061E+02  0.16589561978E+03  0.16779972973E+03  0.00000000000E+00 0.  1.
<mgrwt>
<rscale>  2 0.63524006E+02</rscale>
<asrwt>0</asrwt>
<pdfrwt beam="1">  1       21 0.27142799E-01 0.63524006E+02</pdfrwt>
<pdfrwt beam="2">  1       21 0.42294737E-01 0.63524006E+02</pdfrwt>
<totfact> 0.74483283E+04</totfact>
</mgrwt>
</event>
<event>
 5    1  0.1595802E+000  0.7165229E+02  0.7546771E-02  0.1354563E+00
         21   -1    0    0  503  502  0.00000000000E+00  0.00000000000E+00  0.67686481041E+02  0.67686481041E+02  0.00000000000E+00 0.  1.
         21   -1    0    0  501  503 -0.00000000000E+00 -0.00000000000E+00 -0.76683221708E+02  0.76683221708E+02  0.00000000000E+00 0. -1.
         24    1    1    2    0    0 -0.13722430293E+02  0.13836667459E+02 -0.12600429188E+02  0.83700329925E+02  0.80419002446E+02 0. -1.
          1    1    1    2  501    0  0.65646430177E+01  0.22543830472E+02  0.10525571315E+01  0.23503759419E+02  0.00000000000E+00 0. -1.
         -2    1    1    2    0  502  0.71577872751E+01 -0.36380497931E+02  0.25511313888E+01  0.37165613405E+02  0.00000000000E+00 0.  1.
<mgrwt>
<rscale>  2 0.71652289E+02</rscale>
<asrwt>0</asrwt>
<pdfrwt beam="1">  1       21 0.10413305E-01 0.71652289E+02</pdfrwt>
<pdfrwt beam="2">  1       21 0.11797419E-01 0.71652289E+02</pdfrwt>
<totfact> 0.43508721E+06</totfact>
</mgrwt>
</event>
<event>
 5    1  0.1595802E+000  0.1320653E+03  0.7546771E-02  0.1224423E+00
         21   -1    0    0  503  502  0.00000000000E+00  0.00000000000E+00  0.15670019293E+03  0.15670019293E+03  0.00000000000E+00 0.  1.
         21   -1    0    0  501  503 -0.00000000000E+00 -0.00000000000E+00 -0.69840501426E+03  0.69840501426E+03  0.00000000000E+00 0. -1.
         24    1    1    2    0    0 -0.18356998544E+02  0.11837022250E+03 -0.29266417225E+03  0.32629438034E+03  0.80419002446E+02 0. -1.
          1    1    1    2  501    0  0.12845879626E+02 -0.93662129951E+02 -0.38196842728E+03  0.39349395249E+03  0.00000000000E+00 0. -1.
         -2    1    1    2    0  502  0.55111189180E+01 -0.24708092549E+02  0.13292777820E+03  0.13531687436E+03  0.00000000000E+00 0.  1.
<mgrwt>
<rscale>  2 0.13206534E+03</rscale>
<asrwt>0</asrwt>
<pdfrwt beam="1">  1       21 0.24107722E-01 0.13206534E+03</pdfrwt>
<pdfrwt beam="2">  1       21 0.10744693E+00 0.13206534E+03</pdfrwt>
<totfact> 0.11751845E+04</totfact>
</mgrwt>
</event>
<event>
 5    1  0.1595802E+000  0.9036726E+02  0.7546771E-02  0.1301965E+00
         21   -1    0    0  501  502  0.00000000000E+00  0.00000000000E+00  0.37877469951E+03  0.37877469951E+03  0.00000000000E+00 0.  1.
         21   -1    0    0  502  503 -0.00000000000E+00 -0.00000000000E+00 -0.21874289736E+02  0.21874289736E+02  0.00000000000E+00 0. -1.
         24    1    1    2    0    0 -0.55098042578E+02  0.15121154519E+02  0.21839461073E+03  0.23964111826E+03  0.80419002446E+02 0.  1.
          1    1    1    2  501    0  0.15589044478E+02 -0.34663373685E+02  0.65397993423E+02  0.75640368367E+02  0.00000000000E+00 0. -1.
         -2    1    1    2    0  503  0.39508998100E+02  0.19542219166E+02  0.73107805617E+02  0.85367502616E+02  0.00000000000E+00 0.  1.
<mgrwt>
<rscale>  2 0.90367261E+02</rscale>
<asrwt>0</asrwt>
<pdfrwt beam="1">  1       21 0.58273026E-01 0.90367261E+02</pdfrwt>
<pdfrwt beam="2">  1       21 0.33652756E-02 0.90367261E+02</pdfrwt>
<totfact> 0.14318367E+06</totfact>
</mgrwt>
</event>
<event>
 5    1  0.1595802E+000  0.1041189E+03  0.7546771E-02  0.1271865E+00
         21   -1    0    0  501  502  0.00000000000E+00  0.00000000000E+00  0.34762568688E+03  0.34762568688E+03  0.00000000000E+00 0. -1.
         21   -1    0    0  502  503 -0.00000000000E+00 -0.00000000000E+00 -0.38186597822E+02  0.38186597822E+02  0.00000000000E+00 0.  1.
         24    1    1    2    0    0  0.26674413757E+01 -0.61479937854E+02  0.18769997473E+03  0.21327305144E+03  0.80419002446E+02 0. -1.
          1    1    1    2  501    0 -0.20020761234E+02 -0.17206062651E+02  0.74722091981E+02  0.79248157722E+02  0.00000000000E+00 0. -1.
         -2    1    1    2    0  503  0.17353319858E+02  0.78686000505E+02  0.47017022350E+02  0.93291075544E+02  0.00000000000E+00 0.  1.
<mgrwt>
<rscale>  2 0.10411895E+03</rscale>
<asrwt>0</asrwt>
<pdfrwt beam="1">  1       21 0.53480873E-01 0.10411895E+03</pdfrwt>
<pdfrwt beam="2">  1       21 0.58748614E-02 0.10411895E+03</pdfrwt>
<totfact> 0.68072430E+05</totfact>
</mgrwt>
</event>
<event>
 5    1  0.1595802E+000  0.1871854E+03  0.7546771E-02  0.1161025E+00
         21   -1    0    0  503  502  0.00000000000E+00  0.00000000000E+00  0.15478899314E+03  0.15478899314E+03  0.00000000000E+00 0.  1.
         21   -1    0    0  501  503 -0.00000000000E+00 -0.00000000000E+00 -0.38407144427E+03  0.38407144427E+03  0.00000000000E+00 0.  1.
         24    1    1    2    0    0  0.13642089824E+03 -0.61731532721E+02 -0.16997555750E+03  0.24037543492E+03  0.80419002446E+02 0.  1.
          1    1    1    2  501    0  0.20827783066E+02 -0.18511208030E+02 -0.11107127753E+03  0.11451327461E+03  0.00000000000E+00 0. -1.
         -2    1    1    2    0  502 -0.15724868131E+03  0.80242740751E+02  0.51764383907E+02  0.18397172788E+03  0.00000000000E+00 0.  1.
<mgrwt>
<rscale>  2 0.18718539E+03</rscale>
<asrwt>0</asrwt>
<pdfrwt beam="1">  1       21 0.23813692E-01 0.18718539E+03</pdfrwt>
<pdfrwt beam="2">  1       21 0.59087914E-01 0.18718539E+03</pdfrwt>
<totfact> 0.44611888E+04</totfact>
</mgrwt>
</event>
<event>
 5    1  0.1595802E+000  0.8199886E+02  0.7546771E-02  0.1323473E+00
         21   -1    0    0  503  502  0.00000000000E+00  0.00000000000E+00  0.76471098140E+01  0.76471098140E+01  0.00000000000E+00 0. -1.
         21   -1    0    0  501  503 -0.00000000000E+00 -0.00000000000E+00 -0.95409096848E+03  0.95409096848E+03  0.00000000000E+00 0. -1.
         24    1    1    2    0    0  0.10470207306E+02  0.27728149890E+01 -0.38812654598E+03  0.39651827876E+03  0.80419002446E+02 0. -1.
          1    1    1    2  501    0 -0.46370376698E+02 -0.62271090611E+01 -0.40619260022E+03  0.40887824251E+03  0.00000000000E+00 0. -1.
         -2    1    1    2    0  502  0.35900169391E+02  0.34542940721E+01 -0.15212471246E+03  0.15634155702E+03  0.00000000000E+00 0.  1.
<mgrwt>
<rscale>  2 0.81998858E+02</rscale>
<asrwt>0</asrwt>
<pdfrwt beam="1">  1       21 0.11764785E-02 0.81998858E+02</pdfrwt>
<pdfrwt beam="2">  1       21 0.14678322E+00 0.81998858E+02</pdfrwt>
<totfact> 0.93168280E+05</totfact>
</mgrwt>
</event>
<event>
 5    1  0.1595802E+000  0.1034957E+03  0.7546771E-02  0.1273112E+00
         21   -1    0    0  503  502  0.00000000000E+00  0.00000000000E+00  0.11839358756E+04  0.11839358756E+04  0.00000000000E+00 0.  1.
         21   -1    0    0  501  503 -0.00000000000E+00 -0.00000000000E+00 -0.29249490936E+02  0.29249490936E+02  0.00000000000E+00 0. -1.
         24    1    1    2    0    0 -0.79111102880E+02 -0.33339902578E+02  0.35319238615E+03  0.37226629352E+03  0.80419002446E+02 0.  1.
          1    1    1    2  501    0  0.24688849609E+02 -0.15098993694E+01 -0.10128114021E+02  0.26728220755E+02  0.00000000000E+00 0. -1.
         -2    1    1    2    0  502  0.54422253271E+02  0.34849801947E+02  0.81162211249E+03  0.81419085221E+03  0.00000000000E+00 0.  1.
<mgrwt>
<rscale>  2 0.10349569E+03</rscale>
<asrwt>0</asrwt>
<pdfrwt beam="1">  1       21 0.18214394E+00 0.10349569E+03</pdfrwt>
<pdfrwt beam="2">  1       21 0.44999226E-02 0.10349569E+03</pdfrwt>
<totfact> 0.60189413E+04</totfact>
</mgrwt>
</event>
<event>
 5    1  0.1595802E+000  0.7864728E+02  0.7546771E-02  0.1332935E+00
         21   -1    0    0  501  502  0.00000000000E+00  0.00000000000E+00  0.83534942925E+02  0.83534942925E+02  0.00000000000E+00 0. -1.
         21   -1    0    0  502  503 -0.00000000000E+00 -0.00000000000E+00 -0.14763245265E+03  0.14763245265E+03  0.00000000000E+00 0. -1.
         24    1    1    2    0    0 -0.28442865865E+01 -0.34955104652E+02 -0.54623340415E+02  0.10334831677E+03  0.80419002446E+02 0. -1.
          1    1    1    2  501    0 -0.23975905193E+02  0.35378700496E+02  0.48075440509E+02  0.64325301855E+02  0.00000000000E+00 0. -1.
         -2    1    1    2    0  503  0.26820191779E+02 -0.42359584318E+00 -0.57549609821E+02  0.63493776947E+02  0.00000000000E+00 0.  1.
<mgrwt>
<rscale>  2 0.78647278E+02</rscale>
<asrwt>0</asrwt>
<pdfrwt beam="1">  1       21 0.12851530E-01 0.78647278E+02</pdfrwt>
<pdfrwt beam="2">  1       21 0.22712685E-01 0.78647278E+02</pdfrwt>
<totfact> 0.93796889E+05</totfact>
</mgrwt>
</event>
<event>
 5    1  0.1595802E+000  0.8913230E+02  0.7546771E-02  0.1304967E+00
         21   -1    0    0  501  502  0.00000000000E+00  0.00000000000E+00  0.17163943267E+02  0.17163943267E+02  0.00000000000E+00 0. -1.
         21   -1    0    0  502  503 -0.00000000000E+00 -0.00000000000E+00 -0.21041482857E+04  0.21041482857E+04  0.00000000000E+00 0.  1.
         24    1    1    2    0    0  0.80482587940E+01  0.48243395084E+01 -0.45735433175E+03  0.46446555248E+03  0.80419002446E+02 0. -1.
          1    1    1    2  501    0 -0.44069444365E+02  0.24882909603E+02 -0.34998751764E+02  0.61532005835E+02  0.00000000000E+00 0. -1.
         -2    1    1    2    0  503  0.36021185571E+02 -0.29707249112E+02 -0.15946312589E+04  0.15953146707E+04  0.00000000000E+00 0.  1.
<mgrwt>
<rscale>  2 0.89132299E+02</rscale>
<asrwt>0</asrwt>
<pdfrwt beam="1">  1       21 0.26406066E-02 0.89132299E+02</pdfrwt>
<pdfrwt beam="2">  1       21 0.32371513E+00 0.89132299E+02</pdfrwt>
<totfact> 0.22584675E+04</totfact>
</mgrwt>
</event>
<event>
 5    1  0.1595802E+000  0.8390340E+02  0.7546771E-02  0.1318325E+00
         21   -1    0    0  501  502  0.00000000000E+00  0.00000000000E+00  0.21508435280E+02  0.21508435280E+02  0.00000000000E+00 0. -1.
         21   -1    0    0  502  503 -0.00000000000E+00 -0.00000000000E+00 -0.53000496768E+03  0.53000496768E+03  0.00000000000E+00 0.  1.
         24    1    1    2    0    0 -0.16905156533E+02 -0.78284972160E+01 -0.14258646281E+03  0.16475795889E+03  0.80419002446E+02 0.  0.
          1    1    1    2  501    0  0.41224357280E+01 -0.37722728947E+02 -0.32373842641E+02  0.49880501631E+02  0.00000000000E+00 0. -1.
         -2    1    1    2    0  503  0.12782720805E+02  0.45551226163E+02 -0.33353622695E+03  0.33687494244E+03  0.00000000000E+00 0.  1.
<mgrwt>
<rscale>  2 0.83903403E+02</rscale>
<asrwt>0</asrwt>
<pdfrwt beam="1">  1       21 0.33089902E-02 0.83903403E+02</pdfrwt>
<pdfrwt beam="2">  1       21 0.81539223E-01 0.83903403E+02</pdfrwt>
<totfact> 0.71395400E+05</totfact>
</mgrwt>
</event>
<event>
 5    1  0.1595802E+000  0.7340389E+02  0.7546771E-02  0.1348886E+00
         21   -1    0    0  501  502  0.00000000000E+00  0.00000000000E+00  0.12650564171E+03  0.12650564171E+03  0.00000000000E+00 0. -1.
         21   -1    0    0  502  503 -0.00000000000E+00 -0.00000000000E+00 -0.12537906979E+03  0.12537906979E+03  0.00000000000E+00 0.  1.
         24    1    1    2    0    0 -0.47490573228E+02 -0.10124988424E+02 -0.95803348794E+02  0.13417662811E+03  0.80419002446E+02 0.  1.
          1    1    1    2  501    0  0.21336386715E+02 -0.59702618637E+01  0.79214908262E+02  0.82255012709E+02  0.00000000000E+00 0. -1.
         -2    1    1    2    0  503  0.26154186513E+02  0.16095250288E+02  0.17715012454E+02  0.35453070674E+02  0.00000000000E+00 0.  1.
<mgrwt>
<rscale>  2 0.73403886E+02</rscale>
<asrwt>0</asrwt>
<pdfrwt beam="1">  1       21 0.19462406E-01 0.73403886E+02</pdfrwt>
<pdfrwt beam="2">  1       21 0.19289088E-01 0.73403886E+02</pdfrwt>
<totfact> 0.60233601E+05</totfact>
</mgrwt>
</event>
<event>
 5    1  0.1595802E+000  0.8162976E+02  0.7546771E-02  0.1324489E+00
         21   -1    0    0  501  502  0.00000000000E+00  0.00000000000E+00  0.23240129014E+03  0.23240129014E+03  0.00000000000E+00 0.  1.
         21   -1    0    0  502  503 -0.00000000000E+00 -0.00000000000E+00 -0.30620726861E+02  0.30620726861E+02  0.00000000000E+00 0. -1.
         24    1    1    2    0    0  0.43598513782E+01 -0.17369845263E+02  0.86798369940E+02  0.11967411085E+03  0.80419002446E+02 0.  0.
          1    1    1    2  501    0 -0.35949183481E+02 -0.11837367870E+02  0.77663782950E+02  0.86395198091E+02  0.00000000000E+00 0. -1.
         -2    1    1    2    0  503  0.31589332103E+02  0.29207213133E+02  0.37318410390E+02  0.56952708063E+02  0.00000000000E+00 0.  1.
<mgrwt>
<rscale>  2 0.81629756E+02</rscale>
<asrwt>0</asrwt>
<pdfrwt beam="1">  1       21 0.35754043E-01 0.81629756E+02</pdfrwt>
<pdfrwt beam="2">  1       21 0.47108812E-02 0.81629756E+02</pdfrwt>
<totfact> 0.21949216E+06</totfact>
</mgrwt>
</event>
<event>
 5    1  0.1595802E+000  0.1019999E+03  0.7546771E-02  0.1276146E+00
         21   -1    0    0  501  502  0.00000000000E+00  0.00000000000E+00  0.24531380050E+03  0.24531380050E+03  0.00000000000E+00 0. -1.
         21   -1    0    0  502  503 -0.00000000000E+00 -0.00000000000E+00 -0.59836530148E+02  0.59836530148E+02  0.00000000000E+00 0. -1.
         24    1    1    2    0    0  0.20616638199E+02  0.58422217250E+02  0.11942909172E+03  0.15674413910E+03  0.80419002446E+02 0. -1.
          1    1    1    2  501    0 -0.51537739456E+02 -0.26160171607E+02  0.82547768039E+02  0.10077017006E+03  0.00000000000E+00 0. -1.
         -2    1    1    2    0  503  0.30921101256E+02 -0.32262045643E+02 -0.16499589407E+02  0.47636021482E+02  0.00000000000E+00 0.  1.
<mgrwt>
<rscale>  2 0.10199995E+03</rscale>
<asrwt>0</asrwt>
<pdfrwt beam="1">  1       21 0.37740584E-01 0.10199995E+03</pdfrwt>
<pdfrwt beam="2">  1       21 0.92056202E-02 0.10199995E+03</pdfrwt>
<totfact> 0.63958056E+05</totfact>
</mgrwt>
</event>
<event>
 5    1  0.1595802E+000  0.7779706E+02  0.7546771E-02  0.1335422E+00
         21   -1    0    0  501  502  0.00000000000E+00  0.00000000000E+00  0.13654408846E+03  0.13654408846E+03  0.00000000000E+00 0. -1.
         21   -1    0    0  502  503 -0.00000000000E+00 -0.00000000000E+00 -0.15354912478E+03  0.15354912478E+03  0.00000000000E+00 0.  1.
         24    1    1    2    0    0  0.21092330011E+02 -0.74449650404E+01 -0.35015403410E+01  0.83545141264E+02  0.80419002446E+02 0.  1.
          1    1    1    2  501    0 -0.32415822152E+02 -0.22929585645E+02  0.89848860024E+02  0.98231202126E+02  0.00000000000E+00 0. -1.
         -2    1    1    2    0  503  0.11323492141E+02  0.30374550685E+02 -0.10335235600E+03  0.10831686985E+03  0.00000000000E+00 0.  1.
<mgrwt>
<rscale>  2 0.77797062E+02</rscale>
<asrwt>0</asrwt>
<pdfrwt beam="1">  1       21 0.21006783E-01 0.77797062E+02</pdfrwt>
<pdfrwt beam="2">  1       21 0.23622942E-01 0.77797062E+02</pdfrwt>
<totfact> 0.36152998E+05</totfact>
</mgrwt>
</event>
<event>
 5    1  0.1595802E+000  0.1023036E+03  0.7546771E-02  0.1275525E+00
         21   -1    0    0  501  502  0.00000000000E+00  0.00000000000E+00  0.26119099817E+03  0.26119099817E+03  0.00000000000E+00 0. -1.
         21   -1    0    0  502  503 -0.00000000000E+00 -0.00000000000E+00 -0.99724077990E+02  0.99724077990E+02  0.00000000000E+00 0.  1.
         24    1    1    2    0    0  0.29460948052E+02 -0.62309440159E+01  0.15962325299E+03  0.18125554053E+03  0.80419002446E+02 0. -1.
          1    1    1    2  501    0 -0.42802672097E+02 -0.47168718658E+02  0.68285796682E+02  0.93380441138E+02  0.00000000000E+00 0. -1.
         -2    1    1    2    0  503  0.13341724045E+02  0.53399662674E+02 -0.66442129494E+02  0.86279094490E+02  0.00000000000E+00 0.  1.
<mgrwt>
<rscale>  2 0.10230365E+03</rscale>
<asrwt>0</asrwt>
<pdfrwt beam="1">  1       21 0.40183230E-01 0.10230365E+03</pdfrwt>
<pdfrwt beam="2">  1       21 0.15342166E-01 0.10230365E+03</pdfrwt>
<totfact> 0.22986633E+05</totfact>
</mgrwt>
</event>
<event>
 5    1  0.1595802E+000  0.7450427E+02  0.7546771E-02  0.1345413E+00
         21   -1    0    0  503  502  0.00000000000E+00  0.00000000000E+00  0.47143463761E+03  0.47143463761E+03  0.00000000000E+00 0. -1.
         21   -1    0    0  501  503 -0.00000000000E+00 -0.00000000000E+00 -0.14886805886E+02  0.14886805886E+02  0.00000000000E+00 0.  1.
         24    1    1    2    0    0 -0.28814600980E+02  0.39892622056E+02  0.37905431437E+03  0.39060349682E+03  0.80419002446E+02 0.  0.
          1    1    1    2  501    0  0.44479122157E+00 -0.20171775848E+02  0.18623302927E+02  0.27457709155E+02  0.00000000000E+00 0. -1.
         -2    1    1    2    0  502  0.28369809759E+02 -0.19720846208E+02  0.58870214422E+02  0.68260237525E+02  0.00000000000E+00 0.  1.
<mgrwt>
<rscale>  2 0.74504271E+02</rscale>
<asrwt>0</asrwt>
<pdfrwt beam="1">  1       21 0.72528394E-01 0.74504271E+02</pdfrwt>
<pdfrwt beam="2">  1       21 0.22902782E-02 0.74504271E+02</pdfrwt>
<totfact> 0.16663896E+06</totfact>
</mgrwt>
</event>
<event>
 5    1  0.1595802E+000  0.6848898E+02  0.7546771E-02  0.1365308E+00
         21   -1    0    0  501  502  0.00000000000E+00  0.00000000000E+00  0.18007308376E+03  0.18007308376E+03  0.00000000000E+00 0. -1.
         21   -1    0    0  502  503 -0.00000000000E+00 -0.00000000000E+00 -0.77570712244E+02  0.77570712244E+02  0.00000000000E+00 0. -1.
         24    1    1    2    0    0  0.25544707396E+02 -0.36568414936E+02  0.36297643283E+01  0.92033538400E+02  0.80419002446E+02 0. -1.
          1    1    1    2  501    0 -0.15423864044E+02  0.16793804033E+02  0.12741663396E+03  0.12944082063E+03  0.00000000000E+00 0. -1.
         -2    1    1    2    0  503 -0.10120843352E+02  0.19774610903E+02 -0.28544026772E+02  0.36169436972E+02  0.00000000000E+00 0.  1.
<mgrwt>
<rscale>  2 0.68488980E+02</rscale>
<asrwt>0</asrwt>
<pdfrwt beam="1">  1       21 0.27703551E-01 0.68488980E+02</pdfrwt>
<pdfrwt beam="2">  1       21 0.11933956E-01 0.68488980E+02</pdfrwt>
<totfact> 0.73559397E+05</totfact>
</mgrwt>
</event>
<event>
 5    1  0.1595802E+000  0.7575184E+02  0.7546771E-02  0.1341559E+00
         21   -1    0    0  501  502  0.00000000000E+00  0.00000000000E+00  0.70338268276E+02  0.70338268276E+02  0.00000000000E+00 0.  1.
         21   -1    0    0  502  503 -0.00000000000E+00 -0.00000000000E+00 -0.10897003527E+03  0.10897003527E+03  0.00000000000E+00 0. -1.
         24    1    1    2    0    0 -0.13621430883E+02 -0.77245216329E+01 -0.50149899834E+02  0.96059564966E+02  0.80419002446E+02 0. -1.
          1    1    1    2  501    0  0.39856268039E+02  0.14612076960E+02  0.28607589035E+02  0.51190126446E+02  0.00000000000E+00 0. -1.
         -2    1    1    2    0  503 -0.26234837156E+02 -0.68875553275E+01 -0.17089456200E+02  0.32058612138E+02  0.00000000000E+00 0.  1.
<mgrwt>
<rscale>  2 0.75751836E+02</rscale>
<asrwt>0</asrwt>
<pdfrwt beam="1">  1       21 0.10821272E-01 0.75751836E+02</pdfrwt>
<pdfrwt beam="2">  1       21 0.16764621E-01 0.75751836E+02</pdfrwt>
<totfact> 0.21964979E+06</totfact>
</mgrwt>
</event>
<event>
 5    1  0.1595802E+000  0.8439904E+02  0.7546771E-02  0.1317012E+00
         21   -1    0    0  501  502  0.00000000000E+00  0.00000000000E+00  0.20619232332E+03  0.20619232332E+03  0.00000000000E+00 0. -1.
         21   -1    0    0  502  503 -0.00000000000E+00 -0.00000000000E+00 -0.62542517416E+02  0.62542517416E+02  0.00000000000E+00 0. -1.
         24    1    1    2    0    0  0.47099382459E+01  0.16524399374E+02 -0.14363846862E+01  0.82246692628E+02  0.80419002446E+02 0. -1.
          1    1    1    2  501    0 -0.39140922539E+02 -0.30280606740E+02  0.14070404055E+03  0.14915278739E+03  0.00000000000E+00 0. -1.
         -2    1    1    2    0  503  0.34430984293E+02  0.13756207366E+02  0.43821500437E+01  0.37335360713E+02  0.00000000000E+00 0.  1.
<mgrwt>
<rscale>  2 0.84399040E+02</rscale>
<asrwt>0</asrwt>
<pdfrwt beam="1">  1       21 0.31721896E-01 0.84399040E+02</pdfrwt>
<pdfrwt beam="2">  1       21 0.96219259E-02 0.84399040E+02</pdfrwt>
<totfact> 0.82918442E+05</totfact>
</mgrwt>
</event>
<event>
 5    1  0.1595802E+000  0.1157541E+03  0.7546771E-02  0.1250270E+00
         21   -1    0    0  501  502  0.00000000000E+00  0.00000000000E+00  0.12459262489E+03  0.12459262489E+03  0.00000000000E+00 0. -1.
         21   -1    0    0  502  503 -0.00000000000E+00 -0.00000000000E+00 -0.20088380731E+03  0.20088380731E+03  0.00000000000E+00 0. -1.
         24    1    1    2    0    0  0.90930770469E+02 -0.44383777031E+02 -0.14582878285E+03  0.19486296350E+03  0.80419002446E+02 0. -1.
          1    1    1    2  501    0 -0.15225423139E+02  0.13998952884E+02  0.37786643320E+02  0.43076845346E+02  0.00000000000E+00 0. -1.
         -2    1    1    2    0  503 -0.75705347329E+02  0.30384824148E+02  0.31750957107E+02  0.87536623364E+02  0.00000000000E+00 0.  1.
<mgrwt>
<rscale>  2 0.11575410E+03</rscale>
<asrwt>0</asrwt>
<pdfrwt beam="1">  1       21 0.19168096E-01 0.11575410E+03</pdfrwt>
<pdfrwt beam="2">  1       21 0.30905201E-01 0.11575410E+03</pdfrwt>
<totfact> 0.25573431E+05</totfact>
</mgrwt>
</event>
<event>
 5    1  0.1595802E+000  0.7306449E+02  0.7546771E-02  0.1349972E+00
         21   -1    0    0  503  502  0.00000000000E+00  0.00000000000E+00  0.18939475012E+02  0.18939475012E+02  0.00000000000E+00 0. -1.
         21   -1    0    0  501  503 -0.00000000000E+00 -0.00000000000E+00 -0.31670343731E+03  0.31670343731E+03  0.00000000000E+00 0.  1.
         24    1    1    2    0    0  0.38608783613E+02 -0.52036084808E+00 -0.16966612607E+03  0.19168912134E+03  0.80419002446E+02 0. -1.
          1    1    1    2  501    0 -0.84568062877E+01  0.19525941419E+02 -0.86949751382E+02  0.89515580913E+02  0.00000000000E+00 0. -1.
         -2    1    1    2    0  502 -0.30151977326E+02 -0.19005580571E+02 -0.41148084837E+02  0.54438210067E+02  0.00000000000E+00 0.  1.
<mgrwt>
<rscale>  2 0.73064487E+02</rscale>
<asrwt>0</asrwt>
<pdfrwt beam="1">  1       21 0.29137655E-02 0.73064487E+02</pdfrwt>
<pdfrwt beam="2">  1       21 0.48723604E-01 0.73064487E+02</pdfrwt>
<totfact> 0.25929980E+06</totfact>
</mgrwt>
</event>
<event>
 5    1  0.1800759E+000  0.8169337E+02  0.7546771E-02  0.1324313E+00
         21   -1    0    0  501  502  0.00000000000E+00  0.00000000000E+00  0.14841942349E+04  0.14841942349E+04  0.00000000000E+00 0. -1.
         21   -1    0    0  502  503 -0.00000000000E+00 -0.00000000000E+00 -0.72619042111E+02  0.72619042111E+02  0.00000000000E+00 0.  1.
         24    1    1    2    0    0  0.42596457262E+02 -0.36378049292E+02  0.10708314662E+04  0.10753069634E+04  0.80419002446E+02 0.  0.
          1    1    1    2  501    0 -0.23744757647E+01  0.22809123785E+02  0.40436989092E+03  0.40501963279E+03  0.00000000000E+00 0. -1.
         -2    1    1    2    0  503 -0.40221981498E+02  0.13568925506E+02 -0.63626164388E+02  0.76486680734E+02  0.00000000000E+00 0.  1.
<mgrwt>
<rscale>  2 0.81693372E+02</rscale>
<asrwt>0</asrwt>
<pdfrwt beam="1">  1       21 0.22833755E+00 0.81693372E+02</pdfrwt>
<pdfrwt beam="2">  1       21 0.11172161E-01 0.81693372E+02</pdfrwt>
<totfact> 0.69253971E+03</totfact>
</mgrwt>
</event>
<event>
 5    1  0.1595802E+000  0.8787978E+02  0.7546771E-02  0.1308069E+00
         21   -1    0    0  503  502  0.00000000000E+00  0.00000000000E+00  0.28975260460E+02  0.28975260460E+02  0.00000000000E+00 0.  1.
         21   -1    0    0  501  503 -0.00000000000E+00 -0.00000000000E+00 -0.72203240189E+03  0.72203240189E+03  0.00000000000E+00 0. -1.
         24    1    1    2    0    0  0.19527482153E+02  0.28383275254E+02 -0.18503611783E+03  0.20467660768E+03  0.80419002446E+02 0.  1.
          1    1    1    2  501    0  0.28630409711E+02 -0.28095155352E+02 -0.49475515784E+03  0.49637858971E+03  0.00000000000E+00 0. -1.
         -2    1    1    2    0  502 -0.48157891864E+02 -0.28811990263E+00 -0.13265865762E+02  0.49952464967E+02  0.00000000000E+00 0.  1.
<mgrwt>
<rscale>  2 0.87879782E+02</rscale>
<asrwt>0</asrwt>
<pdfrwt beam="1">  1       21 0.44577320E-02 0.87879782E+02</pdfrwt>
<pdfrwt beam="2">  1       21 0.11108192E+00 0.87879782E+02</pdfrwt>
<totfact> 0.21583245E+05</totfact>
</mgrwt>
</event>
<event>
 5    1  0.1595802E+000  0.1010091E+03  0.7546771E-02  0.1278188E+00
         21   -1    0    0  503  502  0.00000000000E+00  0.00000000000E+00  0.19356292330E+02  0.19356292330E+02  0.00000000000E+00 0.  1.
         21   -1    0    0  501  503 -0.00000000000E+00 -0.00000000000E+00 -0.53671178205E+03  0.53671178205E+03  0.00000000000E+00 0.  1.
         24    1    1    2    0    0  0.64189180082E+00 -0.60119433896E+02 -0.29326651540E+03  0.30997939184E+03  0.80419002446E+02 0.  1.
          1    1    1    2  501    0 -0.15258779347E+02 -0.17157991403E+02 -0.55209240899E+02  0.59793706164E+02  0.00000000000E+00 0. -1.
         -2    1    1    2    0  502  0.14616887546E+02  0.77277425299E+02 -0.16887973342E+03  0.18629497637E+03  0.00000000000E+00 0.  1.
<mgrwt>
<rscale>  2 0.10100906E+03</rscale>
<asrwt>0</asrwt>
<pdfrwt beam="1">  1       21 0.29778906E-02 0.10100906E+03</pdfrwt>
<pdfrwt beam="2">  1       21 0.82571057E-01 0.10100906E+03</pdfrwt>
<totfact> 0.82500776E+05</totfact>
</mgrwt>
</event>
<event>
 5    1  0.1595802E+000  0.8128811E+02  0.7546771E-02  0.1325435E+00
         21   -1    0    0  501  502  0.00000000000E+00  0.00000000000E+00  0.54907644051E+03  0.54907644051E+03  0.00000000000E+00 0.  1.
         21   -1    0    0  502  503 -0.00000000000E+00 -0.00000000000E+00 -0.18951872208E+02  0.18951872208E+02  0.00000000000E+00 0. -1.
         24    1    1    2    0    0  0.53988853887E+02 -0.27447399349E+02  0.13695262119E+03  0.16997468188E+03  0.80419002446E+02 0. -1.
          1    1    1    2  501    0 -0.32145285983E+02  0.23215346350E+02  0.26844602014E+03  0.27135868780E+03  0.00000000000E+00 0. -1.
         -2    1    1    2    0  503 -0.21843567904E+02  0.42320529995E+01  0.12472592697E+03  0.12669494303E+03  0.00000000000E+00 0.  1.
<mgrwt>
<rscale>  2 0.81288112E+02</rscale>
<asrwt>0</asrwt>
<pdfrwt beam="1">  1       21 0.84473287E-01 0.81288112E+02</pdfrwt>
<pdfrwt beam="2">  1       21 0.29156731E-02 0.81288112E+02</pdfrwt>
<totfact> 0.81056647E+05</totfact>
</mgrwt>
</event>
<event>
 5    1  0.1595802E+000  0.8907089E+02  0.7546771E-02  0.1305117E+00
         21   -1    0    0  501  502  0.00000000000E+00  0.00000000000E+00  0.42474085732E+03  0.42474085732E+03  0.00000000000E+00 0. -1.
         21   -1    0    0  502  503 -0.00000000000E+00 -0.00000000000E+00 -0.32860881308E+02  0.32860881308E+02  0.00000000000E+00 0.  1.
         24    1    1    2    0    0  0.69268307546E+02 -0.46792049982E+01  0.94538991910E+02  0.14221403002E+03  0.80419002446E+02 0.  1.
          1    1    1    2  501    0 -0.24183831056E+02  0.10645078895E+02  0.24341718437E+03  0.24484709726E+03  0.00000000000E+00 0. -1.
         -2    1    1    2    0  503 -0.45084476490E+02 -0.59658738971E+01  0.53923799733E+02  0.70540611348E+02  0.00000000000E+00 0.  1.
<mgrwt>
<rscale>  2 0.89070886E+02</rscale>
<asrwt>0</asrwt>
<pdfrwt beam="1">  1       21 0.65344743E-01 0.89070886E+02</pdfrwt>
<pdfrwt beam="2">  1       21 0.50555205E-02 0.89070886E+02</pdfrwt>
<totfact> 0.57464056E+05</totfact>
</mgrwt>
</event>
<event>
 5    1  0.1595802E+000  0.1627358E+03  0.7546771E-02  0.1185642E+00
         21   -1    0    0  501  502  0.00000000000E+00  0.00000000000E+00  0.70842384925E+03  0.70842384925E+03  0.00000000000E+00 0. -1.
         21   -1    0    0  502  503 -0.00000000000E+00 -0.00000000000E+00 -0.68388518460E+02  0.68388518460E+02  0.00000000000E+00 0. -1.
         24    1    1    2    0    0  0.12442217650E+03 -0.15753601087E+02  0.14897494628E+03  0.21068888088E+03  0.80419002446E+02 0. -1.
          1    1    1    2  501    0 -0.14203097797E+03  0.39034455189E+02  0.51031970028E+03  0.53115222290E+03  0.00000000000E+00 0. -1.
         -2    1    1    2    0  503  0.17608801467E+02 -0.23280854102E+02 -0.19259315776E+02  0.34971263932E+02  0.00000000000E+00 0.  1.
<mgrwt>
<rscale>  2 0.16273580E+03</rscale>
<asrwt>0</asrwt>
<pdfrwt beam="1">  1       21 0.10898828E+00 0.16273580E+03</pdfrwt>
<pdfrwt beam="2">  1       21 0.10521311E-01 0.16273580E+03</pdfrwt>
<totfact> 0.50322098E+04</totfact>
</mgrwt>
</event>
<event>
 5    1  0.1595802E+000  0.6307992E+02  0.7546771E-02  0.1385343E+00
         21   -1    0    0  503  502  0.00000000000E+00  0.00000000000E+00  0.64297596417E+02  0.64297596417E+02  0.00000000000E+00 0.  1.
         21   -1    0    0  501  503 -0.00000000000E+00 -0.00000000000E+00 -0.28524930885E+03  0.28524930885E+03  0.00000000000E+00 0. -1.
         24    1    1    2    0    0  0.12031667699E+02  0.26929165343E+02 -0.24771450348E+03  0.26210614675E+03  0.80419002446E+02 0.  0.
          1    1    1    2  501    0  0.67160545692E+01 -0.18990977532E+02 -0.24831751567E+02  0.31974654063E+02  0.00000000000E+00 0. -1.
         -2    1    1    2    0  502 -0.18747722268E+02 -0.79381878112E+01  0.51594542615E+02  0.55466104457E+02  0.00000000000E+00 0.  1.
<mgrwt>
<rscale>  2 0.63079915E+02</rscale>
<asrwt>0</asrwt>
<pdfrwt beam="1">  1       21 0.98919380E-02 0.63079915E+02</pdfrwt>
<pdfrwt beam="2">  1       21 0.43884509E-01 0.63079915E+02</pdfrwt>
<totfact> 0.41887576E+05</totfact>
</mgrwt>
</event>
<event>
 5    1  0.1595802E+000  0.8390589E+02  0.7546771E-02  0.1318319E+00
         21   -1    0    0  501  502  0.00000000000E+00  0.00000000000E+00  0.16616757478E+04  0.16616757478E+04  0.00000000000E+00 0.  1.
         21   -1    0    0  502  503 -0.00000000000E+00 -0.00000000000E+00 -0.58270525008E+01  0.58270525008E+01  0.00000000000E+00 0. -1.
         24    1    1    2    0    0 -0.55746241832E+02 -0.27536351679E+02  0.54105652953E+03  0.55052273181E+03  0.80419002446E+02 0. -1.
          1    1    1    2  501    0  0.32369025109E+02  0.33815602068E+01  0.72904116621E+03  0.72976723054E+03  0.00000000000E+00 0. -1.
         -2    1    1    2    0  503  0.23377216723E+02  0.24154791473E+02  0.38575099952E+03  0.38721283791E+03  0.00000000000E+00 0.  1.
<mgrwt>
<rscale>  2 0.83905894E+02</rscale>
<asrwt>0</asrwt>
<pdfrwt beam="1">  1       21 0.25564205E+00 0.83905894E+02</pdfrwt>
<pdfrwt beam="2">  1       21 0.89647094E-03 0.83905894E+02</pdfrwt>
<totfact> 0.29796265E+05</totfact>
</mgrwt>
</event>
<event>
 5    1  0.1595802E+000  0.1024867E+03  0.7546771E-02  0.1275152E+00
         21   -1    0    0  503  502  0.00000000000E+00  0.00000000000E+00  0.16308147403E+03  0.16308147403E+03  0.00000000000E+00 0.  1.
         21   -1    0    0  501  503 -0.00000000000E+00 -0.00000000000E+00 -0.87436304572E+02  0.87436304572E+02  0.00000000000E+00 0. -1.
         24    1    1    2    0    0  0.18501979123E+02  0.28297244689E+01  0.73632886177E+01  0.82896106939E+02  0.80419002446E+02 0.  0.
          1    1    1    2  501    0  0.24833106518E+02  0.48947077912E+02 -0.18271860542E+02  0.57847735506E+02  0.00000000000E+00 0. -1.
         -2    1    1    2    0  502 -0.43335085641E+02 -0.51776802381E+02  0.86553741384E+02  0.10977393616E+03  0.00000000000E+00 0.  1.
<mgrwt>
<rscale>  2 0.10248666E+03</rscale>
<asrwt>0</asrwt>
<pdfrwt beam="1">  1       21 0.25089458E-01 0.10248666E+03</pdfrwt>
<pdfrwt beam="2">  1       21 0.13451739E-01 0.10248666E+03</pdfrwt>
<totfact> 0.72157579E+05</totfact>
</mgrwt>
</event>
<event>
 5    1  0.1595802E+000  0.7536270E+02  0.7546771E-02  0.1342752E+00
         21   -1    0    0  503  502  0.00000000000E+00  0.00000000000E+00  0.12188334131E+03  0.12188334131E+03  0.00000000000E+00 0.  1.
         21   -1    0    0  501  503 -0.00000000000E+00 -0.00000000000E+00 -0.11754152819E+03  0.11754152819E+03  0.00000000000E+00 0. -1.
         24    1    1    2    0    0 -0.16661082101E+02  0.16793314403E+02 -0.15969466025E+01  0.83841357684E+02  0.80419002446E+02 0.  1.
          1    1    1    2  501    0  0.22346541370E+02  0.19806323764E+02 -0.67236146058E+02  0.73568727793E+02  0.00000000000E+00 0. -1.
         -2    1    1    2    0  502 -0.56854592689E+01 -0.36599638167E+02  0.73174905786E+02  0.82014784020E+02  0.00000000000E+00 0.  1.
<mgrwt>
<rscale>  2 0.75362699E+02</rscale>
<asrwt>0</asrwt>
<pdfrwt beam="1">  1       21 0.18751283E-01 0.75362699E+02</pdfrwt>
<pdfrwt beam="2">  1       21 0.18083312E-01 0.75362699E+02</pdfrwt>
<totfact> 0.72449929E+05</totfact>
</mgrwt>
</event>
<event>
 5    1  0.1595802E+000  0.2361784E+03  0.7546771E-02  0.1122365E+00
         21   -1    0    0  503  502  0.00000000000E+00  0.00000000000E+00  0.52537289317E+03  0.52537289317E+03  0.00000000000E+00 0.  1.
         21   -1    0    0  501  503 -0.00000000000E+00 -0.00000000000E+00 -0.14714923567E+03  0.14714923567E+03  0.00000000000E+00 0.  1.
         24    1    1    2    0    0 -0.22083168579E+03  0.61292487076E+02  0.27335199369E+03  0.36566642015E+03  0.80419002446E+02 0.  1.
          1    1    1    2  501    0  0.19128111875E+02 -0.87972589828E+01 -0.45309215989E+02  0.49962000391E+02  0.00000000000E+00 0. -1.
         -2    1    1    2    0  502  0.20170357391E+03 -0.52495228093E+02  0.15018087980E+03  0.25689370829E+03  0.00000000000E+00 0.  1.
<mgrwt>
<rscale>  2 0.23617841E+03</rscale>
<asrwt>0</asrwt>
<pdfrwt beam="1">  1       21 0.80826598E-01 0.23617841E+03</pdfrwt>
<pdfrwt beam="2">  1       21 0.22638344E-01 0.23617841E+03</pdfrwt>
<totfact> 0.23993404E+04</totfact>
</mgrwt>
</event>
<event>
 5    1  0.1595802E+000  0.9557643E+02  0.7546771E-02  0.1289883E+00
         21   -1    0    0  501  502  0.00000000000E+00  0.00000000000E+00  0.22408400186E+03  0.22408400186E+03  0.00000000000E+00 0. -1.
         21   -1    0    0  502  503 -0.00000000000E+00 -0.00000000000E+00 -0.91489652241E+02  0.91489652241E+02  0.00000000000E+00 0.  1.
         24    1    1    2    0    0 -0.55081325983E+02  0.17528829260E+02  0.56243747472E+02  0.11389375493E+03  0.80419002446E+02 0.  1.
          1    1    1    2  501    0 -0.27566160479E+01  0.21927992725E+02  0.11810831946E+03  0.12015827446E+03  0.00000000000E+00 0. -1.
         -2    1    1    2    0  503  0.57837942031E+02 -0.39456821985E+02 -0.41757717314E+02  0.81521624706E+02  0.00000000000E+00 0.  1.
<mgrwt>
<rscale>  2 0.95576433E+02</rscale>
<asrwt>0</asrwt>
<pdfrwt beam="1">  1       21 0.34474462E-01 0.95576433E+02</pdfrwt>
<pdfrwt beam="2">  1       21 0.14075331E-01 0.95576433E+02</pdfrwt>
<totfact> 0.36282674E+05</totfact>
</mgrwt>
</event>
<event>
 5    1  0.1595802E+000  0.8028260E+02  0.7546771E-02  0.1328251E+00
         21   -1    0    0  501  502  0.00000000000E+00  0.00000000000E+00  0.20604269043E+03  0.20604269043E+03  0.00000000000E+00 0. -1.
         21   -1    0    0  502  503 -0.00000000000E+00 -0.00000000000E+00 -0.44545507783E+02  0.44545507783E+02  0.00000000000E+00 0. -1.
         24    1    1    2    0    0  0.52166853029E+02 -0.16696404108E+02  0.97636857666E+02  0.13784165696E+03  0.80419002446E+02 0. -1.
          1    1    1    2  501    0 -0.18441895573E+02  0.22449012416E+02  0.71947260015E+02  0.77591687019E+02  0.00000000000E+00 0. -1.
         -2    1    1    2    0  503 -0.33724957455E+02 -0.57526083082E+01 -0.80869350335E+01  0.35154854230E+02  0.00000000000E+00 0.  1.
<mgrwt>
<rscale>  2 0.80282598E+02</rscale>
<asrwt>0</asrwt>
<pdfrwt beam="1">  1       21 0.31698875E-01 0.80282598E+02</pdfrwt>
<pdfrwt beam="2">  1       21 0.68531551E-02 0.80282598E+02</pdfrwt>
<totfact> 0.14793513E+06</totfact>
</mgrwt>
</event>
<event>
 5    1  0.1595802E+000  0.7463233E+02  0.7546771E-02  0.1345013E+00
         21   -1    0    0  501  502  0.00000000000E+00  0.00000000000E+00  0.13229998301E+03  0.13229998301E+03  0.00000000000E+00 0.  1.
         21   -1    0    0  502  503 -0.00000000000E+00 -0.00000000000E+00 -0.58566536673E+02  0.58566536673E+02  0.00000000000E+00 0. -1.
         24    1    1    2    0    0 -0.21864963003E+02 -0.11885142659E+02  0.81107678149E+02  0.11689741072E+03  0.80419002446E+02 0.  1.
          1    1    1    2  501    0 -0.12987356398E+02  0.24735020941E+02  0.13855813374E+02  0.31184551486E+02  0.00000000000E+00 0. -1.
         -2    1    1    2    0  503  0.34852319402E+02 -0.12849878282E+02 -0.21230045191E+02  0.42784557475E+02  0.00000000000E+00 0.  1.
<mgrwt>
<rscale>  2 0.74632325E+02</rscale>
<asrwt>0</asrwt>
<pdfrwt beam="1">  1       21 0.20353843E-01 0.74632325E+02</pdfrwt>
<pdfrwt beam="2">  1       21 0.90102364E-02 0.74632325E+02</pdfrwt>
<totfact> 0.21189418E+06</totfact>
</mgrwt>
</event>
<event>
 5    1  0.1595802E+000  0.7309611E+02  0.7546771E-02  0.1349870E+00
         21   -1    0    0  501  502  0.00000000000E+00  0.00000000000E+00  0.20813417060E+02  0.20813417060E+02  0.00000000000E+00 0. -1.
         21   -1    0    0  502  503 -0.00000000000E+00 -0.00000000000E+00 -0.26084080392E+03  0.26084080392E+03  0.00000000000E+00 0. -1.
         24    1    1    2    0    0 -0.65874626321E+01  0.21115887697E+02 -0.12418831300E+03  0.14959688639E+03  0.80419002446E+02 0.  0.
          1    1    1    2  501    0  0.31450650777E+02 -0.21190479407E+02 -0.60716377806E+02  0.71586719339E+02  0.00000000000E+00 0. -1.
         -2    1    1    2    0  503 -0.24863188145E+02  0.74591709625E-01 -0.55122696051E+02  0.60470615249E+02  0.00000000000E+00 0.  1.
<mgrwt>
<rscale>  2 0.73096113E+02</rscale>
<asrwt>0</asrwt>
<pdfrwt beam="1">  1       21 0.32020643E-02 0.73096113E+02</pdfrwt>
<pdfrwt beam="2">  1       21 0.40129353E-01 0.73096113E+02</pdfrwt>
<totfact> 0.32775040E+06</totfact>
</mgrwt>
</event>
<event>
 5    1  0.1595802E+000  0.7418999E+02  0.7546771E-02  0.1346398E+00
         21   -1    0    0  503  502  0.00000000000E+00  0.00000000000E+00  0.53573514255E+02  0.53573514255E+02  0.00000000000E+00 0.  1.
         21   -1    0    0  501  503 -0.00000000000E+00 -0.00000000000E+00 -0.20020710663E+03  0.20020710663E+03  0.00000000000E+00 0. -1.
         24    1    1    2    0    0  0.82268802091E+01 -0.37777050855E+01  0.34109565286E+01  0.80998785130E+02  0.80419002446E+02 0.  1.
          1    1    1    2  501    0  0.29513199585E+02  0.34254430750E+01 -0.12251602012E+03  0.12606719556E+03  0.00000000000E+00 0. -1.
         -2    1    1    2    0  502 -0.37740079794E+02  0.35226201046E+00 -0.27528528776E+02  0.46714640189E+02  0.00000000000E+00 0.  1.
<mgrwt>
<rscale>  2 0.74189989E+02</rscale>
<asrwt>0</asrwt>
<pdfrwt beam="1">  1       21 0.82420791E-02 0.74189989E+02</pdfrwt>
<pdfrwt beam="2">  1       21 0.30801094E-01 0.74189989E+02</pdfrwt>
<totfact> 0.11404060E+06</totfact>
</mgrwt>
</event>
<event>
 5    1  0.1595802E+000  0.8221860E+02  0.7546771E-02  0.1322871E+00
         21   -1    0    0  501  502  0.00000000000E+00  0.00000000000E+00  0.75936439983E+02  0.75936439983E+02  0.00000000000E+00 0.  1.
         21   -1    0    0  502  503 -0.00000000000E+00 -0.00000000000E+00 -0.11959894975E+03  0.11959894975E+03  0.00000000000E+00 0. -1.
         24    1    1    2    0    0 -0.42177454568E+02 -0.13269211482E+02  0.24452186500E+02  0.94974391423E+02  0.80419002446E+02 0.  1.
          1    1    1    2  501    0  0.37062537677E+02  0.34615753844E+02 -0.38369437177E+02  0.63593205789E+02  0.00000000000E+00 0. -1.
         -2    1    1    2    0  503  0.51149168914E+01 -0.21346542362E+02 -0.29745259092E+02  0.36967792523E+02  0.00000000000E+00 0.  1.
<mgrwt>
<rscale>  2 0.82218601E+02</rscale>
<asrwt>0</asrwt>
<pdfrwt beam="1">  1       21 0.11682529E-01 0.82218601E+02</pdfrwt>
<pdfrwt beam="2">  1       21 0.18399839E-01 0.82218601E+02</pdfrwt>
<totfact> 0.16311694E+06</totfact>
</mgrwt>
</event>
<event>
 5    1  0.1595802E+000  0.1022179E+03  0.7546771E-02  0.1275700E+00
         21   -1    0    0  503  502  0.00000000000E+00  0.00000000000E+00  0.23601692986E+03  0.23601692986E+03  0.00000000000E+00 0.  1.
         21   -1    0    0  501  503 -0.00000000000E+00 -0.00000000000E+00 -0.48136883983E+02  0.48136883983E+02  0.00000000000E+00 0. -1.
         24    1    1    2    0    0 -0.24396973782E+02 -0.65877123400E+02  0.88708715867E+02  0.13882168398E+03  0.80419002446E+02 0. -1.
          1    1    1    2  501    0 -0.10175692065E+02  0.62040752736E+02  0.34038909845E+02  0.71492986317E+02  0.00000000000E+00 0. -1.
         -2    1    1    2    0  502  0.34572665847E+02  0.38363706637E+01  0.65132420168E+02  0.73839143553E+02  0.00000000000E+00 0.  1.
<mgrwt>
<rscale>  2 0.10221788E+03</rscale>
<asrwt>0</asrwt>
<pdfrwt beam="1">  1       21 0.36310296E-01 0.10221788E+03</pdfrwt>
<pdfrwt beam="2">  1       21 0.74056746E-02 0.10221788E+03</pdfrwt>
<totfact> 0.10025980E+06</totfact>
</mgrwt>
</event>
<event>
 5    1  0.1595802E+000  0.7720525E+02  0.7546771E-02  0.1337175E+00
         21   -1    0    0  503  502  0.00000000000E+00  0.00000000000E+00  0.11526668981E+03  0.11526668981E+03  0.00000000000E+00 0. -1.
         21   -1    0    0  501  503 -0.00000000000E+00 -0.00000000000E+00 -0.10727056866E+03  0.10727056866E+03  0.00000000000E+00 0. -1.
         24    1    1    2    0    0 -0.50547188628E+02  0.89381567359E+00  0.38608801012E+02  0.10253620168E+03  0.80419002446E+02 0. -1.
          1    1    1    2  501    0  0.24116332638E+02 -0.16034673321E+02 -0.66736230747E+02  0.72749108192E+02  0.00000000000E+00 0. -1.
         -2    1    1    2    0  502  0.26430855991E+02  0.15140857647E+02  0.36123550879E+02  0.47251948603E+02  0.00000000000E+00 0.  1.
<mgrwt>
<rscale>  2 0.77205252E+02</rscale>
<asrwt>0</asrwt>
<pdfrwt beam="1">  1       21 0.17733337E-01 0.77205252E+02</pdfrwt>
<pdfrwt beam="2">  1       21 0.16503164E-01 0.77205252E+02</pdfrwt>
<totfact> 0.94485451E+05</totfact>
</mgrwt>
</event>
<event>
 5    1  0.1595802E+000  0.8615937E+02  0.7546771E-02  0.1312428E+00
         21   -1    0    0  501  502  0.00000000000E+00  0.00000000000E+00  0.37737385883E+02  0.37737385883E+02  0.00000000000E+00 0.  1.
         21   -1    0    0  502  503 -0.00000000000E+00 -0.00000000000E+00 -0.19849146439E+03  0.19849146439E+03  0.00000000000E+00 0.  1.
         24    1    1    2    0    0  0.13147363476E+02  0.59301322572E+02 -0.10491406677E+03  0.14547741194E+03  0.80419002446E+02 0.  1.
          1    1    1    2  501    0 -0.24000190184E+02 -0.21541654375E+02 -0.25191660879E+02  0.40922753817E+02  0.00000000000E+00 0. -1.
         -2    1    1    2    0  503  0.10852826708E+02 -0.37759668197E+02 -0.30648350859E+02  0.49828684513E+02  0.00000000000E+00 0.  1.
<mgrwt>
<rscale>  2 0.86159373E+02</rscale>
<asrwt>0</asrwt>
<pdfrwt beam="1">  1       21 0.58057518E-02 0.86159373E+02</pdfrwt>
<pdfrwt beam="2">  1       21 0.30537148E-01 0.86159373E+02</pdfrwt>
<totfact> 0.21053734E+06</totfact>
</mgrwt>
</event>
<event>
 5    1  0.1595802E+000  0.7663094E+02  0.7546771E-02  0.1338894E+00
         21   -1    0    0  503  502  0.00000000000E+00  0.00000000000E+00  0.22364152267E+02  0.22364152267E+02  0.00000000000E+00 0.  1.
         21   -1    0    0  501  503 -0.00000000000E+00 -0.00000000000E+00 -0.39502435949E+03  0.39502435949E+03  0.00000000000E+00 0.  1.
         24    1    1    2    0    0 -0.11116300763E+01 -0.46237435385E+02 -0.27576934414E+03  0.29095546613E+03  0.80419002446E+02 0.  1.
          1    1    1    2  501    0 -0.18904193443E+02  0.20477847338E+02 -0.88449990024E+02  0.92736786102E+02  0.00000000000E+00 0. -1.
         -2    1    1    2    0  502  0.20015823519E+02  0.25759588046E+02 -0.84408730579E+01  0.33696259517E+02  0.00000000000E+00 0.  1.
<mgrwt>
<rscale>  2 0.76630938E+02</rscale>
<asrwt>0</asrwt>
<pdfrwt beam="1">  1       21 0.34406387E-02 0.76630938E+02</pdfrwt>
<pdfrwt beam="2">  1       21 0.60772981E-01 0.76630938E+02</pdfrwt>
<totfact> 0.12594356E+06</totfact>
</mgrwt>
</event>
<event>
 5    1  0.1595802E+000  0.1088453E+03  0.7546771E-02  0.1262723E+00
         21   -1    0    0  503  502  0.00000000000E+00  0.00000000000E+00  0.41191367794E+02  0.41191367794E+02  0.00000000000E+00 0.  1.
         21   -1    0    0  501  503 -0.00000000000E+00 -0.00000000000E+00 -0.40944618790E+03  0.40944618790E+03  0.00000000000E+00 0.  1.
         24    1    1    2    0    0 -0.67563446198E+02  0.28512724621E+02 -0.92157169828E+02  0.14261120094E+03  0.80419002446E+02 0.  1.
          1    1    1    2  501    0 -0.11960415623E+00 -0.40175146361E+02 -0.20603453885E+03  0.20991495395E+03  0.00000000000E+00 0. -1.
         -2    1    1    2    0  502  0.67683050355E+02  0.11662421741E+02 -0.70063111418E+02  0.98111400804E+02  0.00000000000E+00 0.  1.
<mgrwt>
<rscale>  2 0.10884529E+03</rscale>
<asrwt>0</asrwt>
<pdfrwt beam="1">  1       21 0.63371338E-02 0.10884529E+03</pdfrwt>
<pdfrwt beam="2">  1       21 0.62991719E-01 0.10884529E+03</pdfrwt>
<totfact> 0.42462447E+05</totfact>
</mgrwt>
</event>
<event>
 5    1  0.1595802E+000  0.1798074E+03  0.7546771E-02  0.1167990E+00
         21   -1    0    0  503  502  0.00000000000E+00  0.00000000000E+00  0.98002771467E+02  0.98002771467E+02  0.00000000000E+00 0.  1.
         21   -1    0    0  501  503 -0.00000000000E+00 -0.00000000000E+00 -0.92161742615E+03  0.92161742615E+03  0.00000000000E+00 0. -1.
         24    1    1    2    0    0 -0.66417599621E+02  0.13279937492E+03 -0.28029143415E+02  0.17117190293E+03  0.80419002446E+02 0.  0.
          1    1    1    2  501    0  0.77018146492E+02 -0.15110441096E+03 -0.80685041072E+03  0.82448282164E+03  0.00000000000E+00 0. -1.
         -2    1    1    2    0  502 -0.10600546871E+02  0.18305036040E+02  0.11264899452E+02  0.23965473041E+02  0.00000000000E+00 0.  1.
<mgrwt>
<rscale>  2 0.17980744E+03</rscale>
<asrwt>0</asrwt>
<pdfrwt beam="1">  1       21 0.15077350E-01 0.17980744E+03</pdfrwt>
<pdfrwt beam="2">  1       21 0.14178729E+00 0.17980744E+03</pdfrwt>
<totfact> 0.13581276E+04</totfact>
</mgrwt>
</event>
<event>
 5    1  0.1595802E+000  0.1116680E+03  0.7546771E-02  0.1257512E+00
         21   -1    0    0  501  502  0.00000000000E+00  0.00000000000E+00  0.62096996278E+02  0.62096996278E+02  0.00000000000E+00 0. -1.
         21   -1    0    0  502  503 -0.00000000000E+00 -0.00000000000E+00 -0.27288526913E+03  0.27288526913E+03  0.00000000000E+00 0. -1.
         24    1    1    2    0    0  0.12920524146E+02 -0.94993488458E+02 -0.16151456748E+03  0.20431562411E+03  0.80419002446E+02 0. -1.
          1    1    1    2  501    0  0.23378922136E+01  0.59799417493E+02  0.93874456162E+01  0.60576894999E+02  0.00000000000E+00 0. -1.
         -2    1    1    2    0  503 -0.15258416360E+02  0.35194070965E+02 -0.58661150990E+02  0.70089746300E+02  0.00000000000E+00 0.  1.
<mgrwt>
<rscale>  2 0.11166804E+03</rscale>
<asrwt>0</asrwt>
<pdfrwt beam="1">  1       21 0.95533841E-02 0.11166804E+03</pdfrwt>
<pdfrwt beam="2">  1       21 0.41982349E-01 0.11166804E+03</pdfrwt>
<totfact> 0.48524782E+05</totfact>
</mgrwt>
</event>
<event>
 5    1  0.1595802E+000  0.9798121E+02  0.7546771E-02  0.1284599E+00
         21   -1    0    0  503  502  0.00000000000E+00  0.00000000000E+00  0.62021998387E+03  0.62021998387E+03  0.00000000000E+00 0. -1.
         21   -1    0    0  501  503 -0.00000000000E+00 -0.00000000000E+00 -0.15801898374E+02  0.15801898374E+02  0.00000000000E+00 0.  1.
         24    1    1    2    0    0 -0.49209124060E+02  0.39841704313E+02  0.27515937611E+03  0.29357928658E+03  0.80419002446E+02 0.  1.
          1    1    1    2  501    0  0.41616245985E+02 -0.59457866407E+02  0.23965022765E+03  0.25039844532E+03  0.00000000000E+00 0. -1.
         -2    1    1    2    0  502  0.75928780755E+01  0.19616162094E+02  0.89608481740E+02  0.92044150344E+02  0.00000000000E+00 0.  1.
<mgrwt>
<rscale>  2 0.97981209E+02</rscale>
<asrwt>0</asrwt>
<pdfrwt beam="1">  1       21 0.95418440E-01 0.97981209E+02</pdfrwt>
<pdfrwt beam="2">  1       21 0.24310618E-02 0.97981209E+02</pdfrwt>
<totfact> 0.82667636E+05</totfact>
</mgrwt>
</event>
<event>
 5    1  0.1595802E+000  0.6548173E+02  0.7546771E-02  0.1376169E+00
         21   -1    0    0  503  502  0.00000000000E+00  0.00000000000E+00  0.33801735858E+03  0.33801735858E+03  0.00000000000E+00 0.  1.
         21   -1    0    0  501  503 -0.00000000000E+00 -0.00000000000E+00 -0.13832491379E+02  0.13832491379E+02  0.00000000000E+00 0.  1.
         24    1    1    2    0    0 -0.41643514542E+01  0.50814693421E+01  0.17778400323E+03  0.19523711459E+03  0.80419002446E+02 0.  1.
          1    1    1    2  501    0  0.27076409471E+02 -0.36284628421E+01  0.44981137207E+02  0.52626993044E+02  0.00000000000E+00 0. -1.
         -2    1    1    2    0  502 -0.22912058016E+02 -0.14530065000E+01  0.10141972676E+03  0.10398574232E+03  0.00000000000E+00 0.  1.
<mgrwt>
<rscale>  2 0.65481727E+02</rscale>
<asrwt>0</asrwt>
<pdfrwt beam="1">  1       21 0.52002664E-01 0.65481727E+02</pdfrwt>
<pdfrwt beam="2">  1       21 0.21280759E-02 0.65481727E+02</pdfrwt>
<totfact> 0.37352987E+06</totfact>
</mgrwt>
</event>
<event>
 5    1  0.1595802E+000  0.7727334E+02  0.7546771E-02  0.1336972E+00
         21   -1    0    0  503  502  0.00000000000E+00  0.00000000000E+00  0.36548841626E+02  0.36548841626E+02  0.00000000000E+00 0.  1.
         21   -1    0    0  501  503 -0.00000000000E+00 -0.00000000000E+00 -0.35124520712E+03  0.35124520712E+03  0.00000000000E+00 0.  1.
         24    1    1    2    0    0  0.50236641703E+02 -0.84073340689E+01 -0.18744710951E+03  0.21023329483E+03  0.80419002446E+02 0.  1.
          1    1    1    2  501    0 -0.20286440569E+02 -0.11568800361E+02 -0.13802115286E+03  0.13998291128E+03  0.00000000000E+00 0. -1.
         -2    1    1    2    0  502 -0.29950201134E+02  0.19976134430E+02  0.10771896883E+02  0.37577842637E+02  0.00000000000E+00 0.  1.
<mgrwt>
<rscale>  2 0.77273341E+02</rscale>
<asrwt>0</asrwt>
<pdfrwt beam="1">  1       21 0.56228991E-02 0.77273341E+02</pdfrwt>
<pdfrwt beam="2">  1       21 0.54037720E-01 0.77273341E+02</pdfrwt>
<totfact> 0.71577858E+05</totfact>
</mgrwt>
</event>
<event>
 5    1  0.1595802E+000  0.1287769E+03  0.7546771E-02  0.1229282E+00
         21   -1    0    0  501  502  0.00000000000E+00  0.00000000000E+00  0.23641282878E+03  0.23641282878E+03  0.00000000000E+00 0. -1.
         21   -1    0    0  502  503 -0.00000000000E+00 -0.00000000000E+00 -0.18417076538E+03  0.18417076538E+03  0.00000000000E+00 0.  1.
         24    1    1    2    0    0  0.80120837571E+02  0.19963923738E+02 -0.13809201489E+02  0.11608538609E+03  0.80419002446E+02 0.  1.
          1    1    1    2  501    0 -0.83747854031E+02 -0.59409961695E+02  0.16700796014E+03  0.19604822201E+03  0.00000000000E+00 0. -1.
         -2    1    1    2    0  503  0.36270164606E+01  0.39446037958E+02 -0.10095669525E+03  0.10844998605E+03  0.00000000000E+00 0.  1.
<mgrwt>
<rscale>  2 0.12877693E+03</rscale>
<asrwt>0</asrwt>
<pdfrwt beam="1">  1       21 0.36371205E-01 0.12877693E+03</pdfrwt>
<pdfrwt beam="2">  1       21 0.28333964E-01 0.12877693E+03</pdfrwt>
<totfact> 0.89076534E+04</totfact>
</mgrwt>
</event>
<event>
 5    1  0.1595802E+000  0.1273804E+03  0.7546771E-02  0.1231395E+00
         21   -1    0    0  501  502  0.00000000000E+00  0.00000000000E+00  0.93055446603E+02  0.93055446603E+02  0.00000000000E+00 0. -1.
         21   -1    0    0  502  503 -0.00000000000E+00 -0.00000000000E+00 -0.20651457544E+03  0.20651457544E+03  0.00000000000E+00 0.  1.
         24    1    1    2    0    0  0.40158857737E+02  0.86550312106E+02 -0.11445647720E+03  0.16932569653E+03  0.80419002446E+02 0.  1.
          1    1    1    2  501    0 -0.13168558097E+02 -0.99270219224E+02  0.42509495808E+01  0.10023002504E+03  0.00000000000E+00 0. -1.
         -2    1    1    2    0  503 -0.26990299640E+02  0.12719907119E+02 -0.32536012235E+01  0.30014300470E+02  0.00000000000E+00 0.  1.
<mgrwt>
<rscale>  2 0.12738035E+03</rscale>
<asrwt>0</asrwt>
<pdfrwt beam="1">  1       21 0.14316223E-01 0.12738035E+03</pdfrwt>
<pdfrwt beam="2">  1       21 0.31771473E-01 0.12738035E+03</pdfrwt>
<totfact> 0.41092854E+05</totfact>
</mgrwt>
</event>
<event>
 5    1  0.1595802E+000  0.9012709E+02  0.7546771E-02  0.1302544E+00
         21   -1    0    0  503  502  0.00000000000E+00  0.00000000000E+00  0.60264436207E+03  0.60264436207E+03  0.00000000000E+00 0.  1.
         21   -1    0    0  501  503 -0.00000000000E+00 -0.00000000000E+00 -0.29946595303E+02  0.29946595303E+02  0.00000000000E+00 0. -1.
         24    1    1    2    0    0 -0.30199605433E+02 -0.56634126740E+01  0.24597433173E+03  0.26060444784E+03  0.80419002446E+02 0.  1.
          1    1    1    2  501    0 -0.10987052233E+02  0.39413769804E+02 -0.36275414773E-01  0.40916523347E+02  0.00000000000E+00 0. -1.
         -2    1    1    2    0  502  0.41186657666E+02 -0.33750357129E+02  0.32675971046E+03  0.33106998619E+03  0.00000000000E+00 0.  1.
<mgrwt>
<rscale>  2 0.90127091E+02</rscale>
<asrwt>0</asrwt>
<pdfrwt beam="1">  1       21 0.92714509E-01 0.90127091E+02</pdfrwt>
<pdfrwt beam="2">  1       21 0.46071689E-02 0.90127091E+02</pdfrwt>
<totfact> 0.31059614E+05</totfact>
</mgrwt>
</event>
<event>
 5    1  0.1595802E+000  0.6919352E+02  0.7546771E-02  0.1362857E+00
         21   -1    0    0  503  502  0.00000000000E+00  0.00000000000E+00  0.11048310848E+03  0.11048310848E+03  0.00000000000E+00 0. -1.
         21   -1    0    0  501  503 -0.00000000000E+00 -0.00000000000E+00 -0.90699512682E+02  0.90699512682E+02  0.00000000000E+00 0. -1.
         24    1    1    2    0    0 -0.99844566923E+01  0.17759020006E+02  0.71298849316E+02  0.10938836334E+03  0.80419002446E+02 0. -1.
          1    1    1    2  501    0 -0.13029714702E+02 -0.27504695502E+02 -0.58413893598E+02  0.65867022896E+02  0.00000000000E+00 0. -1.
         -2    1    1    2    0  502  0.23014171395E+02  0.97456754955E+01  0.68986400838E+01  0.25927234925E+02  0.00000000000E+00 0.  1.
<mgrwt>
<rscale>  2 0.69193519E+02</rscale>
<asrwt>0</asrwt>
<pdfrwt beam="1">  1       21 0.16997401E-01 0.69193519E+02</pdfrwt>
<pdfrwt beam="2">  1       21 0.13953771E-01 0.69193519E+02</pdfrwt>
<totfact> 0.13687677E+06</totfact>
</mgrwt>
</event>
<event>
 5    1  0.1595802E+000  0.1021797E+03  0.7546771E-02  0.1275778E+00
         21   -1    0    0  503  502  0.00000000000E+00  0.00000000000E+00  0.38926836665E+03  0.38926836665E+03  0.00000000000E+00 0. -1.
         21   -1    0    0  501  503 -0.00000000000E+00 -0.00000000000E+00 -0.37521958768E+02  0.37521958768E+02  0.00000000000E+00 0. -1.
         24    1    1    2    0    0 -0.64898299829E+01 -0.85098528624E+02  0.81751478419E+02  0.14294893370E+03  0.80419002446E+02 0. -1.
          1    1    1    2  501    0  0.12509023327E+02  0.56079817932E+02  0.19167312653E+03  0.20009999769E+03  0.00000000000E+00 0. -1.
         -2    1    1    2    0  502 -0.60191933442E+01  0.29018710692E+02  0.78321802932E+02  0.83741394025E+02  0.00000000000E+00 0.  1.
<mgrwt>
<rscale>  2 0.10217973E+03</rscale>
<asrwt>0</asrwt>
<pdfrwt beam="1">  1       21 0.59887438E-01 0.10217973E+03</pdfrwt>
<pdfrwt beam="2">  1       21 0.57726093E-02 0.10217973E+03</pdfrwt>
<totfact> 0.55351963E+05</totfact>
</mgrwt>
</event>
<event>
 5    1  0.1595802E+000  0.1241616E+03  0.7546771E-02  0.1236385E+00
         21   -1    0    0  503  502  0.00000000000E+00  0.00000000000E+00  0.10220575488E+03  0.10220575488E+03  0.00000000000E+00 0.  1.
         21   -1    0    0  501  503 -0.00000000000E+00 -0.00000000000E+00 -0.16617880649E+03  0.16617880649E+03  0.00000000000E+00 0.  1.
         24    1    1    2    0    0  0.41676754807E+02  0.89999926599E+02 -0.36820698600E+02  0.13289062600E+03  0.80419002446E+02 0.  1.
          1    1    1    2  501    0 -0.48345537442E+02 -0.23414924989E+02 -0.40479376913E+02  0.67261650723E+02  0.00000000000E+00 0. -1.
         -2    1    1    2    0  502  0.66687826341E+01 -0.66585001611E+02  0.13327023904E+02  0.68232284642E+02  0.00000000000E+00 0.  1.
<mgrwt>
<rscale>  2 0.12416158E+03</rscale>
<asrwt>0</asrwt>
<pdfrwt beam="1">  1       21 0.15723962E-01 0.12416158E+03</pdfrwt>
<pdfrwt beam="2">  1       21 0.25565970E-01 0.12416158E+03</pdfrwt>
<totfact> 0.52644130E+05</totfact>
</mgrwt>
</event>
<event>
 5    1  0.1595802E+000  0.8025483E+02  0.7546771E-02  0.1328330E+00
         21   -1    0    0  501  502  0.00000000000E+00  0.00000000000E+00  0.17518464157E+03  0.17518464157E+03  0.00000000000E+00 0. -1.
         21   -1    0    0  502  503 -0.00000000000E+00 -0.00000000000E+00 -0.44571598160E+02  0.44571598160E+02  0.00000000000E+00 0. -1.
         24    1    1    2    0    0 -0.51432190409E+02 -0.31102681714E+02  0.56169375203E+02  0.11504286890E+03  0.80419002446E+02 0. -1.
          1    1    1    2  501    0  0.33776246279E+02  0.20888873790E+02  0.74377305652E+02  0.84315855312E+02  0.00000000000E+00 0. -1.
         -2    1    1    2    0  503  0.17655944130E+02  0.10213807924E+02  0.66362558724E-01  0.20397515521E+02  0.00000000000E+00 0.  1.
<mgrwt>
<rscale>  2 0.80254826E+02</rscale>
<asrwt>0</asrwt>
<pdfrwt beam="1">  1       21 0.26951483E-01 0.80254826E+02</pdfrwt>
<pdfrwt beam="2">  1       21 0.68571690E-02 0.80254826E+02</pdfrwt>
<totfact> 0.20106407E+06</totfact>
</mgrwt>
</event>
<event>
 5    1  0.1595802E+000  0.6166272E+02  0.7546771E-02  0.1390984E+00
         21   -1    0    0  501  502  0.00000000000E+00  0.00000000000E+00  0.11824111428E+03  0.11824111428E+03  0.00000000000E+00 0. -1.
         21   -1    0    0  502  503 -0.00000000000E+00 -0.00000000000E+00 -0.95897471344E+02  0.95897471344E+02  0.00000000000E+00 0. -1.
         24    1    1    2    0    0  0.24949169204E+00  0.44952989676E+00 -0.46459835154E+02  0.92876243249E+02  0.80419002446E+02 0. -1.
          1    1    1    2  501    0  0.16060863586E+02 -0.14301993161E+02  0.89166338613E+02  0.91723139334E+02  0.00000000000E+00 0. -1.
         -2    1    1    2    0  503 -0.16310355278E+02  0.13852463264E+02 -0.20362860522E+02  0.29539203043E+02  0.00000000000E+00 0.  1.
<mgrwt>
<rscale>  2 0.61662725E+02</rscale>
<asrwt>0</asrwt>
<pdfrwt beam="1">  1       21 0.18190941E-01 0.61662725E+02</pdfrwt>
<pdfrwt beam="2">  1       21 0.14753457E-01 0.61662725E+02</pdfrwt>
<totfact> 0.10940616E+06</totfact>
</mgrwt>
</event>
<event>
 5    1  0.1595802E+000  0.7013985E+02  0.7546771E-02  0.1359618E+00
         21   -1    0    0  501  502  0.00000000000E+00  0.00000000000E+00  0.29362782422E+03  0.29362782422E+03  0.00000000000E+00 0. -1.
         21   -1    0    0  502  503 -0.00000000000E+00 -0.00000000000E+00 -0.14515506691E+03  0.14515506691E+03  0.00000000000E+00 0.  1.
         24    1    1    2    0    0 -0.31516725830E+02 -0.32341403646E+02  0.30265536960E+02  0.97069506431E+02  0.80419002446E+02 0.  0.
          1    1    1    2  501    0  0.11087512784E+02  0.23107706811E+02  0.22811097449E+03  0.22954632590E+03  0.00000000000E+00 0. -1.
         -2    1    1    2    0  503  0.20429213045E+02  0.92336968348E+01 -0.10990375414E+03  0.11216705879E+03  0.00000000000E+00 0.  1.
<mgrwt>
<rscale>  2 0.70139855E+02</rscale>
<asrwt>0</asrwt>
<pdfrwt beam="1">  1       21 0.45173512E-01 0.70139855E+02</pdfrwt>
<pdfrwt beam="2">  1       21 0.22331549E-01 0.70139855E+02</pdfrwt>
<totfact> 0.93351654E+04</totfact>
</mgrwt>
</event>
<event>
 5    1  0.2077277E+000  0.7960350E+02  0.7546771E-02  0.1330180E+00
         21   -1    0    0  503  502  0.00000000000E+00  0.00000000000E+00  0.13334214768E+03  0.13334214768E+03  0.00000000000E+00 0.  1.
         21   -1    0    0  501  503 -0.00000000000E+00 -0.00000000000E+00 -0.24386685416E+03  0.24386685416E+03  0.00000000000E+00 0. -1.
         24    1    1    2    0    0 -0.59052207572E+02  0.97472215794E+00  0.97126853937E+02  0.13924422793E+03  0.80419002446E+02 0.  1.
          1    1    1    2  501    0  0.22518563731E+02 -0.35923788178E+01 -0.19903575418E+03  0.20033777063E+03  0.00000000000E+00 0. -1.
         -2    1    1    2    0  502  0.36533643841E+02  0.26176566599E+01 -0.86158062288E+01  0.37627003277E+02  0.00000000000E+00 0.  1.
<mgrwt>
<rscale>  2 0.79603504E+02</rscale>
<asrwt>0</asrwt>
<pdfrwt beam="1">  1       21 0.20514177E-01 0.79603504E+02</pdfrwt>
<pdfrwt beam="2">  1       21 0.37517978E-01 0.79603504E+02</pdfrwt>
<totfact> 0.15663173E+05</totfact>
</mgrwt>
</event>
<event>
 5    1  0.1595802E+000  0.7603911E+02  0.7546771E-02  0.1340683E+00
         21   -1    0    0  501  502  0.00000000000E+00  0.00000000000E+00  0.61578466289E+03  0.61578466289E+03  0.00000000000E+00 0. -1.
         21   -1    0    0  502  503 -0.00000000000E+00 -0.00000000000E+00 -0.72838655278E+02  0.72838655278E+02  0.00000000000E+00 0. -1.
         24    1    1    2    0    0  0.36187363687E+02  0.23494264098E+01 -0.15562252122E+01  0.88230849970E+02  0.80419002446E+02 0. -1.
          1    1    1    2  501    0 -0.22663866953E+02 -0.27299811752E+02  0.56453861855E+03  0.56565252799E+03  0.00000000000E+00 0. -1.
         -2    1    1    2    0  503 -0.13523496734E+02  0.24950385342E+02 -0.20036385726E+02  0.34739940208E+02  0.00000000000E+00 0.  1.
<mgrwt>
<rscale>  2 0.76039112E+02</rscale>
<asrwt>0</asrwt>
<pdfrwt beam="1">  1       21 0.94736099E-01 0.76039112E+02</pdfrwt>
<pdfrwt beam="2">  1       21 0.11205947E-01 0.76039112E+02</pdfrwt>
<totfact> 0.66031333E+04</totfact>
</mgrwt>
</event>
<event>
 5    1  0.1595802E+000  0.1701558E+03  0.7546771E-02  0.1177685E+00
         21   -1    0    0  503  502  0.00000000000E+00  0.00000000000E+00  0.24155854356E+03  0.24155854356E+03  0.00000000000E+00 0.  1.
         21   -1    0    0  501  503 -0.00000000000E+00 -0.00000000000E+00 -0.12461655828E+03  0.12461655828E+03  0.00000000000E+00 0.  1.
         24    1    1    2    0    0  0.83894349489E+02  0.12027223353E+03  0.73697834430E+02  0.18276284849E+03  0.80419002446E+02 0.  1.
          1    1    1    2  501    0 -0.18468306454E+02  0.14349941614E+02 -0.87335901013E+01  0.24965471428E+02  0.00000000000E+00 0. -1.
         -2    1    1    2    0  502 -0.65426043035E+02 -0.13462217514E+03  0.51977740948E+02  0.15844678192E+03  0.00000000000E+00 0.  1.
<mgrwt>
<rscale>  2 0.17015583E+03</rscale>
<asrwt>0</asrwt>
<pdfrwt beam="1">  1       21 0.37162853E-01 0.17015583E+03</pdfrwt>
<pdfrwt beam="2">  1       21 0.19171778E-01 0.17015583E+03</pdfrwt>
<totfact> 0.17562752E+05</totfact>
</mgrwt>
</event>
<event>
 5    1  0.1595802E+000  0.7231095E+02  0.7546771E-02  0.1352406E+00
         21   -1    0    0  503  502  0.00000000000E+00  0.00000000000E+00  0.48036864469E+03  0.48036864469E+03  0.00000000000E+00 0.  1.
         21   -1    0    0  501  503 -0.00000000000E+00 -0.00000000000E+00 -0.10963496701E+02  0.10963496701E+02  0.00000000000E+00 0.  1.
         24    1    1    2    0    0  0.27213107311E+02  0.96662113924E+01  0.25718686786E+03  0.27100975961E+03  0.80419002446E+02 0.  1.
          1    1    1    2  501    0 -0.77294075579E+01 -0.30019786254E+02  0.10759332249E+03  0.11196988145E+03  0.00000000000E+00 0. -1.
         -2    1    1    2    0  502 -0.19483699753E+02  0.20353574861E+02  0.10462495764E+03  0.10835250033E+03  0.00000000000E+00 0.  1.
<mgrwt>
<rscale>  2 0.72310951E+02</rscale>
<asrwt>0</asrwt>
<pdfrwt beam="1">  1       21 0.73902852E-01 0.72310951E+02</pdfrwt>
<pdfrwt beam="2">  1       21 0.16866922E-02 0.72310951E+02</pdfrwt>
<totfact> 0.25995761E+06</totfact>
</mgrwt>
</event>
<event>
 5    1  0.1595802E+000  0.9246707E+02  0.7546771E-02  0.1296985E+00
         21   -1    0    0  503  502  0.00000000000E+00  0.00000000000E+00  0.17902970603E+04  0.17902970603E+04  0.00000000000E+00 0.  1.
         21   -1    0    0  501  503 -0.00000000000E+00 -0.00000000000E+00 -0.69307556368E+01  0.69307556368E+01  0.00000000000E+00 0. -1.
         24    1    1    2    0    0  0.22420986226E+02  0.64100688983E+02  0.66237660584E+03  0.67068739579E+03  0.80419002446E+02 0.  1.
          1    1    1    2  501    0  0.10983107041E+01 -0.54116136156E+02  0.28119427399E+03  0.28635639019E+03  0.00000000000E+00 0. -1.
         -2    1    1    2    0  502 -0.23519296930E+02 -0.99845528267E+01  0.83979542482E+03  0.84018402994E+03  0.00000000000E+00 0.  1.
<mgrwt>
<rscale>  2 0.92467066E+02</rscale>
<asrwt>0</asrwt>
<pdfrwt beam="1">  1       21 0.27542995E+00 0.92467066E+02</pdfrwt>
<pdfrwt beam="2">  1       21 0.10662715E-02 0.92467066E+02</pdfrwt>
<totfact> 0.17497172E+05</totfact>
</mgrwt>
</event>
<event>
 5    1  0.1595802E+000  0.9741435E+02  0.7546771E-02  0.1285829E+00
         21   -1    0    0  501  502  0.00000000000E+00  0.00000000000E+00  0.47888236498E+03  0.47888236498E+03  0.00000000000E+00 0. -1.
         21   -1    0    0  502  503 -0.00000000000E+00 -0.00000000000E+00 -0.37955254602E+02  0.37955254602E+02  0.00000000000E+00 0. -1.
         24    1    1    2    0    0  0.65547044990E+02  0.33889092078E+02  0.92236182777E+02  0.14289721843E+03  0.80419002446E+02 0. -1.
          1    1    1    2  501    0 -0.38866637263E+02  0.42961189194E+01  0.31253717269E+03  0.31497389803E+03  0.00000000000E+00 0. -1.
         -2    1    1    2    0  503 -0.26680407727E+02 -0.38185210998E+02  0.36153754916E+02  0.58966503118E+02  0.00000000000E+00 0.  1.
<mgrwt>
<rscale>  2 0.97414349E+02</rscale>
<asrwt>0</asrwt>
<pdfrwt beam="1">  1       21 0.73674205E-01 0.97414349E+02</pdfrwt>
<pdfrwt beam="2">  1       21 0.58392703E-02 0.97414349E+02</pdfrwt>
<totfact> 0.34834488E+05</totfact>
</mgrwt>
</event>
<event>
 5    1  0.1595802E+000  0.7454774E+02  0.7546771E-02  0.1345277E+00
         21   -1    0    0  503  502  0.00000000000E+00  0.00000000000E+00  0.49108949547E+03  0.49108949547E+03  0.00000000000E+00 0. -1.
         21   -1    0    0  501  503 -0.00000000000E+00 -0.00000000000E+00 -0.12914580197E+02  0.12914580197E+02  0.00000000000E+00 0.  1.
         24    1    1    2    0    0 -0.11886199546E+02  0.10302628062E+02  0.32054209558E+03  0.33085023330E+03  0.80419002446E+02 0. -1.
          1    1    1    2  501    0  0.24568656712E+01  0.27796013453E+02  0.37303767849E+02  0.46585680725E+02  0.00000000000E+00 0. -1.
         -2    1    1    2    0  502  0.94293338749E+01 -0.38098641515E+02  0.12032905185E+03  0.12656816164E+03  0.00000000000E+00 0.  1.
<mgrwt>
<rscale>  2 0.74547735E+02</rscale>
<asrwt>0</asrwt>
<pdfrwt beam="1">  1       21 0.75552216E-01 0.74547735E+02</pdfrwt>
<pdfrwt beam="2">  1       21 0.19868589E-02 0.74547735E+02</pdfrwt>
<totfact> 0.19137015E+06</totfact>
</mgrwt>
</event>
<event>
 5    1  0.1595802E+000  0.1098983E+03  0.7546771E-02  0.1260758E+00
         21   -1    0    0  501  502  0.00000000000E+00  0.00000000000E+00  0.12253502038E+03  0.12253502038E+03  0.00000000000E+00 0. -1.
         21   -1    0    0  502  503 -0.00000000000E+00 -0.00000000000E+00 -0.86418303655E+03  0.86418303655E+03  0.00000000000E+00 0.  1.
         24    1    1    2    0    0  0.29100173166E+02  0.70636741785E+02 -0.59267857234E+03  0.60296888430E+03  0.80419002446E+02 0.  1.
          1    1    1    2  501    0  0.23001940652E+02 -0.25534632255E+01  0.10924755604E+03  0.11167201059E+03  0.00000000000E+00 0. -1.
         -2    1    1    2    0  503 -0.52102113818E+02 -0.68083278560E+02 -0.25821699987E+03  0.27207716205E+03  0.00000000000E+00 0.  1.
<mgrwt>
<rscale>  2 0.10989835E+03</rscale>
<asrwt>0</asrwt>
<pdfrwt beam="1">  1       21 0.18851542E-01 0.10989835E+03</pdfrwt>
<pdfrwt beam="2">  1       21 0.13295123E+00 0.10989835E+03</pdfrwt>
<totfact> 0.11299977E+04</totfact>
</mgrwt>
</event>
<event>
 5    1  0.1595802E+000  0.8732636E+02  0.7546771E-02  0.1309459E+00
         21   -1    0    0  501  502  0.00000000000E+00  0.00000000000E+00  0.30712845555E+02  0.30712845555E+02  0.00000000000E+00 0.  1.
         21   -1    0    0  502  503 -0.00000000000E+00 -0.00000000000E+00 -0.44589747454E+03  0.44589747454E+03  0.00000000000E+00 0. -1.
         24    1    1    2    0    0 -0.67090890166E+02 -0.15154518164E+02 -0.20756758607E+03  0.23298576288E+03  0.80419002446E+02 0.  1.
          1    1    1    2  501    0  0.42239543804E+02  0.82306620735E+01 -0.98043005786E+01  0.44136687333E+02  0.00000000000E+00 0. -1.
         -2    1    1    2    0  503  0.24851346362E+02  0.69238560900E+01 -0.19781274234E+03  0.19948786988E+03  0.00000000000E+00 0.  1.
<mgrwt>
<rscale>  2 0.87326363E+02</rscale>
<asrwt>0</asrwt>
<pdfrwt beam="1">  1       21 0.47250534E-02 0.87326363E+02</pdfrwt>
<pdfrwt beam="2">  1       21 0.68599609E-01 0.87326363E+02</pdfrwt>
<totfact> 0.57943981E+05</totfact>
</mgrwt>
</event>
<event>
 5    1  0.1595802E+000  0.3985785E+03  0.7546771E-02  0.1044273E+00
         21   -1    0    0  501  502  0.00000000000E+00  0.00000000000E+00  0.34140884446E+03  0.34140884446E+03  0.00000000000E+00 0. -1.
         21   -1    0    0  502  503 -0.00000000000E+00 -0.00000000000E+00 -0.98582294199E+03  0.98582294199E+03  0.00000000000E+00 0. -1.
         24    1    1    2    0    0  0.28938423104E+03  0.21540208459E+03 -0.19441510167E+03  0.41761913143E+03  0.80419002446E+02 0. -1.
          1    1    1    2  501    0 -0.30112285291E+03 -0.24977304910E+03  0.62185387481E+02  0.39614210962E+03  0.00000000000E+00 0. -1.
         -2    1    1    2    0  503  0.11738621867E+02  0.34370964510E+02 -0.51218438335E+03  0.51347054540E+03  0.00000000000E+00 0.  1.
<mgrwt>
<rscale>  2 0.39857846E+03</rscale>
<asrwt>0</asrwt>
<pdfrwt beam="1">  1       21 0.52524438E-01 0.39857846E+03</pdfrwt>
<pdfrwt beam="2">  1       21 0.15166507E+00 0.39857846E+03</pdfrwt>
<totfact> 0.86011448E+02</totfact>
</mgrwt>
</event>
<event>
 5    1  0.1595802E+000  0.8086280E+02  0.7546771E-02  0.1326621E+00
         21   -1    0    0  503  502  0.00000000000E+00  0.00000000000E+00  0.14956984592E+02  0.14956984592E+02  0.00000000000E+00 0.  1.
         21   -1    0    0  501  503 -0.00000000000E+00 -0.00000000000E+00 -0.46625765771E+03  0.46625765771E+03  0.00000000000E+00 0. -1.
         24    1    1    2    0    0 -0.16603509900E+02  0.13981093904E+02 -0.24624716696E+03  0.25995390114E+03  0.80419002446E+02 0.  0.
          1    1    1    2  501    0  0.43216059125E+02  0.79533762526E+01 -0.14994261257E+03  0.15624874728E+03  0.00000000000E+00 0. -1.
         -2    1    1    2    0  502 -0.26612549225E+02 -0.21934470156E+02 -0.55110893588E+02  0.65011993888E+02  0.00000000000E+00 0.  1.
<mgrwt>
<rscale>  2 0.80862800E+02</rscale>
<asrwt>0</asrwt>
<pdfrwt beam="1">  1       21 0.23010747E-02 0.80862800E+02</pdfrwt>
<pdfrwt beam="2">  1       21 0.71731944E-01 0.80862800E+02</pdfrwt>
<totfact> 0.16981018E+06</totfact>
</mgrwt>
</event>
<event>
 5    1  0.1595802E+000  0.9372271E+02  0.7546771E-02  0.1294079E+00
         21   -1    0    0  503  502  0.00000000000E+00  0.00000000000E+00  0.64256426099E+03  0.64256426099E+03  0.00000000000E+00 0. -1.
         21   -1    0    0  501  503 -0.00000000000E+00 -0.00000000000E+00 -0.16649881820E+02  0.16649881820E+02  0.00000000000E+00 0.  1.
         24    1    1    2    0    0 -0.36617475134E+02  0.12399537396E+02  0.34784807204E+03  0.35911012961E+03  0.80419002446E+02 0.  1.
          1    1    1    2  501    0  0.32333728849E+02 -0.50451863624E+02  0.89631465109E+02  0.10781771701E+03  0.00000000000E+00 0. -1.
         -2    1    1    2    0  502  0.42837462853E+01  0.38052326228E+02  0.18843484202E+03  0.19228629618E+03  0.00000000000E+00 0.  1.
<mgrwt>
<rscale>  2 0.93722710E+02</rscale>
<asrwt>0</asrwt>
<pdfrwt beam="1">  1       21 0.98856021E-01 0.93722710E+02</pdfrwt>
<pdfrwt beam="2">  1       21 0.25615208E-02 0.93722710E+02</pdfrwt>
<totfact> 0.70035745E+05</totfact>
</mgrwt>
</event>
<event>
 5    1  0.1595802E+000  0.1168358E+03  0.7546771E-02  0.1248410E+00
         21   -1    0    0  501  502  0.00000000000E+00  0.00000000000E+00  0.13135709492E+03  0.13135709492E+03  0.00000000000E+00 0. -1.
         21   -1    0    0  502  503 -0.00000000000E+00 -0.00000000000E+00 -0.22004914387E+03  0.22004914387E+03  0.00000000000E+00 0.  1.
         24    1    1    2    0    0 -0.74192908498E+02 -0.39854063204E+02 -0.30836960055E+02  0.12046189474E+03  0.80419002446E+02 0. -1.
          1    1    1    2  501    0  0.83603542508E+02  0.79732934302E+01  0.63392774641E+02  0.10522247671E+03  0.00000000000E+00 0. -1.
         -2    1    1    2    0  503 -0.94106340102E+01  0.31880769774E+02 -0.12124786354E+03  0.12572186734E+03  0.00000000000E+00 0.  1.
<mgrwt>
<rscale>  2 0.11683582E+03</rscale>
<asrwt>0</asrwt>
<pdfrwt beam="1">  1       21 0.20208784E-01 0.11683582E+03</pdfrwt>
<pdfrwt beam="2">  1       21 0.33853714E-01 0.11683582E+03</pdfrwt>
<totfact> 0.19435888E+05</totfact>
</mgrwt>
</event>
<event>
 5    1  0.1595802E+000  0.1178827E+03  0.7546771E-02  0.1246631E+00
         21   -1    0    0  503  502  0.00000000000E+00  0.00000000000E+00  0.45679127154E+02  0.45679127154E+02  0.00000000000E+00 0.  1.
         21   -1    0    0  501  503 -0.00000000000E+00 -0.00000000000E+00 -0.11511772867E+04  0.11511772867E+04  0.00000000000E+00 0. -1.
         24    1    1    2    0    0 -0.20822839151E+02  0.53317401028E+02 -0.25348581493E+03  0.27202685567E+03  0.80419002446E+02 0. -1.
          1    1    1    2  501    0 -0.36378707116E+01 -0.91574951714E+02 -0.87085668979E+03  0.87566579243E+03  0.00000000000E+00 0. -1.
         -2    1    1    2    0  502  0.24460709863E+02  0.38257550687E+02  0.18844345217E+02  0.49163765704E+02  0.00000000000E+00 0.  1.
<mgrwt>
<rscale>  2 0.11788275E+03</rscale>
<asrwt>0</asrwt>
<pdfrwt beam="1">  1       21 0.70275582E-02 0.11788275E+03</pdfrwt>
<pdfrwt beam="2">  1       21 0.17710419E+00 0.11788275E+03</pdfrwt>
<totfact> 0.30290001E+04</totfact>
</mgrwt>
</event>
<event>
 5    1  0.1595802E+000  0.8256641E+02  0.7546771E-02  0.1321922E+00
         21   -1    0    0  501  502  0.00000000000E+00  0.00000000000E+00  0.74826691803E+03  0.74826691803E+03  0.00000000000E+00 0. -1.
         21   -1    0    0  502  503 -0.00000000000E+00 -0.00000000000E+00 -0.56308814350E+02  0.56308814350E+02  0.00000000000E+00 0.  1.
         24    1    1    2    0    0 -0.17739911552E+02 -0.13781125686E+02  0.97005670594E+02  0.12799195275E+03  0.80419002446E+02 0. -1.
          1    1    1    2  501    0  0.48985221628E+02  0.53768770403E+01  0.62823557445E+03  0.63016537492E+03  0.00000000000E+00 0. -1.
         -2    1    1    2    0  503 -0.31245310076E+02  0.84042486453E+01 -0.33283141362E+02  0.46418404711E+02  0.00000000000E+00 0.  1.
<mgrwt>
<rscale>  2 0.82566413E+02</rscale>
<asrwt>0</asrwt>
<pdfrwt beam="1">  1       21 0.11511798E+00 0.82566413E+02</pdfrwt>
<pdfrwt beam="2">  1       21 0.86628950E-02 0.82566413E+02</pdfrwt>
<totfact> 0.65110154E+04</totfact>
</mgrwt>
</event>
<event>
 5    1  0.1595802E+000  0.7640822E+02  0.7546771E-02  0.1339565E+00
         21   -1    0    0  503  502  0.00000000000E+00  0.00000000000E+00  0.28951786376E+02  0.28951786376E+02  0.00000000000E+00 0.  1.
         21   -1    0    0  501  503 -0.00000000000E+00 -0.00000000000E+00 -0.28024109809E+03  0.28024109809E+03  0.00000000000E+00 0.  1.
         24    1    1    2    0    0  0.49792177206E+02 -0.18109602495E+02 -0.14728947639E+03  0.17597904541E+03  0.80419002446E+02 0.  1.
          1    1    1    2  501    0 -0.23442931176E+02 -0.17635540858E+01 -0.96562123633E+02  0.99382719150E+02  0.00000000000E+00 0. -1.
         -2    1    1    2    0  502 -0.26349246030E+02  0.19873156581E+02 -0.74377116869E+01  0.33831119904E+02  0.00000000000E+00 0.  1.
<mgrwt>
<rscale>  2 0.76408224E+02</rscale>
<asrwt>0</asrwt>
<pdfrwt beam="1">  1       21 0.44541208E-02 0.76408224E+02</pdfrwt>
<pdfrwt beam="2">  1       21 0.43114016E-01 0.76408224E+02</pdfrwt>
<totfact> 0.16621486E+06</totfact>
</mgrwt>
</event>
<event>
 5    1  0.1595802E+000  0.7968017E+02  0.7546771E-02  0.1329962E+00
         21   -1    0    0  503  502  0.00000000000E+00  0.00000000000E+00  0.79789309564E+02  0.79789309564E+02  0.00000000000E+00 0. -1.
         21   -1    0    0  501  503 -0.00000000000E+00 -0.00000000000E+00 -0.18661148185E+03  0.18661148185E+03  0.00000000000E+00 0. -1.
         24    1    1    2    0    0  0.55031687332E+02 -0.21335237036E+02  0.33419258808E+02  0.10520333533E+03  0.80419002446E+02 0. -1.
          1    1    1    2  501    0 -0.34475468308E+02  0.17618896367E+02 -0.13387254831E+03  0.13935868331E+03  0.00000000000E+00 0. -1.
         -2    1    1    2    0  502 -0.20556219023E+02  0.37163406691E+01 -0.63688827885E+01  0.21838772779E+02  0.00000000000E+00 0.  1.
<mgrwt>
<rscale>  2 0.79680167E+02</rscale>
<asrwt>0</asrwt>
<pdfrwt beam="1">  1       21 0.12275279E-01 0.79680167E+02</pdfrwt>
<pdfrwt beam="2">  1       21 0.28709458E-01 0.79680167E+02</pdfrwt>
<totfact> 0.65627633E+05</totfact>
</mgrwt>
</event>
<event>
 5    1  0.1595802E+000  0.7236689E+02  0.7546771E-02  0.1352224E+00
         21   -1    0    0  503  502  0.00000000000E+00  0.00000000000E+00  0.30063372729E+03  0.30063372729E+03  0.00000000000E+00 0. -1.
         21   -1    0    0  501  503 -0.00000000000E+00 -0.00000000000E+00 -0.28143241588E+02  0.28143241588E+02  0.00000000000E+00 0.  1.
         24    1    1    2    0    0 -0.15101488457E+02  0.21436303464E+02  0.53621388488E+02  0.10015008396E+03  0.80419002446E+02 0.  1.
          1    1    1    2  501    0  0.31961708201E+02  0.11263022018E+01  0.67926360788E+02  0.75078690970E+02  0.00000000000E+00 0. -1.
         -2    1    1    2    0  502 -0.16860219744E+02 -0.22562605666E+02  0.15094273643E+03  0.15354819395E+03  0.00000000000E+00 0.  1.
<mgrwt>
<rscale>  2 0.72366887E+02</rscale>
<asrwt>0</asrwt>
<pdfrwt beam="1">  1       21 0.46251340E-01 0.72366887E+02</pdfrwt>
<pdfrwt beam="2">  1       21 0.43297297E-02 0.72366887E+02</pdfrwt>
<totfact> 0.15103697E+06</totfact>
</mgrwt>
</event>
<event>
 5    1  0.1595802E+000  0.1087614E+03  0.7546771E-02  0.1262881E+00
         21   -1    0    0  501  502  0.00000000000E+00  0.00000000000E+00  0.10266989129E+03  0.10266989129E+03  0.00000000000E+00 0. -1.
         21   -1    0    0  502  503 -0.00000000000E+00 -0.00000000000E+00 -0.12509947706E+03  0.12509947706E+03  0.00000000000E+00 0. -1.
         24    1    1    2    0    0 -0.52115007405E+02  0.30903421748E+02  0.19685084741E+02  0.10259490235E+03  0.80419002446E+02 0. -1.
          1    1    1    2  501    0  0.72834233867E+02 -0.50250091967E+02 -0.24560998108E+02  0.91832129420E+02  0.00000000000E+00 0. -1.
         -2    1    1    2    0  503 -0.20719226462E+02  0.19346670219E+02 -0.17553672399E+02  0.33342336577E+02  0.00000000000E+00 0.  1.
<mgrwt>
<rscale>  2 0.10876144E+03</rscale>
<asrwt>0</asrwt>
<pdfrwt beam="1">  1       21 0.15795368E-01 0.10876144E+03</pdfrwt>
<pdfrwt beam="2">  1       21 0.19246073E-01 0.10876144E+03</pdfrwt>
<totfact> 0.88597868E+05</totfact>
</mgrwt>
</event>
<event>
 5    1  0.1595802E+000  0.1022532E+03  0.7546771E-02  0.1275628E+00
         21   -1    0    0  501  502  0.00000000000E+00  0.00000000000E+00  0.23032554929E+02  0.23032554929E+02  0.00000000000E+00 0.  1.
         21   -1    0    0  502  503 -0.00000000000E+00 -0.00000000000E+00 -0.45841119780E+03  0.45841119780E+03  0.00000000000E+00 0.  1.
         24    1    1    2    0    0 -0.30351720589E+02  0.78745831007E+02 -0.25395196309E+03  0.27942968410E+03  0.80419002446E+02 0.  1.
          1    1    1    2  501    0  0.13426939160E+02 -0.64283357825E+02 -0.12195729139E+03  0.13851430869E+03  0.00000000000E+00 0. -1.
         -2    1    1    2    0  503  0.16924781430E+02 -0.14462473182E+02 -0.59469388389E+02  0.63499759939E+02  0.00000000000E+00 0.  1.
<mgrwt>
<rscale>  2 0.10225317E+03</rscale>
<asrwt>0</asrwt>
<pdfrwt beam="1">  1       21 0.35434701E-02 0.10225317E+03</pdfrwt>
<pdfrwt beam="2">  1       21 0.70524797E-01 0.10225317E+03</pdfrwt>
<totfact> 0.87802444E+05</totfact>
</mgrwt>
</event>
<event>
 5    1  0.1595802E+000  0.7221232E+02  0.7546771E-02  0.1352728E+00
         21   -1    0    0  503  502  0.00000000000E+00  0.00000000000E+00  0.34677355040E+03  0.34677355040E+03  0.00000000000E+00 0.  1.
         21   -1    0    0  501  503 -0.00000000000E+00 -0.00000000000E+00 -0.15639338952E+02  0.15639338952E+02  0.00000000000E+00 0. -1.
         24    1    1    2    0    0  0.42044008988E+02  0.15744354313E+02  0.17528735088E+03  0.19801124897E+03  0.80419002446E+02 0.  0.
          1    1    1    2  501    0 -0.19432753727E+02 -0.21509623115E+02  0.84124171737E+02  0.88978492201E+02  0.00000000000E+00 0. -1.
         -2    1    1    2    0  502 -0.22611255261E+02  0.57652688021E+01  0.71722688832E+02  0.75423148185E+02  0.00000000000E+00 0.  1.
<mgrwt>
<rscale>  2 0.72212324E+02</rscale>
<asrwt>0</asrwt>
<pdfrwt beam="1">  1       21 0.53349771E-01 0.72212324E+02</pdfrwt>
<pdfrwt beam="2">  1       21 0.24060524E-02 0.72212324E+02</pdfrwt>
<totfact> 0.29315047E+06</totfact>
</mgrwt>
</event>
<event>
 5    1  0.1595802E+000  0.1452671E+03  0.7546771E-02  0.1206412E+00
         21   -1    0    0  503  502  0.00000000000E+00  0.00000000000E+00  0.25197828515E+03  0.25197828515E+03  0.00000000000E+00 0.  1.
         21   -1    0    0  501  503 -0.00000000000E+00 -0.00000000000E+00 -0.17007093893E+03  0.17007093893E+03  0.00000000000E+00 0. -1.
         24    1    1    2    0    0 -0.12076492788E+03 -0.57855013760E+02 -0.10309893598E+03  0.18715762602E+03  0.80419002446E+02 0. -1.
          1    1    1    2  501    0  0.24298550642E+02  0.70178249054E+01  0.71725538597E+01  0.26289065380E+02  0.00000000000E+00 0. -1.
         -2    1    1    2    0  502  0.96466377234E+02  0.50837188855E+02  0.17783372834E+03  0.20860253268E+03  0.00000000000E+00 0.  1.
<mgrwt>
<rscale>  2 0.14526713E+03</rscale>
<asrwt>0</asrwt>
<pdfrwt beam="1">  1       21 0.38765890E-01 0.14526713E+03</pdfrwt>
<pdfrwt beam="2">  1       21 0.26164760E-01 0.14526713E+03</pdfrwt>
<totfact> 0.90769859E+04</totfact>
</mgrwt>
</event>
<event>
 5    1  0.1595802E+000  0.8106883E+02  0.7546771E-02  0.1326045E+00
         21   -1    0    0  501  502  0.00000000000E+00  0.00000000000E+00  0.13367682329E+02  0.13367682329E+02  0.00000000000E+00 0. -1.
         21   -1    0    0  502  503 -0.00000000000E+00 -0.00000000000E+00 -0.89345207110E+03  0.89345207110E+03  0.00000000000E+00 0.  1.
         24    1    1    2    0    0  0.45137378186E+02 -0.23677201804E+02 -0.67329697648E+03  0.67999560829E+03  0.80419002446E+02 0.  0.
          1    1    1    2  501    0 -0.31565478649E+02 -0.79145802422E+01 -0.23004662911E+02  0.39852660368E+02  0.00000000000E+00 0. -1.
         -2    1    1    2    0  503 -0.13571899537E+02  0.31591782046E+02 -0.18378274938E+03  0.18697148478E+03  0.00000000000E+00 0.  1.
<mgrwt>
<rscale>  2 0.81068827E+02</rscale>
<asrwt>0</asrwt>
<pdfrwt beam="1">  1       21 0.20565657E-02 0.81068827E+02</pdfrwt>
<pdfrwt beam="2">  1       21 0.13745422E+00 0.81068827E+02</pdfrwt>
<totfact> 0.45404687E+05</totfact>
</mgrwt>
</event>
<event>
 5    1  0.1595802E+000  0.1244445E+03  0.7546771E-02  0.1235940E+00
         21   -1    0    0  501  502  0.00000000000E+00  0.00000000000E+00  0.56758999958E+03  0.56758999958E+03  0.00000000000E+00 0.  1.
         21   -1    0    0  502  503 -0.00000000000E+00 -0.00000000000E+00 -0.29532670017E+02  0.29532670017E+02  0.00000000000E+00 0. -1.
         24    1    1    2    0    0  0.89110331337E+02 -0.24097484451E+02  0.33593345554E+03  0.35754697931E+03  0.80419002446E+02 0.  1.
          1    1    1    2  501    0 -0.27935310785E+02  0.52150034869E+02  0.11657242736E+03  0.13072543190E+03  0.00000000000E+00 0. -1.
         -2    1    1    2    0  503 -0.61175020552E+02 -0.28052550418E+02  0.85551446661E+02  0.10885025838E+03  0.00000000000E+00 0.  1.
<mgrwt>
<rscale>  2 0.12444445E+03</rscale>
<asrwt>0</asrwt>
<pdfrwt beam="1">  1       21 0.87321530E-01 0.12444445E+03</pdfrwt>
<pdfrwt beam="2">  1       21 0.45434881E-02 0.12444445E+03</pdfrwt>
<totfact> 0.36156638E+05</totfact>
</mgrwt>
</event>
<event>
 5    1  0.1595802E+000  0.9253990E+02  0.7546771E-02  0.1296815E+00
         21   -1    0    0  503  502  0.00000000000E+00  0.00000000000E+00  0.32555190130E+02  0.32555190130E+02  0.00000000000E+00 0. -1.
         21   -1    0    0  501  503 -0.00000000000E+00 -0.00000000000E+00 -0.35972187914E+03  0.35972187914E+03  0.00000000000E+00 0.  1.
         24    1    1    2    0    0  0.38698751962E+02  0.23326448508E+02 -0.18840743170E+03  0.20977676916E+03  0.80419002446E+02 0.  0.
          1    1    1    2  501    0 -0.47040124094E+02  0.18231144052E+02 -0.12968659303E+03  0.13915372902E+03  0.00000000000E+00 0. -1.
         -2    1    1    2    0  502  0.83413721320E+01 -0.41557592560E+02 -0.90726642785E+01  0.43346571093E+02  0.00000000000E+00 0.  1.
<mgrwt>
<rscale>  2 0.92539897E+02</rscale>
<asrwt>0</asrwt>
<pdfrwt beam="1">  1       21 0.50084908E-02 0.92539897E+02</pdfrwt>
<pdfrwt beam="2">  1       21 0.55341828E-01 0.92539897E+02</pdfrwt>
<totfact> 0.82788609E+05</totfact>
</mgrwt>
</event>
<event>
 5    1  0.1595802E+000  0.9966504E+02  0.7546771E-02  0.1281002E+00
         21   -1    0    0  501  502  0.00000000000E+00  0.00000000000E+00  0.29385481761E+03  0.29385481761E+03  0.00000000000E+00 0. -1.
         21   -1    0    0  502  503 -0.00000000000E+00 -0.00000000000E+00 -0.39250431508E+02  0.39250431508E+02  0.00000000000E+00 0. -1.
         24    1    1    2    0    0 -0.60829007391E+02  0.55915071696E+02  0.96427780357E+02  0.15030700636E+03  0.80419002446E+02 0. -1.
          1    1    1    2  501    0  0.23291926519E+02 -0.31790679412E+02  0.11134001142E+03  0.11810909906E+03  0.00000000000E+00 0. -1.
         -2    1    1    2    0  503  0.37537080871E+02 -0.24124392285E+02  0.46836594320E+02  0.64689143687E+02  0.00000000000E+00 0.  1.
<mgrwt>
<rscale>  2 0.99665042E+02</rscale>
<asrwt>0</asrwt>
<pdfrwt beam="1">  1       21 0.45208432E-01 0.99665042E+02</pdfrwt>
<pdfrwt beam="2">  1       21 0.60385281E-02 0.99665042E+02</pdfrwt>
<totfact> 0.91608796E+05</totfact>
</mgrwt>
</event>
<event>
 5    1  0.1595802E+000  0.7046437E+02  0.7546771E-02  0.1358521E+00
         21   -1    0    0  501  502  0.00000000000E+00  0.00000000000E+00  0.66014775328E+02  0.66014775328E+02  0.00000000000E+00 0.  1.
         21   -1    0    0  502  503 -0.00000000000E+00 -0.00000000000E+00 -0.26012219316E+03  0.26012219316E+03  0.00000000000E+00 0.  1.
         24    1    1    2    0    0  0.39589859824E+01  0.13291374191E+02 -0.48311873647E+02  0.94834525820E+02  0.80419002446E+02 0.  1.
          1    1    1    2  501    0 -0.30430140510E+02 -0.12332392625E+02  0.35340813325E+02  0.48239552711E+02  0.00000000000E+00 0. -1.
         -2    1    1    2    0  503  0.26471154527E+02 -0.95898156577E+00 -0.18113635750E+03  0.18306288995E+03  0.00000000000E+00 0.  1.
<mgrwt>
<rscale>  2 0.70464368E+02</rscale>
<asrwt>0</asrwt>
<pdfrwt beam="1">  1       21 0.10156119E-01 0.70464368E+02</pdfrwt>
<pdfrwt beam="2">  1       21 0.40018800E-01 0.70464368E+02</pdfrwt>
<totfact> 0.48042016E+05</totfact>
</mgrwt>
</event>
<event>
 5    1  0.1595802E+000  0.9400886E+02  0.7546771E-02  0.1293424E+00
         21   -1    0    0  501  502  0.00000000000E+00  0.00000000000E+00  0.25990585702E+03  0.25990585702E+03  0.00000000000E+00 0. -1.
         21   -1    0    0  502  503 -0.00000000000E+00 -0.00000000000E+00 -0.40028643358E+02  0.40028643358E+02  0.00000000000E+00 0. -1.
         24    1    1    2    0    0 -0.48762504894E+02 -0.58410314128E+02  0.80994848579E+02  0.13717480866E+03  0.80419002446E+02 0. -1.
          1    1    1    2  501    0  0.26094007495E+02  0.41517989384E+02  0.11747408498E+03  0.12729808055E+03  0.00000000000E+00 0. -1.
         -2    1    1    2    0  503  0.22668497400E+02  0.16892324743E+02  0.21408280098E+02  0.35461611164E+02  0.00000000000E+00 0.  1.
<mgrwt>
<rscale>  2 0.94008864E+02</rscale>
<asrwt>0</asrwt>
<pdfrwt beam="1">  1       21 0.39985515E-01 0.94008864E+02</pdfrwt>
<pdfrwt beam="2">  1       21 0.61582530E-02 0.94008864E+02</pdfrwt>
<totfact> 0.11319464E+06</totfact>
</mgrwt>
</event>
<event>
 5    1  0.1595802E+000  0.6294487E+02  0.7546771E-02  0.1385873E+00
         21   -1    0    0  501  502  0.00000000000E+00  0.00000000000E+00  0.24444608447E+03  0.24444608447E+03  0.00000000000E+00 0. -1.
         21   -1    0    0  502  503 -0.00000000000E+00 -0.00000000000E+00 -0.35450841373E+02  0.35450841373E+02  0.00000000000E+00 0. -1.
         24    1    1    2    0    0  0.60067709613E+01 -0.48588011595E+01  0.19675107908E+02  0.83150556653E+02  0.80419002446E+02 0. -1.
          1    1    1    2  501    0 -0.20414732453E+02 -0.11395363832E+02  0.15012955200E+03  0.15193912598E+03  0.00000000000E+00 0. -1.
         -2    1    1    2    0  503  0.14407961492E+02  0.16254164992E+02  0.39190583184E+02  0.44807243212E+02  0.00000000000E+00 0.  1.
<mgrwt>
<rscale>  2 0.62944870E+02</rscale>
<asrwt>0</asrwt>
<pdfrwt beam="1">  1       21 0.37607089E-01 0.62944870E+02</pdfrwt>
<pdfrwt beam="2">  1       21 0.54539758E-02 0.62944870E+02</pdfrwt>
<totfact> 0.15439825E+06</totfact>
</mgrwt>
</event>
<event>
 5    1  0.1595802E+000  0.9122336E+02  0.7546771E-02  0.1299916E+00
         21   -1    0    0  501  502  0.00000000000E+00  0.00000000000E+00  0.11222147590E+04  0.11222147590E+04  0.00000000000E+00 0.  1.
         21   -1    0    0  502  503 -0.00000000000E+00 -0.00000000000E+00 -0.80482495894E+01  0.80482495894E+01  0.00000000000E+00 0. -1.
         24    1    1    2    0    0  0.11906023547E+02 -0.53524400130E+02  0.45514091934E+03  0.46543215104E+03  0.80419002446E+02 0. -1.
          1    1    1    2  501    0  0.95446752190E+01  0.61493597149E+02  0.54426508132E+03  0.54781113722E+03  0.00000000000E+00 0. -1.
         -2    1    1    2    0  503 -0.21450698766E+02 -0.79691970192E+01  0.11476050872E+03  0.11701972030E+03  0.00000000000E+00 0.  1.
<mgrwt>
<rscale>  2 0.91223361E+02</rscale>
<asrwt>0</asrwt>
<pdfrwt beam="1">  1       21 0.17264830E+00 0.91223361E+02</pdfrwt>
<pdfrwt beam="2">  1       21 0.12381931E-02 0.91223361E+02</pdfrwt>
<totfact> 0.56320791E+05</totfact>
</mgrwt>
</event>
<event>
 5    1  0.1595802E+000  0.7004935E+02  0.7546771E-02  0.1359925E+00
         21   -1    0    0  501  502  0.00000000000E+00  0.00000000000E+00  0.55005436354E+02  0.55005436354E+02  0.00000000000E+00 0. -1.
         21   -1    0    0  502  503 -0.00000000000E+00 -0.00000000000E+00 -0.11081210556E+03  0.11081210556E+03  0.00000000000E+00 0.  1.
         24    1    1    2    0    0  0.29308326529E+02  0.45085882985E+01 -0.24354258532E+02  0.89104720612E+02  0.80419002446E+02 0.  0.
          1    1    1    2  501    0 -0.22650264945E+02  0.19242305868E+02  0.74587993739E+01  0.30642038531E+02  0.00000000000E+00 0. -1.
         -2    1    1    2    0  503 -0.66580615837E+01 -0.23750894167E+02 -0.38911210047E+02  0.46070782770E+02  0.00000000000E+00 0.  1.
<mgrwt>
<rscale>  2 0.70049349E+02</rscale>
<asrwt>0</asrwt>
<pdfrwt beam="1">  1       21 0.84623749E-02 0.70049349E+02</pdfrwt>
<pdfrwt beam="2">  1       21 0.17048016E-01 0.70049349E+02</pdfrwt>
<totfact> 0.32364993E+06</totfact>
</mgrwt>
</event>
<event>
 5    1  0.1595802E+000  0.8377510E+02  0.7546771E-02  0.1318667E+00
         21   -1    0    0  503  502  0.00000000000E+00  0.00000000000E+00  0.49599113416E+02  0.49599113416E+02  0.00000000000E+00 0. -1.
         21   -1    0    0  501  503 -0.00000000000E+00 -0.00000000000E+00 -0.46419221782E+03  0.46419221782E+03  0.00000000000E+00 0. -1.
         24    1    1    2    0    0  0.39538026344E+02 -0.49365312688E+02 -0.38191220964E+02  0.10920611218E+03  0.80419002446E+02 0. -1.
          1    1    1    2  501    0 -0.10699113659E+02  0.26027828192E+02 -0.36455679509E+03  0.36564132114E+03  0.00000000000E+00 0. -1.
         -2    1    1    2    0  502 -0.28838912684E+02  0.23337484496E+02 -0.11845088347E+02  0.38943897922E+02  0.00000000000E+00 0.  1.
<mgrwt>
<rscale>  2 0.83775097E+02</rscale>
<asrwt>0</asrwt>
<pdfrwt beam="1">  1       21 0.76306328E-02 0.83775097E+02</pdfrwt>
<pdfrwt beam="2">  1       21 0.71414188E-01 0.83775097E+02</pdfrwt>
<totfact> 0.23784118E+05</totfact>
</mgrwt>
</event>
<event>
 5    1  0.1595802E+000  0.7492496E+02  0.7546771E-02  0.1344104E+00
         21   -1    0    0  501  502  0.00000000000E+00  0.00000000000E+00  0.19594216553E+03  0.19594216553E+03  0.00000000000E+00 0. -1.
         21   -1    0    0  502  503 -0.00000000000E+00 -0.00000000000E+00 -0.32076655133E+02  0.32076655133E+02  0.00000000000E+00 0.  1.
         24    1    1    2    0    0  0.73765989961E+01 -0.22927125619E+02  0.10955841110E+03  0.13802292817E+03  0.80419002446E+02 0. -1.
          1    1    1    2  501    0 -0.22434265776E+01 -0.21279868163E+02  0.35988294449E+02  0.41869118562E+02  0.00000000000E+00 0. -1.
         -2    1    1    2    0  503 -0.51331724185E+01  0.44206993782E+02  0.18318804843E+02  0.48126773933E+02  0.00000000000E+00 0.  1.
<mgrwt>
<rscale>  2 0.74924958E+02</rscale>
<asrwt>0</asrwt>
<pdfrwt beam="1">  1       21 0.30144948E-01 0.74924958E+02</pdfrwt>
<pdfrwt beam="2">  1       21 0.49348701E-02 0.74924958E+02</pdfrwt>
<totfact> 0.28098471E+06</totfact>
</mgrwt>
</event>
<event>
 5    1  0.1595802E+000  0.9296592E+02  0.7546771E-02  0.1295824E+00
         21   -1    0    0  501  502  0.00000000000E+00  0.00000000000E+00  0.11955043006E+03  0.11955043006E+03  0.00000000000E+00 0.  1.
         21   -1    0    0  502  503 -0.00000000000E+00 -0.00000000000E+00 -0.10164322194E+03  0.10164322194E+03  0.00000000000E+00 0.  1.
         24    1    1    2    0    0 -0.15960414078E+02 -0.58233853721E+02 -0.35378469629E+02  0.10660566873E+03  0.80419002446E+02 0.  1.
          1    1    1    2  501    0 -0.21113457570E+02  0.72377394183E+01  0.45988960210E+02  0.51118953664E+02  0.00000000000E+00 0. -1.
         -2    1    1    2    0  503  0.37073871648E+02  0.50996114303E+02  0.72967175423E+01  0.63469029612E+02  0.00000000000E+00 0.  1.
<mgrwt>
<rscale>  2 0.92965919E+02</rscale>
<asrwt>0</asrwt>
<pdfrwt beam="1">  1       21 0.18392374E-01 0.92965919E+02</pdfrwt>
<pdfrwt beam="2">  1       21 0.15637419E-01 0.92965919E+02</pdfrwt>
<totfact> 0.97787072E+05</totfact>
</mgrwt>
</event>
<event>
 5    1  0.1595802E+000  0.7146233E+02  0.7546771E-02  0.1355190E+00
         21   -1    0    0  501  502  0.00000000000E+00  0.00000000000E+00  0.30458638470E+02  0.30458638470E+02  0.00000000000E+00 0. -1.
         21   -1    0    0  502  503 -0.00000000000E+00 -0.00000000000E+00 -0.21401464869E+03  0.21401464869E+03  0.00000000000E+00 0.  1.
         24    1    1    2    0    0 -0.77107240310E+01 -0.58654196100E+01 -0.50467658225E+02  0.95436150873E+02  0.80419002446E+02 0.  0.
          1    1    1    2  501    0 -0.26322213215E+02  0.88265605905E+01 -0.32168086022E+02  0.42491797311E+02  0.00000000000E+00 0. -1.
         -2    1    1    2    0  503  0.34032937246E+02 -0.29611409806E+01 -0.10092026598E+03  0.10654533898E+03  0.00000000000E+00 0.  1.
<mgrwt>
<rscale>  2 0.71462334E+02</rscale>
<asrwt>0</asrwt>
<pdfrwt beam="1">  1       21 0.46859444E-02 0.71462334E+02</pdfrwt>
<pdfrwt beam="2">  1       21 0.32925331E-01 0.71462334E+02</pdfrwt>
<totfact> 0.25794053E+06</totfact>
</mgrwt>
</event>
<event>
 5    1  0.1595802E+000  0.8921386E+02  0.7546771E-02  0.1304767E+00
         21   -1    0    0  503  502  0.00000000000E+00  0.00000000000E+00  0.23985791920E+03  0.23985791920E+03  0.00000000000E+00 0.  1.
         21   -1    0    0  501  503 -0.00000000000E+00 -0.00000000000E+00 -0.37486072267E+02  0.37486072267E+02  0.00000000000E+00 0. -1.
         24    1    1    2    0    0 -0.34835238369E+02  0.26897499273E+02  0.11458372830E+03  0.14674336798E+03  0.80419002446E+02 0.  0.
          1    1    1    2  501    0  0.27969175544E+02  0.23107065748E+02  0.95863864091E+01  0.37524792770E+02  0.00000000000E+00 0. -1.
         -2    1    1    2    0  502  0.68660628253E+01 -0.50004565021E+02  0.78201732214E+02  0.93075830713E+02  0.00000000000E+00 0.  1.
<mgrwt>
<rscale>  2 0.89213859E+02</rscale>
<asrwt>0</asrwt>
<pdfrwt beam="1">  1       21 0.36901217E-01 0.89213859E+02</pdfrwt>
<pdfrwt beam="2">  1       21 0.57670882E-02 0.89213859E+02</pdfrwt>
<totfact> 0.14784119E+06</totfact>
</mgrwt>
</event>
<event>
 5    1  0.1595802E+000  0.9269575E+02  0.7546771E-02  0.1296452E+00
         21   -1    0    0  503  502  0.00000000000E+00  0.00000000000E+00  0.53604922148E+03  0.53604922148E+03  0.00000000000E+00 0.  1.
         21   -1    0    0  501  503 -0.00000000000E+00 -0.00000000000E+00 -0.40420023734E+02  0.40420023734E+02  0.00000000000E+00 0. -1.
         24    1    1    2    0    0  0.33100304715E+02  0.38846600329E+02  0.27180154470E+03  0.28800691690E+03  0.80419002446E+02 0.  0.
          1    1    1    2  501    0 -0.14490032436E+02  0.22096425118E+02 -0.22078941784E+02  0.34433889024E+02  0.00000000000E+00 0. -1.
         -2    1    1    2    0  502 -0.18610272278E+02 -0.60943025446E+02  0.24590659483E+03  0.25402843929E+03  0.00000000000E+00 0.  1.
<mgrwt>
<rscale>  2 0.92695746E+02</rscale>
<asrwt>0</asrwt>
<pdfrwt beam="1">  1       21 0.82469106E-01 0.92695746E+02</pdfrwt>
<pdfrwt beam="2">  1       21 0.62184656E-02 0.92695746E+02</pdfrwt>
<totfact> 0.24470438E+05</totfact>
</mgrwt>
</event>
<event>
 5    1  0.1595802E+000  0.8055301E+02  0.7546771E-02  0.1327489E+00
         21   -1    0    0  503  502  0.00000000000E+00  0.00000000000E+00  0.16450026362E+02  0.16450026362E+02  0.00000000000E+00 0. -1.
         21   -1    0    0  501  503 -0.00000000000E+00 -0.00000000000E+00 -0.56396437290E+03  0.56396437290E+03  0.00000000000E+00 0. -1.
         24    1    1    2    0    0  0.53122075649E+02  0.29301130370E+01 -0.15480718176E+03  0.18238152308E+03  0.80419002446E+02 0. -1.
          1    1    1    2  501    0 -0.14842692934E+02  0.16129255367E+02 -0.11823810134E+03  0.12025267989E+03  0.00000000000E+00 0. -1.
         -2    1    1    2    0  502 -0.38279382715E+02 -0.19059368404E+02 -0.27446906344E+03  0.27778019629E+03  0.00000000000E+00 0.  1.
<mgrwt>
<rscale>  2 0.80553013E+02</rscale>
<asrwt>0</asrwt>
<pdfrwt beam="1">  1       21 0.25307735E-02 0.80553013E+02</pdfrwt>
<pdfrwt beam="2">  1       21 0.86763744E-01 0.80553013E+02</pdfrwt>
<totfact> 0.95958727E+05</totfact>
</mgrwt>
</event>
<event>
 5    1  0.1595802E+000  0.7002171E+02  0.7546771E-02  0.1360019E+00
         21   -1    0    0  503  502  0.00000000000E+00  0.00000000000E+00  0.74128197266E+01  0.74128197266E+01  0.00000000000E+00 0.  1.
         21   -1    0    0  501  503 -0.00000000000E+00 -0.00000000000E+00 -0.91052414388E+03  0.91052414388E+03  0.00000000000E+00 0. -1.
         24    1    1    2    0    0 -0.30605894780E+02 -0.99999512504E+01 -0.75626589029E+03  0.76121089890E+03  0.80419002446E+02 0.  0.
          1    1    1    2  501    0  0.76298330305E+01  0.24893943850E+02 -0.88947291262E+02  0.92679789681E+02  0.00000000000E+00 0. -1.
         -2    1    1    2    0  502  0.22976061750E+02 -0.14893992599E+02 -0.57898142599E+02  0.64046275032E+02  0.00000000000E+00 0.  1.
<mgrwt>
<rscale>  2 0.70021708E+02</rscale>
<asrwt>0</asrwt>
<pdfrwt beam="1">  1       21 0.11404337E-02 0.70021708E+02</pdfrwt>
<pdfrwt beam="2">  1       21 0.14008066E+00 0.70021708E+02</pdfrwt>
<totfact> 0.10991582E+06</totfact>
</mgrwt>
</event>
<event>
 5    1  0.1595802E+000  0.6827528E+02  0.7546771E-02  0.1366058E+00
         21   -1    0    0  503  502  0.00000000000E+00  0.00000000000E+00  0.22641177558E+03  0.22641177558E+03  0.00000000000E+00 0. -1.
         21   -1    0    0  501  503 -0.00000000000E+00 -0.00000000000E+00 -0.28196923503E+02  0.28196923503E+02  0.00000000000E+00 0.  1.
         24    1    1    2    0    0  0.88082569403E+01 -0.87371895984E+01  0.17329669664E+03  0.19144943169E+03  0.80419002446E+02 0. -1.
          1    1    1    2  501    0 -0.79178778461E+01  0.31459403214E+02  0.47924855142E+01  0.32792602178E+02  0.00000000000E+00 0. -1.
         -2    1    1    2    0  502 -0.89037909413E+00 -0.22722213616E+02  0.20125669918E+02  0.30366665214E+02  0.00000000000E+00 0.  1.
<mgrwt>
<rscale>  2 0.68275275E+02</rscale>
<asrwt>0</asrwt>
<pdfrwt beam="1">  1       21 0.34832580E-01 0.68275275E+02</pdfrwt>
<pdfrwt beam="2">  1       21 0.43379884E-02 0.68275275E+02</pdfrwt>
<totfact> 0.26212732E+06</totfact>
</mgrwt>
</event>
<event>
 5    1  0.1595802E+000  0.8947317E+02  0.7546771E-02  0.1304133E+00
         21   -1    0    0  503  502  0.00000000000E+00  0.00000000000E+00  0.90132014411E+02  0.90132014411E+02  0.00000000000E+00 0.  1.
         21   -1    0    0  501  503 -0.00000000000E+00 -0.00000000000E+00 -0.16411435384E+03  0.16411435384E+03  0.00000000000E+00 0. -1.
         24    1    1    2    0    0  0.37731877483E+02 -0.10408785964E+02  0.14300405949E+02  0.90574582352E+02  0.80419002446E+02 0.  1.
          1    1    1    2  501    0 -0.32737175831E+02  0.44392996582E+02 -0.10998478510E+03  0.12304110606E+03  0.00000000000E+00 0. -1.
         -2    1    1    2    0  502 -0.49947016517E+01 -0.33984210618E+02  0.21702039724E+02  0.40630679838E+02  0.00000000000E+00 0.  1.
<mgrwt>
<rscale>  2 0.89473170E+02</rscale>
<asrwt>0</asrwt>
<pdfrwt beam="1">  1       21 0.13866464E-01 0.89473170E+02</pdfrwt>
<pdfrwt beam="2">  1       21 0.25248362E-01 0.89473170E+02</pdfrwt>
<totfact> 0.67505189E+05</totfact>
</mgrwt>
</event>
<event>
 5    1  0.1595802E+000  0.1312976E+03  0.7546771E-02  0.1225543E+00
         21   -1    0    0  503  502  0.00000000000E+00  0.00000000000E+00  0.17042195900E+03  0.17042195900E+03  0.00000000000E+00 0.  1.
         21   -1    0    0  501  503 -0.00000000000E+00 -0.00000000000E+00 -0.19423826340E+03  0.19423826340E+03  0.00000000000E+00 0. -1.
         24    1    1    2    0    0 -0.25161502273E+02  0.11619247502E+03 -0.42395846904E+01  0.14359311433E+03  0.80419002446E+02 0.  1.
          1    1    1    2  501    0  0.81663907093E+01 -0.24939199288E+02 -0.96817301803E+02  0.10031073485E+03  0.00000000000E+00 0. -1.
         -2    1    1    2    0  502  0.16995111564E+02 -0.91253275737E+02  0.77240582093E+02  0.12075637321E+03  0.00000000000E+00 0.  1.
<mgrwt>
<rscale>  2 0.13129755E+03</rscale>
<asrwt>0</asrwt>
<pdfrwt beam="1">  1       21 0.26218763E-01 0.13129755E+03</pdfrwt>
<pdfrwt beam="2">  1       21 0.29882810E-01 0.13129755E+03</pdfrwt>
<totfact> 0.15140519E+05</totfact>
</mgrwt>
</event>
<event>
 5    1  0.1595802E+000  0.6752697E+02  0.7546771E-02  0.1368710E+00
         21   -1    0    0  501  502  0.00000000000E+00  0.00000000000E+00  0.51366562797E+02  0.51366562797E+02  0.00000000000E+00 0.  1.
         21   -1    0    0  502  503 -0.00000000000E+00 -0.00000000000E+00 -0.99318738332E+02  0.99318738332E+02  0.00000000000E+00 0. -1.
         24    1    1    2    0    0 -0.26915802822E+02  0.11609001965E+01 -0.13238198087E+02  0.85838650815E+02  0.80419002446E+02 0.  1.
          1    1    1    2  501    0  0.92392213956E+01  0.20380302029E+02 -0.29148670026E+01  0.22565823105E+02  0.00000000000E+00 0. -1.
         -2    1    1    2    0  503  0.17676581426E+02 -0.21541202225E+02 -0.31799110446E+02  0.42280827208E+02  0.00000000000E+00 0.  1.
<mgrwt>
<rscale>  2 0.67526974E+02</rscale>
<asrwt>0</asrwt>
<pdfrwt beam="1">  1       21 0.79025482E-02 0.67526974E+02</pdfrwt>
<pdfrwt beam="2">  1       21 0.15279806E-01 0.67526974E+02</pdfrwt>
<totfact> 0.44069079E+06</totfact>
</mgrwt>
</event>
<event>
 5    1  0.1595802E+000  0.1089907E+03  0.7546771E-02  0.1262450E+00
         21   -1    0    0  501  502  0.00000000000E+00  0.00000000000E+00  0.48340389662E+03  0.48340389662E+03  0.00000000000E+00 0. -1.
         21   -1    0    0  502  503 -0.00000000000E+00 -0.00000000000E+00 -0.71131510579E+02  0.71131510579E+02  0.00000000000E+00 0.  1.
         24    1    1    2    0    0  0.26943941385E+02  0.84062522373E+02  0.49212822001E+01  0.11951534888E+03  0.80419002446E+02 0.  1.
          1    1    1    2  501    0 -0.38391728559E+02 -0.52857121004E+02  0.39370615066E+03  0.39908937988E+03  0.00000000000E+00 0. -1.
         -2    1    1    2    0  503  0.11447787175E+02 -0.31205401369E+02  0.13644953176E+02  0.35930678437E+02  0.00000000000E+00 0.  1.
<mgrwt>
<rscale>  2 0.10899068E+03</rscale>
<asrwt>0</asrwt>
<pdfrwt beam="1">  1       21 0.74369828E-01 0.10899068E+03</pdfrwt>
<pdfrwt beam="2">  1       21 0.10943310E-01 0.10899068E+03</pdfrwt>
<totfact> 0.11578326E+05</totfact>
</mgrwt>
</event>
<event>
 5    1  0.1595802E+000  0.2058786E+03  0.7546771E-02  0.1144872E+00
         21   -1    0    0  503  502  0.00000000000E+00  0.00000000000E+00  0.59505358516E+03  0.59505358516E+03  0.00000000000E+00 0.  1.
         21   -1    0    0  501  503 -0.00000000000E+00 -0.00000000000E+00 -0.18090740143E+03  0.18090740143E+03  0.00000000000E+00 0.  1.
         24    1    1    2    0    0  0.96095176657E+02 -0.10924050538E+03  0.10003788548E+03  0.19401692060E+03  0.80419002446E+02 0.  1.
          1    1    1    2  501    0  0.30646090106E+02 -0.39570824453E+02 -0.10675374389E+03  0.11790417643E+03  0.00000000000E+00 0. -1.
         -2    1    1    2    0  502 -0.12674126676E+03  0.14881132983E+03  0.42086204214E+03  0.46403988956E+03  0.00000000000E+00 0.  1.
<mgrwt>
<rscale>  2 0.20587856E+03</rscale>
<asrwt>0</asrwt>
<pdfrwt beam="1">  1       21 0.91546705E-01 0.20587856E+03</pdfrwt>
<pdfrwt beam="2">  1       21 0.27831908E-01 0.20587856E+03</pdfrwt>
<totfact> 0.12338034E+04</totfact>
</mgrwt>
</event>
<event>
 5    1  0.1595802E+000  0.8305934E+02  0.7546771E-02  0.1320587E+00
         21   -1    0    0  501  502  0.00000000000E+00  0.00000000000E+00  0.49252202005E+02  0.49252202005E+02  0.00000000000E+00 0.  1.
         21   -1    0    0  502  503 -0.00000000000E+00 -0.00000000000E+00 -0.19035188916E+03  0.19035188916E+03  0.00000000000E+00 0.  1.
         24    1    1    2    0    0  0.12626039506E+02 -0.25676103351E+02 -0.33269327739E+02  0.91611916689E+02  0.80419002446E+02 0.  1.
          1    1    1    2  501    0  0.17532588633E+01 -0.26541814082E+02  0.79640581296E+00  0.26611577811E+02  0.00000000000E+00 0. -1.
         -2    1    1    2    0  503 -0.14379298369E+02  0.52217917432E+02 -0.10862676523E+03  0.12138059666E+03  0.00000000000E+00 0.  1.
<mgrwt>
<rscale>  2 0.83059339E+02</rscale>
<asrwt>0</asrwt>
<pdfrwt beam="1">  1       21 0.75772618E-02 0.83059339E+02</pdfrwt>
<pdfrwt beam="2">  1       21 0.29284906E-01 0.83059339E+02</pdfrwt>
<totfact> 0.14531667E+06</totfact>
</mgrwt>
</event>
<event>
 5    1  0.1595802E+000  0.8975927E+02  0.7546771E-02  0.1303436E+00
         21   -1    0    0  501  502  0.00000000000E+00  0.00000000000E+00  0.24431911379E+02  0.24431911379E+02  0.00000000000E+00 0.  1.
         21   -1    0    0  502  503 -0.00000000000E+00 -0.00000000000E+00 -0.33276667255E+03  0.33276667255E+03  0.00000000000E+00 0.  1.
         24    1    1    2    0    0 -0.39719974182E+02 -0.31635714993E+02 -0.18016132770E+03  0.20372485063E+03  0.80419002446E+02 0.  1.
          1    1    1    2  501    0  0.21503503055E+02 -0.20177225977E+02 -0.45542889983E+02  0.54255653344E+02  0.00000000000E+00 0. -1.
         -2    1    1    2    0  503  0.18216471127E+02  0.51812940970E+02 -0.82630543488E+02  0.99218079952E+02  0.00000000000E+00 0.  1.
<mgrwt>
<rscale>  2 0.89759268E+02</rscale>
<asrwt>0</asrwt>
<pdfrwt beam="1">  1       21 0.37587558E-02 0.89759268E+02</pdfrwt>
<pdfrwt beam="2">  1       21 0.51194871E-01 0.89759268E+02</pdfrwt>
<totfact> 0.15615690E+06</totfact>
</mgrwt>
</event>
<event>
 5    1  0.1595802E+000  0.1689785E+03  0.7546771E-02  0.1178917E+00
         21   -1    0    0  503  502  0.00000000000E+00  0.00000000000E+00  0.68003938882E+03  0.68003938882E+03  0.00000000000E+00 0.  1.
         21   -1    0    0  501  503 -0.00000000000E+00 -0.00000000000E+00 -0.82713946879E+02  0.82713946879E+02  0.00000000000E+00 0.  1.
         24    1    1    2    0    0 -0.12649786739E+03  0.74732110379E+02  0.37754447745E+03  0.41302983813E+03  0.80419002446E+02 0.  1.
          1    1    1    2  501    0  0.84803927990E+00 -0.40127504784E+02 -0.41505213177E+02  0.57737496757E+02  0.00000000000E+00 0. -1.
         -2    1    1    2    0  502  0.12564982811E+03 -0.34604605595E+02  0.26128617767E+03  0.29198600082E+03  0.00000000000E+00 0.  1.
<mgrwt>
<rscale>  2 0.16897854E+03</rscale>
<asrwt>0</asrwt>
<pdfrwt beam="1">  1       21 0.10462144E+00 0.16897854E+03</pdfrwt>
<pdfrwt beam="2">  1       21 0.12725223E-01 0.16897854E+03</pdfrwt>
<totfact> 0.39436811E+04</totfact>
</mgrwt>
</event>
<event>
 5    1  0.1595802E+000  0.9873283E+02  0.7546771E-02  0.1282983E+00
         21   -1    0    0  503  502  0.00000000000E+00  0.00000000000E+00  0.28703067565E+03  0.28703067565E+03  0.00000000000E+00 0. -1.
         21   -1    0    0  501  503 -0.00000000000E+00 -0.00000000000E+00 -0.50896127853E+02  0.50896127853E+02  0.00000000000E+00 0. -1.
         24    1    1    2    0    0 -0.70931607330E+02 -0.40262684969E+02  0.17999259391E+03  0.21334696280E+03  0.80419002446E+02 0. -1.
          1    1    1    2  501    0  0.37346180049E+02  0.29704658291E+02 -0.10816975316E+02  0.48929651985E+02  0.00000000000E+00 0. -1.
         -2    1    1    2    0  502  0.33585427281E+02  0.10558026677E+02  0.66958929200E+02  0.75650188715E+02  0.00000000000E+00 0.  1.
<mgrwt>
<rscale>  2 0.98732832E+02</rscale>
<asrwt>0</asrwt>
<pdfrwt beam="1">  1       21 0.44158564E-01 0.98732832E+02</pdfrwt>
<pdfrwt beam="2">  1       21 0.78301737E-02 0.98732832E+02</pdfrwt>
<totfact> 0.61791794E+05</totfact>
</mgrwt>
</event>
<event>
 5    1  0.1595802E+000  0.9039224E+02  0.7546771E-02  0.1301905E+00
         21   -1    0    0  501  502  0.00000000000E+00  0.00000000000E+00  0.60100740743E+03  0.60100740743E+03  0.00000000000E+00 0.  1.
         21   -1    0    0  502  503 -0.00000000000E+00 -0.00000000000E+00 -0.14779067426E+02  0.14779067426E+02  0.00000000000E+00 0.  1.
         24    1    1    2    0    0 -0.61912314544E+02  0.21599348176E+02  0.40999554680E+03  0.42292225158E+03  0.80419002446E+02 0.  1.
          1    1    1    2  501    0  0.77071042314E+01 -0.21474387293E+02  0.69613043625E+02  0.73256566996E+02  0.00000000000E+00 0. -1.
         -2    1    1    2    0  503  0.54205210313E+02 -0.12496088337E+00  0.10661974958E+03  0.11960765628E+03  0.00000000000E+00 0.  1.
<mgrwt>
<rscale>  2 0.90392241E+02</rscale>
<asrwt>0</asrwt>
<pdfrwt beam="1">  1       21 0.92462659E-01 0.90392241E+02</pdfrwt>
<pdfrwt beam="2">  1       21 0.22737031E-02 0.90392241E+02</pdfrwt>
<totfact> 0.98903811E+05</totfact>
</mgrwt>
</event>
<event>
 5    1  0.1595802E+000  0.7306538E+02  0.7546771E-02  0.1349969E+00
         21   -1    0    0  501  502  0.00000000000E+00  0.00000000000E+00  0.17737786747E+02  0.17737786747E+02  0.00000000000E+00 0. -1.
         21   -1    0    0  502  503 -0.00000000000E+00 -0.00000000000E+00 -0.57417361322E+03  0.57417361322E+03  0.00000000000E+00 0. -1.
         24    1    1    2    0    0 -0.47440804401E+02 -0.82554089572E+01 -0.46521863333E+03  0.47456756574E+03  0.80419002446E+02 0. -1.
          1    1    1    2  501    0  0.26113514449E+02  0.14891612763E+02 -0.78961674533E+01  0.31080946382E+02  0.00000000000E+00 0. -1.
         -2    1    1    2    0  503  0.21327289952E+02 -0.66362038059E+01 -0.83321025683E+02  0.86262887840E+02  0.00000000000E+00 0.  1.
<mgrwt>
<rscale>  2 0.73065377E+02</rscale>
<asrwt>0</asrwt>
<pdfrwt beam="1">  1       21 0.27288903E-02 0.73065377E+02</pdfrwt>
<pdfrwt beam="2">  1       21 0.88334402E-01 0.73065377E+02</pdfrwt>
<totfact> 0.81556326E+05</totfact>
</mgrwt>
</event>
<event>
 5    1  0.1595802E+000  0.6792936E+02  0.7546771E-02  0.1367279E+00
         21   -1    0    0  503  502  0.00000000000E+00  0.00000000000E+00  0.11885275241E+02  0.11885275241E+02  0.00000000000E+00 0.  1.
         21   -1    0    0  501  503 -0.00000000000E+00 -0.00000000000E+00 -0.49429178638E+03  0.49429178638E+03  0.00000000000E+00 0. -1.
         24    1    1    2    0    0 -0.15369789415E+02 -0.18205437460E+01 -0.22649121374E+03  0.24084233570E+03  0.80419002446E+02 0.  1.
          1    1    1    2  501    0  0.21792783489E+01  0.26175665122E+02 -0.21055247468E+03  0.21218449353E+03  0.00000000000E+00 0. -1.
         -2    1    1    2    0  502  0.13190511066E+02 -0.24355121376E+02 -0.45362822712E+02  0.53150232397E+02  0.00000000000E+00 0.  1.
<mgrwt>
<rscale>  2 0.67929362E+02</rscale>
<asrwt>0</asrwt>
<pdfrwt beam="1">  1       21 0.18285035E-02 0.67929362E+02</pdfrwt>
<pdfrwt beam="2">  1       21 0.76044905E-01 0.67929362E+02</pdfrwt>
<totfact> 0.21445991E+06</totfact>
</mgrwt>
</event>
<event>
 5    1  0.1595802E+000  0.7300610E+02  0.7546771E-02  0.1350159E+00
         21   -1    0    0  503  502  0.00000000000E+00  0.00000000000E+00  0.34010845342E+03  0.34010845342E+03  0.00000000000E+00 0.  1.
         21   -1    0    0  501  503 -0.00000000000E+00 -0.00000000000E+00 -0.37168258008E+02  0.37168258008E+02  0.00000000000E+00 0. -1.
         24    1    1    2    0    0  0.16752542631E+02  0.21980820116E+02  0.88545592590E+02  0.12276539439E+03  0.80419002446E+02 0.  1.
          1    1    1    2  501    0  0.19782700323E+02 -0.11860848206E+02 -0.11278761813E+02  0.25675774969E+02  0.00000000000E+00 0. -1.
         -2    1    1    2    0  502 -0.36535242955E+02 -0.10119971910E+02  0.22567336464E+03  0.22883554207E+03  0.00000000000E+00 0.  1.
<mgrwt>
<rscale>  2 0.73006104E+02</rscale>
<asrwt>0</asrwt>
<pdfrwt beam="1">  1       21 0.52324376E-01 0.73006104E+02</pdfrwt>
<pdfrwt beam="2">  1       21 0.57181938E-02 0.73006104E+02</pdfrwt>
<totfact> 0.74293172E+05</totfact>
</mgrwt>
</event>
<event>
 5    1  0.1595802E+000  0.9629002E+02  0.7546771E-02  0.1288297E+00
         21   -1    0    0  501  502  0.00000000000E+00  0.00000000000E+00  0.60189344521E+03  0.60189344521E+03  0.00000000000E+00 0. -1.
         21   -1    0    0  502  503 -0.00000000000E+00 -0.00000000000E+00 -0.31551508116E+02  0.31551508116E+02  0.00000000000E+00 0.  1.
         24    1    1    2    0    0  0.29787701983E+02  0.52118428540E+02  0.14846039006E+03  0.17919637595E+03  0.80419002446E+02 0.  1.
          1    1    1    2  501    0  0.21567398620E+02 -0.41698613728E+01  0.35986189413E+03  0.36053172298E+03  0.00000000000E+00 0. -1.
         -2    1    1    2    0  503 -0.51355100602E+02 -0.47948567167E+02  0.62019652899E+02  0.93716854391E+02  0.00000000000E+00 0.  1.
<mgrwt>
<rscale>  2 0.96290023E+02</rscale>
<asrwt>0</asrwt>
<pdfrwt beam="1">  1       21 0.92598983E-01 0.96290023E+02</pdfrwt>
<pdfrwt beam="2">  1       21 0.48540786E-02 0.96290023E+02</pdfrwt>
<totfact> 0.28515689E+05</totfact>
</mgrwt>
</event>
<event>
 5    1  0.1595802E+000  0.8368897E+02  0.7546771E-02  0.1318897E+00
         21   -1    0    0  503  502  0.00000000000E+00  0.00000000000E+00  0.35865887333E+03  0.35865887333E+03  0.00000000000E+00 0.  1.
         21   -1    0    0  501  503 -0.00000000000E+00 -0.00000000000E+00 -0.77401996654E+02  0.77401996654E+02  0.00000000000E+00 0.  1.
         24    1    1    2    0    0  0.34389680191E+02 -0.29039758440E+02 -0.52335903568E+01  0.92306901672E+02  0.80419002446E+02 0.  1.
          1    1    1    2  501    0 -0.21132837472E+02  0.47791248110E+02 -0.39526347626E+01  0.52404422878E+02  0.00000000000E+00 0. -1.
         -2    1    1    2    0  502 -0.13256842720E+02 -0.18751489670E+02  0.29044310180E+03  0.29134954543E+03  0.00000000000E+00 0.  1.
<mgrwt>
<rscale>  2 0.83688965E+02</rscale>
<asrwt>0</asrwt>
<pdfrwt beam="1">  1       21 0.55178287E-01 0.83688965E+02</pdfrwt>
<pdfrwt beam="2">  1       21 0.11908000E-01 0.83688965E+02</pdfrwt>
<totfact> 0.19044197E+05</totfact>
</mgrwt>
</event>
<event>
 5    1  0.1595802E+000  0.8913356E+02  0.7546771E-02  0.1304964E+00
         21   -1    0    0  503  502  0.00000000000E+00  0.00000000000E+00  0.17760043205E+03  0.17760043205E+03  0.00000000000E+00 0.  1.
         21   -1    0    0  501  503 -0.00000000000E+00 -0.00000000000E+00 -0.50531034328E+02  0.50531034328E+02  0.00000000000E+00 0.  1.
         24    1    1    2    0    0 -0.14493474312E+02 -0.24775054120E+02  0.46440725147E+02  0.97199902319E+02  0.80419002446E+02 0.  1.
          1    1    1    2  501    0  0.20765685629E+02 -0.30693019535E+02  0.56974351356E+01  0.37493144906E+02  0.00000000000E+00 0. -1.
         -2    1    1    2    0  502 -0.62722113171E+01  0.55468073655E+02  0.74931237439E+02  0.93438419153E+02  0.00000000000E+00 0.  1.
<mgrwt>
<rscale>  2 0.89133560E+02</rscale>
<asrwt>0</asrwt>
<pdfrwt beam="1">  1       21 0.27323143E-01 0.89133560E+02</pdfrwt>
<pdfrwt beam="2">  1       21 0.77740054E-02 0.89133560E+02</pdfrwt>
<totfact> 0.15901792E+06</totfact>
</mgrwt>
</event>
<event>
 5    1  0.1595802E+000  0.8061686E+02  0.7546771E-02  0.1327310E+00
         21   -1    0    0  503  502  0.00000000000E+00  0.00000000000E+00  0.24744255546E+04  0.24744255546E+04  0.00000000000E+00 0.  1.
         21   -1    0    0  501  503 -0.00000000000E+00 -0.00000000000E+00 -0.32782958391E+01  0.32782958391E+01  0.00000000000E+00 0.  1.
         24    1    1    2    0    0 -0.55372088210E+02 -0.15777029807E+02  0.11001613666E+04  0.11045982217E+04  0.80419002446E+02 0.  1.
          1    1    1    2  501    0  0.36385417527E+02 -0.18344834596E+01  0.37100343672E+03  0.37278789411E+03  0.00000000000E+00 0. -1.
         -2    1    1    2    0  502  0.18986670683E+02  0.17611513267E+02  0.99998245545E+03  0.10003177347E+04  0.00000000000E+00 0.  1.
<mgrwt>
<rscale>  2 0.80616859E+02</rscale>
<asrwt>0</asrwt>
<pdfrwt beam="1">  1       21 0.38067936E+00 0.80616859E+02</pdfrwt>
<pdfrwt beam="2">  1       21 0.50435518E-03 0.80616859E+02</pdfrwt>
<totfact> 0.14753050E+05</totfact>
</mgrwt>
</event>
<event>
 5    1  0.1595802E+000  0.7607045E+02  0.7546771E-02  0.1340588E+00
         21   -1    0    0  503  502  0.00000000000E+00  0.00000000000E+00  0.10023302672E+03  0.10023302672E+03  0.00000000000E+00 0. -1.
         21   -1    0    0  501  503 -0.00000000000E+00 -0.00000000000E+00 -0.68014473284E+02  0.68014473284E+02  0.00000000000E+00 0.  1.
         24    1    1    2    0    0  0.17046582153E+02 -0.23372404991E+02  0.46152263035E+02  0.97129308737E+02  0.80419002446E+02 0. -1.
          1    1    1    2  501    0 -0.37296532462E+02  0.27079626385E+02 -0.19103157705E+02  0.49892565911E+02  0.00000000000E+00 0. -1.
         -2    1    1    2    0  502  0.20249950308E+02 -0.37072213946E+01  0.51694481039E+01  0.21225625354E+02  0.00000000000E+00 0.  1.
<mgrwt>
<rscale>  2 0.76070448E+02</rscale>
<asrwt>0</asrwt>
<pdfrwt beam="1">  1       21 0.15420466E-01 0.76070448E+02</pdfrwt>
<pdfrwt beam="2">  1       21 0.10463765E-01 0.76070448E+02</pdfrwt>
<totfact> 0.27034534E+06</totfact>
</mgrwt>
</event>
<event>
 5    1  0.1595802E+000  0.8424633E+02  0.7546771E-02  0.1317415E+00
         21   -1    0    0  501  502  0.00000000000E+00  0.00000000000E+00  0.10185991022E+04  0.10185991022E+04  0.00000000000E+00 0.  1.
         21   -1    0    0  502  503 -0.00000000000E+00 -0.00000000000E+00 -0.10344836103E+02  0.10344836103E+02  0.00000000000E+00 0.  1.
         24    1    1    2    0    0  0.19544235441E+02 -0.23477203413E+02  0.42495077064E+03  0.43357067433E+03  0.80419002446E+02 0.  0.
          1    1    1    2  501    0 -0.38484779732E+02  0.41305751489E+02  0.55106606303E+03  0.55395040319E+03  0.00000000000E+00 0. -1.
         -2    1    1    2    0  503  0.18940544291E+02 -0.17828548076E+02  0.32237432382E+02  0.41422860731E+02  0.00000000000E+00 0.  1.
<mgrwt>
<rscale>  2 0.84246327E+02</rscale>
<asrwt>0</asrwt>
<pdfrwt beam="1">  1       21 0.15670747E+00 0.84246327E+02</pdfrwt>
<pdfrwt beam="2">  1       21 0.15915141E-02 0.84246327E+02</pdfrwt>
<totfact> 0.48973265E+05</totfact>
</mgrwt>
</event>
<event>
 5    1  0.1595802E+000  0.7893308E+02  0.7546771E-02  0.1332107E+00
         21   -1    0    0  501  502  0.00000000000E+00  0.00000000000E+00  0.15004659243E+02  0.15004659243E+02  0.00000000000E+00 0. -1.
         21   -1    0    0  502  503 -0.00000000000E+00 -0.00000000000E+00 -0.91141955143E+03  0.91141955143E+03  0.00000000000E+00 0.  1.
         24    1    1    2    0    0  0.25355292275E+02  0.35363813758E+02 -0.53326197707E+03  0.54104439957E+03  0.80419002446E+02 0.  0.
          1    1    1    2  501    0 -0.35270944132E+02 -0.64413656105E+01 -0.20371424358E+02  0.41237429857E+02  0.00000000000E+00 0. -1.
         -2    1    1    2    0  503  0.99156518572E+01 -0.28922448147E+02 -0.34278149076E+03  0.34414238124E+03  0.00000000000E+00 0.  1.
<mgrwt>
<rscale>  2 0.78933077E+02</rscale>
<asrwt>0</asrwt>
<pdfrwt beam="1">  1       21 0.23084089E-02 0.78933077E+02</pdfrwt>
<pdfrwt beam="2">  1       21 0.14021841E+00 0.78933077E+02</pdfrwt>
<totfact> 0.35939611E+05</totfact>
</mgrwt>
</event>
<event>
 5    1  0.1595802E+000  0.8637325E+02  0.7546771E-02  0.1311880E+00
         21   -1    0    0  501  502  0.00000000000E+00  0.00000000000E+00  0.11986956134E+03  0.11986956134E+03  0.00000000000E+00 0.  1.
         21   -1    0    0  502  503 -0.00000000000E+00 -0.00000000000E+00 -0.90437590674E+02  0.90437590674E+02  0.00000000000E+00 0. -1.
         24    1    1    2    0    0 -0.44215161662E+02 -0.65229189416E+00 -0.36477207318E+02  0.98758334401E+02  0.80419002446E+02 0. -1.
          1    1    1    2  501    0  0.82233239482E+01  0.32124571708E+02  0.52145007060E+02  0.61795735496E+02  0.00000000000E+00 0. -1.
         -2    1    1    2    0  503  0.35991837714E+02 -0.31472279814E+02  0.13764170921E+02  0.49753082114E+02  0.00000000000E+00 0.  1.
<mgrwt>
<rscale>  2 0.86373246E+02</rscale>
<asrwt>0</asrwt>
<pdfrwt beam="1">  1       21 0.18441471E-01 0.86373246E+02</pdfrwt>
<pdfrwt beam="2">  1       21 0.13913475E-01 0.86373246E+02</pdfrwt>
<totfact> 0.11964054E+06</totfact>
</mgrwt>
</event>
<event>
 5    1  0.1595802E+000  0.1281398E+03  0.7546771E-02  0.1230242E+00
         21   -1    0    0  503  502  0.00000000000E+00  0.00000000000E+00  0.77889311751E+02  0.77889311751E+02  0.00000000000E+00 0.  1.
         21   -1    0    0  501  503 -0.00000000000E+00 -0.00000000000E+00 -0.51115853136E+03  0.51115853136E+03  0.00000000000E+00 0. -1.
         24    1    1    2    0    0  0.10058618429E+03 -0.56405871577E+02 -0.26199966950E+03  0.29733860427E+03  0.80419002446E+02 0. -1.
          1    1    1    2  501    0 -0.46040583520E+02  0.31073189743E+02 -0.21194617402E+03  0.21910376339E+03  0.00000000000E+00 0. -1.
         -2    1    1    2    0  502 -0.54545600767E+02  0.25332681834E+02  0.40676623910E+02  0.72605475446E+02  0.00000000000E+00 0.  1.
<mgrwt>
<rscale>  2 0.12813980E+03</rscale>
<asrwt>0</asrwt>
<pdfrwt beam="1">  1       21 0.11982971E-01 0.12813980E+03</pdfrwt>
<pdfrwt beam="2">  1       21 0.78639775E-01 0.12813980E+03</pdfrwt>
<totfact> 0.86462165E+04</totfact>
</mgrwt>
</event>
<event>
 5    1  0.1595802E+000  0.7644080E+02  0.7546771E-02  0.1339467E+00
         21   -1    0    0  501  502  0.00000000000E+00  0.00000000000E+00  0.38206938334E+02  0.38206938334E+02  0.00000000000E+00 0.  1.
         21   -1    0    0  502  503 -0.00000000000E+00 -0.00000000000E+00 -0.17004504165E+03  0.17004504165E+03  0.00000000000E+00 0. -1.
         24    1    1    2    0    0 -0.23741467405E+02  0.33215117333E+02 -0.50010432453E+02  0.10312691502E+03  0.80419002446E+02 0.  0.
          1    1    1    2  501    0 -0.13956191737E+02 -0.16054130162E+02 -0.13409892127E+02  0.25146283819E+02  0.00000000000E+00 0. -1.
         -2    1    1    2    0  503  0.37697659143E+02 -0.17160987171E+02 -0.68417778732E+02  0.79978781137E+02  0.00000000000E+00 0.  1.
<mgrwt>
<rscale>  2 0.76440796E+02</rscale>
<asrwt>0</asrwt>
<pdfrwt beam="1">  1       21 0.58779904E-02 0.76440796E+02</pdfrwt>
<pdfrwt beam="2">  1       21 0.26160776E-01 0.76440796E+02</pdfrwt>
<totfact> 0.27475744E+06</totfact>
</mgrwt>
</event>
<event>
 5    1  0.1595802E+000  0.7965994E+02  0.7546771E-02  0.1330019E+00
         21   -1    0    0  501  502  0.00000000000E+00  0.00000000000E+00  0.75105771900E+02  0.75105771900E+02  0.00000000000E+00 0. -1.
         21   -1    0    0  502  503 -0.00000000000E+00 -0.00000000000E+00 -0.91156607499E+02  0.91156607499E+02  0.00000000000E+00 0. -1.
         24    1    1    2    0    0  0.54977608136E+02 -0.22390813432E+02 -0.48379132895E+00  0.99956670267E+02  0.80419002446E+02 0. -1.
          1    1    1    2  501    0 -0.35432358370E+02  0.14685722196E+02  0.27213224765E+01  0.38451632633E+02  0.00000000000E+00 0. -1.
         -2    1    1    2    0  503 -0.19545249765E+02  0.77050912361E+01 -0.18288366747E+02  0.27854076499E+02  0.00000000000E+00 0.  1.
<mgrwt>
<rscale>  2 0.79659942E+02</rscale>
<asrwt>0</asrwt>
<pdfrwt beam="1">  1       21 0.11554734E-01 0.79659942E+02</pdfrwt>
<pdfrwt beam="2">  1       21 0.14024093E-01 0.79659942E+02</pdfrwt>
<totfact> 0.26997129E+06</totfact>
</mgrwt>
</event>
<event>
 5    1  0.1595802E+000  0.7455381E+02  0.7546771E-02  0.1345258E+00
         21   -1    0    0  501  502  0.00000000000E+00  0.00000000000E+00  0.53582390875E+03  0.53582390875E+03  0.00000000000E+00 0. -1.
         21   -1    0    0  502  503 -0.00000000000E+00 -0.00000000000E+00 -0.20046223357E+03  0.20046223357E+03  0.00000000000E+00 0.  1.
         24    1    1    2    0    0  0.17942682698E+02  0.37183127149E+02  0.32396932905E+02  0.96027610732E+02  0.80419002446E+02 0. -1.
          1    1    1    2  501    0  0.90036759925E+01 -0.29273261060E+02  0.46994058833E+03  0.47093751874E+03  0.00000000000E+00 0. -1.
         -2    1    1    2    0  503 -0.26946358691E+02 -0.79098660888E+01 -0.16697584605E+03  0.16932101285E+03  0.00000000000E+00 0.  1.
<mgrwt>
<rscale>  2 0.74553806E+02</rscale>
<asrwt>0</asrwt>
<pdfrwt beam="1">  1       21 0.82434447E-01 0.74553806E+02</pdfrwt>
<pdfrwt beam="2">  1       21 0.30840344E-01 0.74553806E+02</pdfrwt>
<totfact> 0.14409869E+04</totfact>
</mgrwt>
</event>
<event>
 5    1  0.1595802E+000  0.1237788E+03  0.7546771E-02  0.1236990E+00
         21   -1    0    0  501  502  0.00000000000E+00  0.00000000000E+00  0.34084814029E+03  0.34084814029E+03  0.00000000000E+00 0.  1.
         21   -1    0    0  502  503 -0.00000000000E+00 -0.00000000000E+00 -0.10067276509E+03  0.10067276509E+03  0.00000000000E+00 0. -1.
         24    1    1    2    0    0 -0.50350109933E+02 -0.71389796923E+02  0.43338963869E+02  0.12640062665E+03  0.80419002446E+02 0.  0.
          1    1    1    2  501    0 -0.12129457437E+02 -0.16811416250E+02  0.20563207398E+03  0.20667437505E+03  0.00000000000E+00 0. -1.
         -2    1    1    2    0  503  0.62479567369E+02  0.88201213173E+02 -0.87956626499E+01  0.10844590368E+03  0.00000000000E+00 0.  1.
<mgrwt>
<rscale>  2 0.12377878E+03</rscale>
<asrwt>0</asrwt>
<pdfrwt beam="1">  1       21 0.52438175E-01 0.12377878E+03</pdfrwt>
<pdfrwt beam="2">  1       21 0.15488118E-01 0.12377878E+03</pdfrwt>
<totfact> 0.13073082E+05</totfact>
</mgrwt>
</event>
<event>
 5    1  0.1821333E+000  0.1214381E+03  0.7546771E-02  0.1240743E+00
         21   -1    0    0  503  502  0.00000000000E+00  0.00000000000E+00  0.18320358245E+03  0.18320358245E+03  0.00000000000E+00 0.  1.
         21   -1    0    0  501  503 -0.00000000000E+00 -0.00000000000E+00 -0.26612714186E+03  0.26612714186E+03  0.00000000000E+00 0. -1.
         24    1    1    2    0    0  0.40644139021E+02  0.42308510092E+02 -0.11952033552E+02  0.10025977819E+03  0.80419002446E+02 0. -1.
          1    1    1    2  501    0  0.28443033117E+02 -0.64724727366E+02 -0.19384519871E+03  0.20633530365E+03  0.00000000000E+00 0. -1.
         -2    1    1    2    0  502 -0.69087172137E+02  0.22416217275E+02  0.12287367285E+03  0.14273564247E+03  0.00000000000E+00 0.  1.
<mgrwt>
<rscale>  2 0.12143813E+03</rscale>
<asrwt>0</asrwt>
<pdfrwt beam="1">  1       21 0.28185167E-01 0.12143813E+03</pdfrwt>
<pdfrwt beam="2">  1       21 0.40942637E-01 0.12143813E+03</pdfrwt>
<totfact> 0.71354431E+04</totfact>
</mgrwt>
</event>
<event>
 5    1  0.1595802E+000  0.6857812E+02  0.7546771E-02  0.1364996E+00
         21   -1    0    0  503  502  0.00000000000E+00  0.00000000000E+00  0.31328597958E+03  0.31328597958E+03  0.00000000000E+00 0.  1.
         21   -1    0    0  501  503 -0.00000000000E+00 -0.00000000000E+00 -0.76796535498E+02  0.76796535498E+02  0.00000000000E+00 0. -1.
         24    1    1    2    0    0 -0.36744920754E+02  0.12033079445E+02  0.96201844470E+01  0.89748248480E+02  0.80419002446E+02 0.  0.
          1    1    1    2  501    0  0.13194073246E+02 -0.19210251789E+02 -0.32393247562E+02  0.39905385981E+02  0.00000000000E+00 0. -1.
         -2    1    1    2    0  502  0.23550847508E+02  0.71771723448E+01  0.25926250720E+03  0.26042888062E+03  0.00000000000E+00 0.  1.
<mgrwt>
<rscale>  2 0.68578119E+02</rscale>
<asrwt>0</asrwt>
<pdfrwt beam="1">  1       21 0.48197842E-01 0.68578119E+02</pdfrwt>
<pdfrwt beam="2">  1       21 0.11814852E-01 0.68578119E+02</pdfrwt>
<totfact> 0.25549128E+05</totfact>
</mgrwt>
</event>
<event>
 5    1  0.1595802E+000  0.6724450E+02  0.7546771E-02  0.1369722E+00
         21   -1    0    0  501  502  0.00000000000E+00  0.00000000000E+00  0.28394041699E+02  0.28394041699E+02  0.00000000000E+00 0.  1.
         21   -1    0    0  502  503 -0.00000000000E+00 -0.00000000000E+00 -0.25092796813E+03  0.25092796813E+03  0.00000000000E+00 0. -1.
         24    1    1    2    0    0  0.73794505371E+01  0.44642578950E+00 -0.10083446859E+03  0.12918769909E+03  0.80419002446E+02 0.  1.
          1    1    1    2  501    0 -0.30365693486E+02  0.28936422192E+01 -0.47141903033E+01  0.30865386704E+02  0.00000000000E+00 0. -1.
         -2    1    1    2    0  503  0.22986242949E+02 -0.33400680087E+01 -0.11698526754E+03  0.11926892403E+03  0.00000000000E+00 0.  1.
<mgrwt>
<rscale>  2 0.67244501E+02</rscale>
<asrwt>0</asrwt>
<pdfrwt beam="1">  1       21 0.43683141E-02 0.67244501E+02</pdfrwt>
<pdfrwt beam="2">  1       21 0.38604303E-01 0.67244501E+02</pdfrwt>
<totfact> 0.21214247E+06</totfact>
</mgrwt>
</event>
<event>
 5    1  0.1595802E+000  0.8227514E+02  0.7546771E-02  0.1322716E+00
         21   -1    0    0  501  502  0.00000000000E+00  0.00000000000E+00  0.47826119223E+02  0.47826119223E+02  0.00000000000E+00 0.  1.
         21   -1    0    0  502  503 -0.00000000000E+00 -0.00000000000E+00 -0.21979865136E+03  0.21979865136E+03  0.00000000000E+00 0. -1.
         24    1    1    2    0    0 -0.40694352861E+01  0.34340129612E+02 -0.23878945756E+02  0.90737119252E+02  0.80419002446E+02 0.  1.
          1    1    1    2  501    0  0.12415286376E+02 -0.54129128770E+02 -0.44707000949E+02  0.71293883686E+02  0.00000000000E+00 0. -1.
         -2    1    1    2    0  503 -0.83458510899E+01  0.19788999158E+02 -0.10338658543E+03  0.10559376764E+03  0.00000000000E+00 0.  1.
<mgrwt>
<rscale>  2 0.82275142E+02</rscale>
<asrwt>0</asrwt>
<pdfrwt beam="1">  1       21 0.73578644E-02 0.82275142E+02</pdfrwt>
<pdfrwt beam="2">  1       21 0.33815177E-01 0.82275142E+02</pdfrwt>
<totfact> 0.11593329E+06</totfact>
</mgrwt>
</event>
<event>
 5    1  0.1595802E+000  0.6584870E+02  0.7546771E-02  0.1374807E+00
         21   -1    0    0  503  502  0.00000000000E+00  0.00000000000E+00  0.25999362020E+02  0.25999362020E+02  0.00000000000E+00 0. -1.
         21   -1    0    0  501  503 -0.00000000000E+00 -0.00000000000E+00 -0.32002510683E+03  0.32002510683E+03  0.00000000000E+00 0. -1.
         24    1    1    2    0    0 -0.21164736069E+02  0.13497729778E+02 -0.63605627339E+02  0.10556053498E+03  0.80419002446E+02 0. -1.
          1    1    1    2  501    0  0.24376279702E+02  0.80459977177E+01 -0.20659096979E+03  0.20817965773E+03  0.00000000000E+00 0. -1.
         -2    1    1    2    0  502 -0.32115436335E+01 -0.21543727496E+02 -0.23829147679E+02  0.32284276142E+02  0.00000000000E+00 0.  1.
<mgrwt>
<rscale>  2 0.65848705E+02</rscale>
<asrwt>0</asrwt>
<pdfrwt beam="1">  1       21 0.39999020E-02 0.65848705E+02</pdfrwt>
<pdfrwt beam="2">  1       21 0.49234631E-01 0.65848705E+02</pdfrwt>
<totfact> 0.15109735E+06</totfact>
</mgrwt>
</event>
<event>
 5    1  0.1595802E+000  0.7108226E+02  0.7546771E-02  0.1356451E+00
         21   -1    0    0  503  502  0.00000000000E+00  0.00000000000E+00  0.11230069831E+03  0.11230069831E+03  0.00000000000E+00 0.  1.
         21   -1    0    0  501  503 -0.00000000000E+00 -0.00000000000E+00 -0.51937905838E+02  0.51937905838E+02  0.00000000000E+00 0.  1.
         24    1    1    2    0    0 -0.25896934381E+02 -0.22801759958E+02  0.65546602812E+02  0.10933501069E+03  0.80419002446E+02 0.  1.
          1    1    1    2  501    0  0.24366950668E+02 -0.65755636229E+01 -0.26607966176E+01  0.25378458591E+02  0.00000000000E+00 0. -1.
         -2    1    1    2    0  502  0.15299837138E+01  0.29377323581E+02 -0.25230137198E+01  0.29525134871E+02  0.00000000000E+00 0.  1.
<mgrwt>
<rscale>  2 0.71082255E+02</rscale>
<asrwt>0</asrwt>
<pdfrwt beam="1">  1       21 0.17277031E-01 0.71082255E+02</pdfrwt>
<pdfrwt beam="2">  1       21 0.79904470E-02 0.71082255E+02</pdfrwt>
<totfact> 0.34869616E+06</totfact>
</mgrwt>
</event>
<event>
 5    1  0.1595802E+000  0.1412992E+03  0.7546771E-02  0.1211591E+00
         21   -1    0    0  501  502  0.00000000000E+00  0.00000000000E+00  0.16724447194E+04  0.16724447194E+04  0.00000000000E+00 0. -1.
         21   -1    0    0  502  503 -0.00000000000E+00 -0.00000000000E+00 -0.49662727128E+02  0.49662727128E+02  0.00000000000E+00 0. -1.
         24    1    1    2    0    0 -0.24556808066E+02  0.41658338317E+02  0.14842761795E+04  0.14872395392E+04  0.80419002446E+02 0. -1.
          1    1    1    2  501    0  0.47988066270E+02 -0.10811875475E+03  0.97815907452E+02  0.15349420635E+03  0.00000000000E+00 0. -1.
         -2    1    1    2    0  503 -0.23431258204E+02  0.66460416431E+02  0.40689905287E+02  0.81373700944E+02  0.00000000000E+00 0.  1.
<mgrwt>
<rscale>  2 0.14129922E+03</rscale>
<asrwt>0</asrwt>
<pdfrwt beam="1">  1       21 0.25729914E+00 0.14129922E+03</pdfrwt>
<pdfrwt beam="2">  1       21 0.76404208E-02 0.14129922E+03</pdfrwt>
<totfact> 0.82943195E+03</totfact>
</mgrwt>
</event>
<event>
 5    1  0.1595802E+000  0.9714931E+02  0.7546771E-02  0.1286407E+00
         21   -1    0    0  503  502  0.00000000000E+00  0.00000000000E+00  0.20657181784E+02  0.20657181784E+02  0.00000000000E+00 0.  1.
         21   -1    0    0  501  503 -0.00000000000E+00 -0.00000000000E+00 -0.95676074880E+03  0.95676074880E+03  0.00000000000E+00 0.  1.
         24    1    1    2    0    0  0.30987850510E+02 -0.18774697524E+02 -0.50399584232E+03  0.51165590114E+03  0.80419002446E+02 0.  1.
          1    1    1    2  501    0  0.33912297955E+02 -0.96264264685E+01 -0.36962354225E+03  0.37130078781E+03  0.00000000000E+00 0. -1.
         -2    1    1    2    0  502 -0.64900148465E+02  0.28401123993E+02 -0.62484182443E+02  0.94461241631E+02  0.00000000000E+00 0.  1.
<mgrwt>
<rscale>  2 0.97149305E+02</rscale>
<asrwt>0</asrwt>
<pdfrwt beam="1">  1       21 0.31780286E-02 0.97149305E+02</pdfrwt>
<pdfrwt beam="2">  1       21 0.14719393E+00 0.97149305E+02</pdfrwt>
<totfact> 0.18814092E+05</totfact>
</mgrwt>
</event>
<event>
 5    1  0.1595802E+000  0.9905884E+02  0.7546771E-02  0.1282288E+00
         21   -1    0    0  503  502  0.00000000000E+00  0.00000000000E+00  0.40728764924E+02  0.40728764924E+02  0.00000000000E+00 0. -1.
         21   -1    0    0  501  503 -0.00000000000E+00 -0.00000000000E+00 -0.26202207046E+03  0.26202207046E+03  0.00000000000E+00 0.  1.
         24    1    1    2    0    0  0.55136726476E+02 -0.58869297732E+01 -0.94506367441E+02  0.13591682747E+03  0.80419002446E+02 0. -1.
          1    1    1    2  501    0  0.14817325213E+02 -0.20821497999E+02 -0.64695035525E+02  0.69559582568E+02  0.00000000000E+00 0. -1.
         -2    1    1    2    0  502 -0.69954051689E+02  0.26708427772E+02 -0.62091902572E+02  0.97274425348E+02  0.00000000000E+00 0.  1.
<mgrwt>
<rscale>  2 0.99058845E+02</rscale>
<asrwt>0</asrwt>
<pdfrwt beam="1">  1       21 0.62659641E-02 0.99058845E+02</pdfrwt>
<pdfrwt beam="2">  1       21 0.40311086E-01 0.99058845E+02</pdfrwt>
<totfact> 0.10827429E+06</totfact>
</mgrwt>
</event>
<event>
 5    1  0.1595802E+000  0.1333776E+03  0.7546771E-02  0.1222528E+00
         21   -1    0    0  503  502  0.00000000000E+00  0.00000000000E+00  0.12229419427E+03  0.12229419427E+03  0.00000000000E+00 0. -1.
         21   -1    0    0  501  503 -0.00000000000E+00 -0.00000000000E+00 -0.24736680669E+03  0.24736680669E+03  0.00000000000E+00 0. -1.
         24    1    1    2    0    0  0.23417652070E+02 -0.11698182088E+03 -0.14129040224E+03  0.20165149779E+03  0.80419002446E+02 0. -1.
          1    1    1    2  501    0  0.41072484001E+01  0.53867571498E+02 -0.49172911940E+02  0.73051762588E+02  0.00000000000E+00 0. -1.
         -2    1    1    2    0  502 -0.27524900470E+02  0.63114249378E+02  0.65390701749E+02  0.94957740578E+02  0.00000000000E+00 0.  1.
<mgrwt>
<rscale>  2 0.13337761E+03</rscale>
<asrwt>0</asrwt>
<pdfrwt beam="1">  1       21 0.18814491E-01 0.13337761E+03</pdfrwt>
<pdfrwt beam="2">  1       21 0.38056432E-01 0.13337761E+03</pdfrwt>
<totfact> 0.17528411E+05</totfact>
</mgrwt>
</event>
<event>
 5    1  0.1595802E+000  0.7581660E+02  0.7546771E-02  0.1341361E+00
         21   -1    0    0  501  502  0.00000000000E+00  0.00000000000E+00  0.16217197317E+01  0.16217197317E+01  0.00000000000E+00 0. -1.
         21   -1    0    0  502  503 -0.00000000000E+00 -0.00000000000E+00 -0.36925917873E+04  0.36925917873E+04  0.00000000000E+00 0. -1.
         24    1    1    2    0    0 -0.72878034432E+01  0.93434907275E+00 -0.23295746498E+04  0.23309738845E+04  0.80419002446E+02 0.  0.
          1    1    1    2  501    0  0.34932364862E+02  0.16040375713E+02 -0.74748249384E+03  0.74847020139E+03  0.00000000000E+00 0. -1.
         -2    1    1    2    0  503 -0.27644561419E+02 -0.16974724785E+02 -0.61391292397E+03  0.61476942123E+03  0.00000000000E+00 0.  1.
<mgrwt>
<rscale>  2 0.75816596E+02</rscale>
<asrwt>0</asrwt>
<pdfrwt beam="1">  1       21 0.24949887E-03 0.75816596E+02</pdfrwt>
<pdfrwt beam="2">  1       21 0.56808303E+00 0.75816596E+02</pdfrwt>
<totfact> 0.24521445E+04</totfact>
</mgrwt>
</event>
<event>
 5    1  0.1595802E+000  0.8217566E+02  0.7546771E-02  0.1322988E+00
         21   -1    0    0  501  502  0.00000000000E+00  0.00000000000E+00  0.47050215600E+02  0.47050215600E+02  0.00000000000E+00 0. -1.
         21   -1    0    0  502  503 -0.00000000000E+00 -0.00000000000E+00 -0.22727436868E+03  0.22727436868E+03  0.00000000000E+00 0. -1.
         24    1    1    2    0    0  0.13390671158E+02 -0.60948198427E+02 -0.17445363794E+03  0.20197841645E+03  0.80419002446E+02 0. -1.
          1    1    1    2  501    0 -0.68285675221E+01  0.21130211068E+02  0.15158555180E+02  0.26886743003E+02  0.00000000000E+00 0. -1.
         -2    1    1    2    0  503 -0.65621036360E+01  0.39817987359E+02 -0.20929070321E+02  0.45459424831E+02  0.00000000000E+00 0.  1.
<mgrwt>
<rscale>  2 0.82175655E+02</rscale>
<asrwt>0</asrwt>
<pdfrwt beam="1">  1       21 0.72384947E-02 0.82175655E+02</pdfrwt>
<pdfrwt beam="2">  1       21 0.34965287E-01 0.82175655E+02</pdfrwt>
<totfact> 0.11171814E+06</totfact>
</mgrwt>
</event>
<event>
 5    1  0.1595802E+000  0.6972370E+02  0.7546771E-02  0.1361035E+00
         21   -1    0    0  503  502  0.00000000000E+00  0.00000000000E+00  0.37622802169E+02  0.37622802169E+02  0.00000000000E+00 0. -1.
         21   -1    0    0  501  503 -0.00000000000E+00 -0.00000000000E+00 -0.28082178984E+03  0.28082178984E+03  0.00000000000E+00 0. -1.
         24    1    1    2    0    0 -0.28636186778E+02  0.96490827651E+01 -0.79472608300E+02  0.11703096776E+03  0.80419002446E+02 0. -1.
          1    1    1    2  501    0  0.26897377952E+02  0.13658131878E+02 -0.17348350289E+03  0.17608673795E+03  0.00000000000E+00 0. -1.
         -2    1    1    2    0  502  0.17388088260E+01 -0.23307214643E+02  0.97571235104E+01  0.25326886302E+02  0.00000000000E+00 0.  1.
<mgrwt>
<rscale>  2 0.69723695E+02</rscale>
<asrwt>0</asrwt>
<pdfrwt beam="1">  1       21 0.57881233E-02 0.69723695E+02</pdfrwt>
<pdfrwt beam="2">  1       21 0.43203353E-01 0.69723695E+02</pdfrwt>
<totfact> 0.10693572E+06</totfact>
</mgrwt>
</event>
<event>
 5    1  0.1595802E+000  0.1465112E+03  0.7546771E-02  0.1204827E+00
         21   -1    0    0  501  502  0.00000000000E+00  0.00000000000E+00  0.59113745453E+02  0.59113745453E+02  0.00000000000E+00 0. -1.
         21   -1    0    0  502  503 -0.00000000000E+00 -0.00000000000E+00 -0.44431750295E+03  0.44431750295E+03  0.00000000000E+00 0. -1.
         24    1    1    2    0    0 -0.12826172771E+03 -0.94563834023E+01 -0.11037796218E+03  0.18759265570E+03  0.80419002446E+02 0. -1.
          1    1    1    2  501    0  0.10582821650E+03  0.30960314338E+02 -0.14397055147E+03  0.18134407121E+03  0.00000000000E+00 0. -1.
         -2    1    1    2    0  503  0.22433511206E+02 -0.21503930936E+02 -0.13085524384E+03  0.13449452149E+03  0.00000000000E+00 0.  1.
<mgrwt>
<rscale>  2 0.14651118E+03</rscale>
<asrwt>0</asrwt>
<pdfrwt beam="1">  1       21 0.90944220E-02 0.14651118E+03</pdfrwt>
<pdfrwt beam="2">  1       21 0.68356541E-01 0.14651118E+03</pdfrwt>
<totfact> 0.18988192E+05</totfact>
</mgrwt>
</event>
<event>
 5    1  0.1595802E+000  0.7248428E+02  0.7546771E-02  0.1351843E+00
         21   -1    0    0  503  502  0.00000000000E+00  0.00000000000E+00  0.14429527605E+04  0.14429527605E+04  0.00000000000E+00 0.  1.
         21   -1    0    0  501  503 -0.00000000000E+00 -0.00000000000E+00 -0.18828385863E+02  0.18828385863E+02  0.00000000000E+00 0. -1.
         24    1    1    2    0    0 -0.23478961091E+02  0.21859241660E+02  0.35743568201E+03  0.36777244430E+03  0.80419002446E+02 0.  1.
          1    1    1    2  501    0  0.18982046446E+02  0.13149028270E+02 -0.33979473597E+01  0.23340117352E+02  0.00000000000E+00 0. -1.
         -2    1    1    2    0  502  0.44969146451E+01 -0.35008269930E+02  0.10700866400E+04  0.10706685847E+04  0.00000000000E+00 0.  1.
<mgrwt>
<rscale>  2 0.72484279E+02</rscale>
<asrwt>0</asrwt>
<pdfrwt beam="1">  1       21 0.22199265E+00 0.72484279E+02</pdfrwt>
<pdfrwt beam="2">  1       21 0.28966759E-02 0.72484279E+02</pdfrwt>
<totfact> 0.73056395E+04</totfact>
</mgrwt>
</event>
<event>
 5    1  0.1595802E+000  0.7835279E+02  0.7546771E-02  0.1333792E+00
         21   -1    0    0  503  502  0.00000000000E+00  0.00000000000E+00  0.98162580534E+02  0.98162580534E+02  0.00000000000E+00 0. -1.
         21   -1    0    0  501  503 -0.00000000000E+00 -0.00000000000E+00 -0.15917980358E+04  0.15917980358E+04  0.00000000000E+00 0. -1.
         24    1    1    2    0    0 -0.12924852289E+02  0.23276134968E+02 -0.40053867303E+02  0.93703567200E+02  0.80419002446E+02 0. -1.
          1    1    1    2  501    0 -0.26211747138E+02  0.47161325593E+00 -0.15174503823E+04  0.15176768236E+04  0.00000000000E+00 0. -1.
         -2    1    1    2    0  502  0.39136599427E+02 -0.23747748224E+02  0.63868794326E+02  0.78580225560E+02  0.00000000000E+00 0.  1.
<mgrwt>
<rscale>  2 0.78352788E+02</rscale>
<asrwt>0</asrwt>
<pdfrwt beam="1">  1       21 0.15101936E-01 0.78352788E+02</pdfrwt>
<pdfrwt beam="2">  1       21 0.24489199E+00 0.78352788E+02</pdfrwt>
<totfact> 0.33105384E+03</totfact>
</mgrwt>
</event>
<event>
 5    1  0.1595802E+000  0.7633789E+02  0.7546771E-02  0.1339777E+00
         21   -1    0    0  501  502  0.00000000000E+00  0.00000000000E+00  0.46163825753E+02  0.46163825753E+02  0.00000000000E+00 0.  1.
         21   -1    0    0  502  503 -0.00000000000E+00 -0.00000000000E+00 -0.19787561748E+03  0.19787561748E+03  0.00000000000E+00 0.  1.
         24    1    1    2    0    0  0.12107787640E+02 -0.18275922558E+02 -0.37788299021E+02  0.91519284111E+02  0.80419002446E+02 0.  1.
          1    1    1    2  501    0  0.11106757496E+02  0.37544412847E+02 -0.49701903696E+01  0.39467021554E+02  0.00000000000E+00 0. -1.
         -2    1    1    2    0  503 -0.23214545136E+02 -0.19268490289E+02 -0.10895330234E+03  0.11305313757E+03  0.00000000000E+00 0.  1.
<mgrwt>
<rscale>  2 0.76337888E+02</rscale>
<asrwt>0</asrwt>
<pdfrwt beam="1">  1       21 0.71021270E-02 0.76337888E+02</pdfrwt>
<pdfrwt beam="2">  1       21 0.30442403E-01 0.76337888E+02</pdfrwt>
<totfact> 0.15022000E+06</totfact>
</mgrwt>
</event>
<event>
 5    1  0.1595802E+000  0.7555933E+02  0.7546771E-02  0.1342148E+00
         21   -1    0    0  501  502  0.00000000000E+00  0.00000000000E+00  0.82139222396E+02  0.82139222396E+02  0.00000000000E+00 0. -1.
         21   -1    0    0  502  503 -0.00000000000E+00 -0.00000000000E+00 -0.11798167040E+03  0.11798167040E+03  0.00000000000E+00 0. -1.
         24    1    1    2    0    0 -0.19020149862E+02 -0.11861554372E+02 -0.82911622635E+02  0.11766059534E+03  0.80419002446E+02 0. -1.
          1    1    1    2  501    0  0.42625130298E+02  0.42705849844E+01  0.31639598258E+02  0.53256021321E+02  0.00000000000E+00 0. -1.
         -2    1    1    2    0  503 -0.23604980436E+02  0.75909693880E+01  0.15429576373E+02  0.29204276137E+02  0.00000000000E+00 0.  1.
<mgrwt>
<rscale>  2 0.75559326E+02</rscale>
<asrwt>0</asrwt>
<pdfrwt beam="1">  1       21 0.12636804E-01 0.75559326E+02</pdfrwt>
<pdfrwt beam="2">  1       21 0.18151026E-01 0.75559326E+02</pdfrwt>
<totfact> 0.14529462E+06</totfact>
</mgrwt>
</event>
<event>
 5    1  0.1595802E+000  0.9864177E+02  0.7546771E-02  0.1283178E+00
         21   -1    0    0  501  502  0.00000000000E+00  0.00000000000E+00  0.30972997422E+03  0.30972997422E+03  0.00000000000E+00 0. -1.
         21   -1    0    0  502  503 -0.00000000000E+00 -0.00000000000E+00 -0.46397407811E+02  0.46397407811E+02  0.00000000000E+00 0. -1.
         24    1    1    2    0    0  0.74030730696E+02  0.19372538870E+02  0.63132011104E+02  0.12770556421E+03  0.80419002446E+02 0. -1.
          1    1    1    2  501    0 -0.64475224748E+02  0.22016139064E+00  0.19585428748E+03  0.20619409546E+03  0.00000000000E+00 0. -1.
         -2    1    1    2    0  503 -0.95555059476E+01 -0.19592700261E+02  0.43462678227E+01  0.22227722362E+02  0.00000000000E+00 0.  1.
<mgrwt>
<rscale>  2 0.98641771E+02</rscale>
<asrwt>0</asrwt>
<pdfrwt beam="1">  1       21 0.47650764E-01 0.98641771E+02</pdfrwt>
<pdfrwt beam="2">  1       21 0.71380629E-02 0.98641771E+02</pdfrwt>
<totfact> 0.62034006E+05</totfact>
</mgrwt>
</event>
<event>
 5    1  0.1595802E+000  0.9789454E+02  0.7546771E-02  0.1284787E+00
         21   -1    0    0  503  502  0.00000000000E+00  0.00000000000E+00  0.27711304975E+03  0.27711304975E+03  0.00000000000E+00 0.  1.
         21   -1    0    0  501  503 -0.00000000000E+00 -0.00000000000E+00 -0.10158537525E+03  0.10158537525E+03  0.00000000000E+00 0.  1.
         24    1    1    2    0    0  0.54912636249E+02  0.32894143527E+02 -0.14719894600E+02  0.10383310430E+03  0.80419002446E+02 0.  1.
          1    1    1    2  501    0 -0.70179317335E+02 -0.19871973945E+02 -0.99947118398E+01  0.73620148022E+02  0.00000000000E+00 0. -1.
         -2    1    1    2    0  502  0.15266681086E+02 -0.13022169582E+02  0.20024228094E+03  0.20124517268E+03  0.00000000000E+00 0.  1.
<mgrwt>
<rscale>  2 0.97894539E+02</rscale>
<asrwt>0</asrwt>
<pdfrwt beam="1">  1       21 0.42632776E-01 0.97894539E+02</pdfrwt>
<pdfrwt beam="2">  1       21 0.15628519E-01 0.97894539E+02</pdfrwt>
<totfact> 0.19785159E+05</totfact>
</mgrwt>
</event>
<event>
 5    1  0.1595802E+000  0.9605231E+02  0.7546771E-02  0.1288823E+00
         21   -1    0    0  503  502  0.00000000000E+00  0.00000000000E+00  0.14086915161E+04  0.14086915161E+04  0.00000000000E+00 0. -1.
         21   -1    0    0  501  503 -0.00000000000E+00 -0.00000000000E+00 -0.49486324671E+02  0.49486324671E+02  0.00000000000E+00 0. -1.
         24    1    1    2    0    0  0.60516380853E+02  0.45063823400E+02  0.40220156696E+03  0.41704471816E+03  0.80419002446E+02 0. -1.
          1    1    1    2  501    0 -0.39300724539E+02 -0.95200468707E+01 -0.31812424362E+02  0.51451030947E+02  0.00000000000E+00 0. -1.
         -2    1    1    2    0  502 -0.21215656314E+02 -0.35543776529E+02  0.98881604887E+03  0.98968209170E+03  0.00000000000E+00 0.  1.
<mgrwt>
<rscale>  2 0.96052314E+02</rscale>
<asrwt>0</asrwt>
<pdfrwt beam="1">  1       21 0.21672174E+00 0.96052314E+02</pdfrwt>
<pdfrwt beam="2">  1       21 0.76132818E-02 0.96052314E+02</pdfrwt>
<totfact> 0.15277319E+04</totfact>
</mgrwt>
</event>
<event>
 5    1  0.1595802E+000  0.7742337E+02  0.7546771E-02  0.1336527E+00
         21   -1    0    0  501  502  0.00000000000E+00  0.00000000000E+00  0.25385013172E+03  0.25385013172E+03  0.00000000000E+00 0. -1.
         21   -1    0    0  502  503 -0.00000000000E+00 -0.00000000000E+00 -0.11172484150E+03  0.11172484150E+03  0.00000000000E+00 0.  1.
         24    1    1    2    0    0  0.38861146437E+01 -0.22728356961E+02  0.82713075887E+01  0.84067297927E+02  0.80419002446E+02 0. -1.
          1    1    1    2  501    0 -0.33603611357E+02 -0.27859327376E+00  0.20141385810E+03  0.20419799839E+03  0.00000000000E+00 0. -1.
         -2    1    1    2    0  503  0.29717496713E+02  0.23006950234E+02 -0.67559875468E+02  0.77309676905E+02  0.00000000000E+00 0.  1.
<mgrwt>
<rscale>  2 0.77423369E+02</rscale>
<asrwt>0</asrwt>
<pdfrwt beam="1">  1       21 0.39053866E-01 0.77423369E+02</pdfrwt>
<pdfrwt beam="2">  1       21 0.17188437E-01 0.77423369E+02</pdfrwt>
<totfact> 0.19968380E+05</totfact>
</mgrwt>
</event>
<event>
 5    1  0.1595802E+000  0.8043412E+02  0.7546771E-02  0.1327824E+00
         21   -1    0    0  501  502  0.00000000000E+00  0.00000000000E+00  0.10999799099E+03  0.10999799099E+03  0.00000000000E+00 0.  1.
         21   -1    0    0  502  503 -0.00000000000E+00 -0.00000000000E+00 -0.88888675438E+02  0.88888675438E+02  0.00000000000E+00 0. -1.
         24    1    1    2    0    0 -0.56948522143E+02  0.99165715180E+01 -0.44593511817E+02  0.10861523749E+03  0.80419002446E+02 0. -1.
          1    1    1    2  501    0  0.22781674839E+02 -0.15014370252E+02  0.26807421356E+02  0.38250148526E+02  0.00000000000E+00 0. -1.
         -2    1    1    2    0  503  0.34166847304E+02  0.50977987336E+01  0.38895406015E+02  0.52021280411E+02  0.00000000000E+00 0.  1.
<mgrwt>
<rscale>  2 0.80434118E+02</rscale>
<asrwt>0</asrwt>
<pdfrwt beam="1">  1       21 0.16922768E-01 0.80434118E+02</pdfrwt>
<pdfrwt beam="2">  1       21 0.13675181E-01 0.80434118E+02</pdfrwt>
<totfact> 0.14374860E+06</totfact>
</mgrwt>
</event>
<event>
 5    1  0.1595802E+000  0.8306490E+02  0.7546771E-02  0.1320572E+00
         21   -1    0    0  503  502  0.00000000000E+00  0.00000000000E+00  0.14232948869E+03  0.14232948869E+03  0.00000000000E+00 0. -1.
         21   -1    0    0  501  503 -0.00000000000E+00 -0.00000000000E+00 -0.17448133975E+03  0.17448133975E+03  0.00000000000E+00 0. -1.
         24    1    1    2    0    0  0.46778079794E+02  0.15436882972E+01  0.93241605904E+02  0.13172617336E+03  0.80419002446E+02 0. -1.
          1    1    1    2  501    0 -0.37356786976E+02  0.24977436367E+02 -0.14432891175E+03  0.15116294727E+03  0.00000000000E+00 0. -1.
         -2    1    1    2    0  502 -0.94212928181E+01 -0.26521124665E+02  0.18935454792E+02  0.33921707799E+02  0.00000000000E+00 0.  1.
<mgrwt>
<rscale>  2 0.83064904E+02</rscale>
<asrwt>0</asrwt>
<pdfrwt beam="1">  1       21 0.21896844E-01 0.83064904E+02</pdfrwt>
<pdfrwt beam="2">  1       21 0.26843283E-01 0.83064904E+02</pdfrwt>
<totfact> 0.26370966E+05</totfact>
</mgrwt>
</event>
<event>
 5    1  0.1595802E+000  0.1080268E+03  0.7546771E-02  0.1264268E+00
         21   -1    0    0  503  502  0.00000000000E+00  0.00000000000E+00  0.18053173623E+03  0.18053173623E+03  0.00000000000E+00 0.  1.
         21   -1    0    0  501  503 -0.00000000000E+00 -0.00000000000E+00 -0.34232227980E+03  0.34232227980E+03  0.00000000000E+00 0.  1.
         24    1    1    2    0    0  0.61451552258E+02 -0.64996929249E+02 -0.20179072092E+03  0.23492042289E+03  0.80419002446E+02 0.  1.
          1    1    1    2  501    0 -0.32929184911E+01  0.24928640786E+02 -0.11493892649E+03  0.11765728735E+03  0.00000000000E+00 0. -1.
         -2    1    1    2    0  502 -0.58158633767E+02  0.40068288463E+02  0.15493910383E+03  0.17027630580E+03  0.00000000000E+00 0.  1.
<mgrwt>
<rscale>  2 0.10802684E+03</rscale>
<asrwt>0</asrwt>
<pdfrwt beam="1">  1       21 0.27774113E-01 0.10802684E+03</pdfrwt>
<pdfrwt beam="2">  1       21 0.52664966E-01 0.10802684E+03</pdfrwt>
<totfact> 0.44312830E+04</totfact>
</mgrwt>
</event>
<event>
 5    1  0.1595802E+000  0.6708715E+02  0.7546771E-02  0.1370288E+00
         21   -1    0    0  503  502  0.00000000000E+00  0.00000000000E+00  0.11258496360E+03  0.11258496360E+03  0.00000000000E+00 0. -1.
         21   -1    0    0  501  503 -0.00000000000E+00 -0.00000000000E+00 -0.81907419283E+02  0.81907419283E+02  0.00000000000E+00 0. -1.
         24    1    1    2    0    0 -0.84268534040E+01  0.23035235764E+02  0.59859068977E+02  0.10320832349E+03  0.80419002446E+02 0. -1.
          1    1    1    2  501    0  0.20069656320E+02  0.41768222409E+01 -0.50701889604E+02  0.54689291075E+02  0.00000000000E+00 0. -1.
         -2    1    1    2    0  502 -0.11642802916E+02 -0.27212058005E+02  0.21520364940E+02  0.36594768311E+02  0.00000000000E+00 0.  1.
<mgrwt>
<rscale>  2 0.67087146E+02</rscale>
<asrwt>0</asrwt>
<pdfrwt beam="1">  1       21 0.17320764E-01 0.67087146E+02</pdfrwt>
<pdfrwt beam="2">  1       21 0.12601141E-01 0.67087146E+02</pdfrwt>
<totfact> 0.15804305E+06</totfact>
</mgrwt>
</event>
<event>
 5    1  0.1595802E+000  0.7340247E+02  0.7546771E-02  0.1348891E+00
         21   -1    0    0  501  502  0.00000000000E+00  0.00000000000E+00  0.14673082939E+03  0.14673082939E+03  0.00000000000E+00 0. -1.
         21   -1    0    0  502  503 -0.00000000000E+00 -0.00000000000E+00 -0.43893649224E+02  0.43893649224E+02  0.00000000000E+00 0. -1.
         24    1    1    2    0    0 -0.49902132612E+02 -0.11726553335E+02  0.64363190965E+02  0.11505464440E+03  0.80419002446E+02 0.  0.
          1    1    1    2  501    0  0.24541038098E+02  0.79508721526E+01  0.42399371973E+02  0.49630491259E+02  0.00000000000E+00 0. -1.
         -2    1    1    2    0  503  0.25361094514E+02  0.37756811819E+01 -0.39253827671E+01  0.25939342960E+02  0.00000000000E+00 0.  1.
<mgrwt>
<rscale>  2 0.73402470E+02</rscale>
<asrwt>0</asrwt>
<pdfrwt beam="1">  1       21 0.22573974E-01 0.73402470E+02</pdfrwt>
<pdfrwt beam="2">  1       21 0.67528692E-02 0.73402470E+02</pdfrwt>
<totfact> 0.28561366E+06</totfact>
</mgrwt>
</event>
<event>
 5    1  0.1595802E+000  0.6750236E+02  0.7546771E-02  0.1368798E+00
         21   -1    0    0  501  502  0.00000000000E+00  0.00000000000E+00  0.17583109916E+02  0.17583109916E+02  0.00000000000E+00 0.  1.
         21   -1    0    0  502  503 -0.00000000000E+00 -0.00000000000E+00 -0.31475802414E+03  0.31475802414E+03  0.00000000000E+00 0. -1.
         24    1    1    2    0    0  0.14394577635E+02 -0.27886169053E+01 -0.18509057884E+03  0.20233812933E+03  0.80419002446E+02 0.  0.
          1    1    1    2  501    0 -0.15672381176E+02  0.25814052459E+02 -0.22939691177E+02  0.37923848267E+02  0.00000000000E+00 0. -1.
         -2    1    1    2    0  503  0.12778035412E+01 -0.23025435554E+02 -0.89144644205E+02  0.92079156462E+02  0.00000000000E+00 0.  1.
<mgrwt>
<rscale>  2 0.67502359E+02</rscale>
<asrwt>0</asrwt>
<pdfrwt beam="1">  1       21 0.27050937E-02 0.67502359E+02</pdfrwt>
<pdfrwt beam="2">  1       21 0.48424313E-01 0.67502359E+02</pdfrwt>
<totfact> 0.29463207E+06</totfact>
</mgrwt>
</event>
<event>
 5    1  0.1595802E+000  0.9064343E+02  0.7546771E-02  0.1301301E+00
         21   -1    0    0  501  502  0.00000000000E+00  0.00000000000E+00  0.81273726635E+01  0.81273726635E+01  0.00000000000E+00 0.  1.
         21   -1    0    0  502  503 -0.00000000000E+00 -0.00000000000E+00 -0.11448488223E+04  0.11448488223E+04  0.00000000000E+00 0. -1.
         24    1    1    2    0    0  0.65937429835E+02  0.21860937561E+02 -0.83228995296E+03  0.83904673708E+03  0.80419002446E+02 0.  0.
          1    1    1    2  501    0 -0.43992335454E+02  0.72183406880E-01 -0.14580741977E+03  0.15229948933E+03  0.00000000000E+00 0. -1.
         -2    1    1    2    0  503 -0.21945094381E+02 -0.21933120968E+02 -0.15862407691E+03  0.16162996856E+03  0.00000000000E+00 0.  1.
<mgrwt>
<rscale>  2 0.90643427E+02</rscale>
<asrwt>0</asrwt>
<pdfrwt beam="1">  1       21 0.12503644E-02 0.90643427E+02</pdfrwt>
<pdfrwt beam="2">  1       21 0.17613068E+00 0.90643427E+02</pdfrwt>
<totfact> 0.52575187E+05</totfact>
</mgrwt>
</event>
<event>
 5    1  0.1595802E+000  0.7986693E+02  0.7546771E-02  0.1329429E+00
         21   -1    0    0  503  502  0.00000000000E+00  0.00000000000E+00  0.15749282563E+02  0.15749282563E+02  0.00000000000E+00 0. -1.
         21   -1    0    0  501  503 -0.00000000000E+00 -0.00000000000E+00 -0.51149611568E+03  0.51149611568E+03  0.00000000000E+00 0. -1.
         24    1    1    2    0    0  0.16250728044E+02  0.22824992363E+02 -0.19491218303E+03  0.21270411723E+03  0.80419002446E+02 0. -1.
          1    1    1    2  501    0  0.12588529535E+02 -0.39364306976E+02 -0.25260538140E+03  0.25596386161E+03  0.00000000000E+00 0. -1.
         -2    1    1    2    0  502 -0.28839257580E+02  0.16539314613E+02 -0.48229268692E+02  0.58577419406E+02  0.00000000000E+00 0.  1.
<mgrwt>
<rscale>  2 0.79866927E+02</rscale>
<asrwt>0</asrwt>
<pdfrwt beam="1">  1       21 0.24229665E-02 0.79866927E+02</pdfrwt>
<pdfrwt beam="2">  1       21 0.78691713E-01 0.79866927E+02</pdfrwt>
<totfact> 0.12774039E+06</totfact>
</mgrwt>
</event>
<event>
 5    1  0.1595802E+000  0.6882016E+02  0.7546771E-02  0.1364152E+00
         21   -1    0    0  501  502  0.00000000000E+00  0.00000000000E+00  0.18939466130E+03  0.18939466130E+03  0.00000000000E+00 0.  1.
         21   -1    0    0  502  503 -0.00000000000E+00 -0.00000000000E+00 -0.66164802622E+02  0.66164802622E+02  0.00000000000E+00 0.  1.
         24    1    1    2    0    0 -0.26484458448E+02 -0.34657822574E+02  0.65507137413E+02  0.11252107452E+03  0.80419002446E+02 0.  1.
          1    1    1    2  501    0  0.18388285386E+02  0.11662725228E+02  0.95569902186E+02  0.98019153246E+02  0.00000000000E+00 0. -1.
         -2    1    1    2    0  503  0.80961730612E+01  0.22995097345E+02 -0.37847180922E+02  0.45019236154E+02  0.00000000000E+00 0.  1.
<mgrwt>
<rscale>  2 0.68820163E+02</rscale>
<asrwt>0</asrwt>
<pdfrwt beam="1">  1       21 0.29137640E-01 0.68820163E+02</pdfrwt>
<pdfrwt beam="2">  1       21 0.10179200E-01 0.68820163E+02</pdfrwt>
<totfact> 0.88094496E+05</totfact>
</mgrwt>
</event>
<event>
 5    1  0.1595802E+000  0.1041649E+03  0.7546771E-02  0.1271774E+00
         21   -1    0    0  503  502  0.00000000000E+00  0.00000000000E+00  0.23073629388E+04  0.23073629388E+04  0.00000000000E+00 0. -1.
         21   -1    0    0  501  503 -0.00000000000E+00 -0.00000000000E+00 -0.36683617252E+02  0.36683617252E+02  0.00000000000E+00 0. -1.
         24    1    1    2    0    0  0.34722565245E+02 -0.40750438232E+02  0.12086902608E+04  0.12125450991E+04  0.80419002446E+02 0. -1.
          1    1    1    2  501    0 -0.61221994963E+02  0.54411062662E+02  0.14007323774E+02  0.83095737114E+02  0.00000000000E+00 0. -1.
         -2    1    1    2    0  502  0.26499429719E+02 -0.13660624430E+02  0.10479817369E+04  0.10484057198E+04  0.00000000000E+00 0.  1.
<mgrwt>
<rscale>  2 0.10416491E+03</rscale>
<asrwt>0</asrwt>
<pdfrwt beam="1">  1       21 0.35497880E+00 0.10416491E+03</pdfrwt>
<pdfrwt beam="2">  1       21 0.56436352E-02 0.10416491E+03</pdfrwt>
<totfact> 0.41677680E+03</totfact>
</mgrwt>
</event>
<event>
 5    1  0.1595802E+000  0.6835164E+02  0.7546771E-02  0.1365790E+00
         21   -1    0    0  503  502  0.00000000000E+00  0.00000000000E+00  0.10929921128E+03  0.10929921128E+03  0.00000000000E+00 0. -1.
         21   -1    0    0  501  503 -0.00000000000E+00 -0.00000000000E+00 -0.99254380299E+02  0.99254380299E+02  0.00000000000E+00 0. -1.
         24    1    1    2    0    0 -0.20743520688E+02 -0.79568305156E+01  0.44919244401E+02  0.94755259877E+02  0.80419002446E+02 0. -1.
          1    1    1    2  501    0 -0.38385662292E+01  0.23746957521E+02 -0.66515325452E+02  0.70731471794E+02  0.00000000000E+00 0. -1.
         -2    1    1    2    0  502  0.24582086917E+02 -0.15790127005E+02  0.31640912028E+02  0.43066859904E+02  0.00000000000E+00 0.  1.
<mgrwt>
<rscale>  2 0.68351644E+02</rscale>
<asrwt>0</asrwt>
<pdfrwt beam="1">  1       21 0.16815263E-01 0.68351644E+02</pdfrwt>
<pdfrwt beam="2">  1       21 0.15269905E-01 0.68351644E+02</pdfrwt>
<totfact> 0.11893827E+06</totfact>
</mgrwt>
</event>
<event>
 5    1  0.1595802E+000  0.8620235E+02  0.7546771E-02  0.1312318E+00
         21   -1    0    0  503  502  0.00000000000E+00  0.00000000000E+00  0.32882970538E+02  0.32882970538E+02  0.00000000000E+00 0. -1.
         21   -1    0    0  501  503 -0.00000000000E+00 -0.00000000000E+00 -0.31482980786E+03  0.31482980786E+03  0.00000000000E+00 0.  1.
         24    1    1    2    0    0  0.30548903243E+02 -0.31232995760E+02 -0.10303488257E+03  0.13781196789E+03  0.80419002446E+02 0.  0.
          1    1    1    2  501    0 -0.43411584552E+02 -0.37875295990E+01 -0.16405440436E+03  0.16974321383E+03  0.00000000000E+00 0. -1.
         -2    1    1    2    0  502  0.12862681310E+02  0.35020525359E+02 -0.14857550400E+02  0.40157596676E+02  0.00000000000E+00 0.  1.
<mgrwt>
<rscale>  2 0.86202353E+02</rscale>
<asrwt>0</asrwt>
<pdfrwt beam="1">  1       21 0.50589187E-02 0.86202353E+02</pdfrwt>
<pdfrwt beam="2">  1       21 0.48435354E-01 0.86202353E+02</pdfrwt>
<totfact> 0.10691529E+06</totfact>
</mgrwt>
</event>
<event>
 5    1  0.1595802E+000  0.1192042E+03  0.7546771E-02  0.1244416E+00
         21   -1    0    0  503  502  0.00000000000E+00  0.00000000000E+00  0.15317530156E+02  0.15317530156E+02  0.00000000000E+00 0.  1.
         21   -1    0    0  501  503 -0.00000000000E+00 -0.00000000000E+00 -0.22194512890E+04  0.22194512890E+04  0.00000000000E+00 0. -1.
         24    1    1    2    0    0  0.61234871598E+02 -0.74967402329E+02 -0.90658253311E+03  0.91527532809E+03  0.80419002446E+02 0. -1.
          1    1    1    2  501    0  0.92587644651E+01  0.23565367892E+02 -0.11326707889E+04  0.11329537358E+04  0.00000000000E+00 0. -1.
         -2    1    1    2    0  502 -0.70493636063E+02  0.51402034437E+02 -0.16488043682E+03  0.18653975532E+03  0.00000000000E+00 0.  1.
<mgrwt>
<rscale>  2 0.11920416E+03</rscale>
<asrwt>0</asrwt>
<pdfrwt beam="1">  1       21 0.23565434E-02 0.11920416E+03</pdfrwt>
<pdfrwt beam="2">  1       21 0.34145400E+00 0.11920416E+03</pdfrwt>
<totfact> 0.20389768E+04</totfact>
</mgrwt>
</event>
<event>
 5    1  0.1595802E+000  0.9896815E+02  0.7546771E-02  0.1282481E+00
         21   -1    0    0  503  502  0.00000000000E+00  0.00000000000E+00  0.10552350473E+04  0.10552350473E+04  0.00000000000E+00 0. -1.
         21   -1    0    0  501  503 -0.00000000000E+00 -0.00000000000E+00 -0.22406319915E+02  0.22406319915E+02  0.00000000000E+00 0.  1.
         24    1    1    2    0    0  0.40829546616E+02  0.12042455888E+00  0.25556351180E+03  0.27101105309E+03  0.80419002446E+02 0.  1.
          1    1    1    2  501    0 -0.72175483349E+02 -0.13905556423E+02  0.80441007711E+02  0.10896522664E+03  0.00000000000E+00 0. -1.
         -2    1    1    2    0  502  0.31345936734E+02  0.13785131864E+02  0.69682420786E+03  0.69766508747E+03  0.00000000000E+00 0.  1.
<mgrwt>
<rscale>  2 0.98968146E+02</rscale>
<asrwt>0</asrwt>
<pdfrwt beam="1">  1       21 0.16234381E+00 0.98968146E+02</pdfrwt>
<pdfrwt beam="2">  1       21 0.34471270E-02 0.98968146E+02</pdfrwt>
<totfact> 0.12772648E+05</totfact>
</mgrwt>
</event>
<event>
 5    1  0.1595802E+000  0.7720097E+02  0.7546771E-02  0.1337188E+00
         21   -1    0    0  501  502  0.00000000000E+00  0.00000000000E+00  0.15392272994E+02  0.15392272994E+02  0.00000000000E+00 0. -1.
         21   -1    0    0  502  503 -0.00000000000E+00 -0.00000000000E+00 -0.57985297377E+03  0.57985297377E+03  0.00000000000E+00 0.  1.
         24    1    1    2    0    0 -0.13412519777E+02  0.10140960310E+02 -0.39472336383E+03  0.40318294194E+03  0.80419002446E+02 0.  0.
          1    1    1    2  501    0  0.41339361930E+02 -0.14844245927E+02 -0.40457371441E+02  0.59716776419E+02  0.00000000000E+00 0. -1.
         -2    1    1    2    0  503 -0.27926842153E+02  0.47032856173E+01 -0.12927996550E+03  0.13234552840E+03  0.00000000000E+00 0.  1.
<mgrwt>
<rscale>  2 0.77200971E+02</rscale>
<asrwt>0</asrwt>
<pdfrwt beam="1">  1       21 0.23680422E-02 0.77200971E+02</pdfrwt>
<pdfrwt beam="2">  1       21 0.89208141E-01 0.77200971E+02</pdfrwt>
<totfact> 0.10027279E+06</totfact>
</mgrwt>
</event>
<event>
 5    1  0.1595802E+000  0.6831365E+02  0.7546771E-02  0.1365923E+00
         21   -1    0    0  503  502  0.00000000000E+00  0.00000000000E+00  0.42470319544E+02  0.42470319544E+02  0.00000000000E+00 0.  1.
         21   -1    0    0  501  503 -0.00000000000E+00 -0.00000000000E+00 -0.54651072378E+03  0.54651072378E+03  0.00000000000E+00 0. -1.
         24    1    1    2    0    0  0.58017584387E+01 -0.97850139613E+00 -0.10087918672E+02  0.81262537023E+02  0.80419002446E+02 0.  1.
          1    1    1    2  501    0  0.24954172401E+02  0.31938983543E+01 -0.46416111027E+03  0.46484239049E+03  0.00000000000E+00 0. -1.
         -2    1    1    2    0  502 -0.30755930840E+02 -0.22153969582E+01 -0.29791375299E+02  0.42876115819E+02  0.00000000000E+00 0.  1.
<mgrwt>
<rscale>  2 0.68313651E+02</rscale>
<asrwt>0</asrwt>
<pdfrwt beam="1">  1       21 0.65338953E-02 0.68313651E+02</pdfrwt>
<pdfrwt beam="2">  1       21 0.84078572E-01 0.68313651E+02</pdfrwt>
<totfact> 0.21735442E+05</totfact>
</mgrwt>
</event>
<event>
 5    1  0.1595802E+000  0.8810206E+02  0.7546771E-02  0.1307514E+00
         21   -1    0    0  501  502  0.00000000000E+00  0.00000000000E+00  0.55383250987E+02  0.55383250987E+02  0.00000000000E+00 0.  1.
         21   -1    0    0  502  503 -0.00000000000E+00 -0.00000000000E+00 -0.15594679202E+03  0.15594679202E+03  0.00000000000E+00 0. -1.
         24    1    1    2    0    0 -0.36365588913E+02 -0.13517548743E+01 -0.76404279857E+02  0.11674379312E+03  0.80419002446E+02 0. -1.
          1    1    1    2  501    0 -0.22814160971E+02 -0.14037257391E+02  0.43177674014E+01  0.27132520178E+02  0.00000000000E+00 0. -1.
         -2    1    1    2    0  503  0.59179749884E+02  0.15389012265E+02 -0.28477028582E+02  0.67453729710E+02  0.00000000000E+00 0.  1.
<mgrwt>
<rscale>  2 0.88102060E+02</rscale>
<asrwt>0</asrwt>
<pdfrwt beam="1">  1       21 0.85205000E-02 0.88102060E+02</pdfrwt>
<pdfrwt beam="2">  1       21 0.23991815E-01 0.88102060E+02</pdfrwt>
<totfact> 0.17341302E+06</totfact>
</mgrwt>
</event>
<event>
 5    1  0.1595802E+000  0.8169720E+02  0.7546771E-02  0.1324303E+00
         21   -1    0    0  503  502  0.00000000000E+00  0.00000000000E+00  0.27889297365E+03  0.27889297365E+03  0.00000000000E+00 0. -1.
         21   -1    0    0  501  503 -0.00000000000E+00 -0.00000000000E+00 -0.26413998194E+02  0.26413998194E+02  0.00000000000E+00 0.  1.
         24    1    1    2    0    0  0.21354579430E+01 -0.55624486641E+02  0.15747236812E+03  0.18537369385E+03  0.80419002446E+02 0.  1.
          1    1    1    2  501    0 -0.17671577225E+02  0.39100876836E+02  0.33683446064E+02  0.54550323095E+02  0.00000000000E+00 0. -1.
         -2    1    1    2    0  502  0.15536119282E+02  0.16523609805E+02  0.61323161269E+02  0.65382954899E+02  0.00000000000E+00 0.  1.
<mgrwt>
<rscale>  2 0.81697197E+02</rscale>
<asrwt>0</asrwt>
<pdfrwt beam="1">  1       21 0.42906609E-01 0.81697197E+02</pdfrwt>
<pdfrwt beam="2">  1       21 0.40636922E-02 0.81697197E+02</pdfrwt>
<totfact> 0.19563751E+06</totfact>
</mgrwt>
</event>
<event>
 5    1  0.1595802E+000  0.8948308E+02  0.7546771E-02  0.1304108E+00
         21   -1    0    0  501  502  0.00000000000E+00  0.00000000000E+00  0.19273669623E+02  0.19273669623E+02  0.00000000000E+00 0. -1.
         21   -1    0    0  502  503 -0.00000000000E+00 -0.00000000000E+00 -0.44988168748E+03  0.44988168748E+03  0.00000000000E+00 0.  1.
         24    1    1    2    0    0 -0.11349784507E+01  0.44918203095E+02 -0.23273760576E+03  0.25030569757E+03  0.80419002446E+02 0.  0.
          1    1    1    2  501    0  0.16547884734E+02 -0.61805469016E+02 -0.10293298464E+03  0.12119796952E+03  0.00000000000E+00 0. -1.
         -2    1    1    2    0  503 -0.15412906284E+02  0.16887265922E+02 -0.94937427459E+02  0.97651690016E+02  0.00000000000E+00 0.  1.
<mgrwt>
<rscale>  2 0.89483078E+02</rscale>
<asrwt>0</asrwt>
<pdfrwt beam="1">  1       21 0.29651799E-02 0.89483078E+02</pdfrwt>
<pdfrwt beam="2">  1       21 0.69212567E-01 0.89483078E+02</pdfrwt>
<totfact> 0.12213266E+06</totfact>
</mgrwt>
</event>
<event>
 5    1  0.1595802E+000  0.7618566E+02  0.7546771E-02  0.1340238E+00
         21   -1    0    0  501  502  0.00000000000E+00  0.00000000000E+00  0.85509094778E+02  0.85509094778E+02  0.00000000000E+00 0.  1.
         21   -1    0    0  502  503 -0.00000000000E+00 -0.00000000000E+00 -0.81977280737E+02  0.81977280737E+02  0.00000000000E+00 0.  1.
         24    1    1    2    0    0  0.34081315148E+02 -0.16641950961E+02 -0.30271864953E+02  0.93925993932E+02  0.80419002446E+02 0.  1.
          1    1    1    2  501    0 -0.20651048231E+02 -0.17309537165E+02  0.23154677470E+02  0.35527805430E+02  0.00000000000E+00 0. -1.
         -2    1    1    2    0  503 -0.13430266916E+02  0.33951488126E+02  0.10649001523E+02  0.38032576154E+02  0.00000000000E+00 0.  1.
<mgrwt>
<rscale>  2 0.76185664E+02</rscale>
<asrwt>0</asrwt>
<pdfrwt beam="1">  1       21 0.13155245E-01 0.76185664E+02</pdfrwt>
<pdfrwt beam="2">  1       21 0.12611889E-01 0.76185664E+02</pdfrwt>
<totfact> 0.25874535E+06</totfact>
</mgrwt>
</event>
<event>
 5    1  0.1595802E+000  0.7592729E+02  0.7546771E-02  0.1341023E+00
         21   -1    0    0  501  502  0.00000000000E+00  0.00000000000E+00  0.33360074392E+03  0.33360074392E+03  0.00000000000E+00 0. -1.
         21   -1    0    0  502  503 -0.00000000000E+00 -0.00000000000E+00 -0.21877045461E+02  0.21877045461E+02  0.00000000000E+00 0. -1.
         24    1    1    2    0    0 -0.96559837859E+01  0.17453778057E+02  0.11489552080E+03  0.14165475299E+03  0.80419002446E+02 0. -1.
          1    1    1    2  501    0 -0.48384699099E+01 -0.41034907702E+02  0.17114949199E+03  0.17606653018E+03  0.00000000000E+00 0. -1.
         -2    1    1    2    0  503  0.14494453696E+02  0.23581129645E+02  0.25678685667E+02  0.37756506206E+02  0.00000000000E+00 0.  1.
<mgrwt>
<rscale>  2 0.75927291E+02</rscale>
<asrwt>0</asrwt>
<pdfrwt beam="1">  1       21 0.51323187E-01 0.75927291E+02</pdfrwt>
<pdfrwt beam="2">  1       21 0.33656996E-02 0.75927291E+02</pdfrwt>
<totfact> 0.18504674E+06</totfact>
</mgrwt>
</event>
<event>
 5    1  0.1595802E+000  0.7491450E+02  0.7546771E-02  0.1344136E+00
         21   -1    0    0  503  502  0.00000000000E+00  0.00000000000E+00  0.75191624314E+03  0.75191624314E+03  0.00000000000E+00 0.  1.
         21   -1    0    0  501  503 -0.00000000000E+00 -0.00000000000E+00 -0.17149516836E+02  0.17149516836E+02  0.00000000000E+00 0.  1.
         24    1    1    2    0    0  0.51329268926E+02  0.10805325631E+02  0.13762441730E+03  0.16780686846E+03  0.80419002446E+02 0.  1.
          1    1    1    2  501    0 -0.19941485895E+02  0.17308878390E+01  0.64248977394E+02  0.67294798674E+02  0.00000000000E+00 0. -1.
         -2    1    1    2    0  502 -0.31387783031E+02 -0.12536213470E+02  0.53289333161E+03  0.53396409284E+03  0.00000000000E+00 0.  1.
<mgrwt>
<rscale>  2 0.74914502E+02</rscale>
<asrwt>0</asrwt>
<pdfrwt beam="1">  1       21 0.11567940E+00 0.74914502E+02</pdfrwt>
<pdfrwt beam="2">  1       21 0.26383878E-02 0.74914502E+02</pdfrwt>
<totfact> 0.46293163E+05</totfact>
</mgrwt>
</event>
<event>
 5    1  0.1595802E+000  0.8587170E+02  0.7546771E-02  0.1313169E+00
         21   -1    0    0  501  502  0.00000000000E+00  0.00000000000E+00  0.32217856446E+03  0.32217856446E+03  0.00000000000E+00 0.  1.
         21   -1    0    0  502  503 -0.00000000000E+00 -0.00000000000E+00 -0.30424393267E+02  0.30424393267E+02  0.00000000000E+00 0.  1.
         24    1    1    2    0    0 -0.30277713584E+02  0.55679470368E+02  0.12049222622E+03  0.15812190200E+03  0.80419002446E+02 0.  1.
          1    1    1    2  501    0  0.37756390776E+01 -0.36358353894E+02  0.15223947305E+03  0.15656641563E+03  0.00000000000E+00 0. -1.
         -2    1    1    2    0  503  0.26502074506E+02 -0.19321116474E+02  0.19022471918E+02  0.37914640085E+02  0.00000000000E+00 0.  1.
<mgrwt>
<rscale>  2 0.85871696E+02</rscale>
<asrwt>0</asrwt>
<pdfrwt beam="1">  1       21 0.49565931E-01 0.85871696E+02</pdfrwt>
<pdfrwt beam="2">  1       21 0.46806761E-02 0.85871696E+02</pdfrwt>
<totfact> 0.11605226E+06</totfact>
</mgrwt>
</event>
<event>
 5    1  0.1595802E+000  0.6682518E+02  0.7546771E-02  0.1371235E+00
         21   -1    0    0  501  502  0.00000000000E+00  0.00000000000E+00  0.23738142938E+03  0.23738142938E+03  0.00000000000E+00 0.  1.
         21   -1    0    0  502  503 -0.00000000000E+00 -0.00000000000E+00 -0.43683360179E+02  0.43683360179E+02  0.00000000000E+00 0.  1.
         24    1    1    2    0    0  0.11959863654E+02 -0.35702306540E+02  0.12957163134E+02  0.89737378287E+02  0.80419002446E+02 0.  1.
          1    1    1    2  501    0 -0.16977199153E+02  0.12416615123E+02  0.15434942236E+03  0.15577593462E+03  0.00000000000E+00 0. -1.
         -2    1    1    2    0  503  0.50173354984E+01  0.23285691417E+02  0.26391483709E+02  0.35551476660E+02  0.00000000000E+00 0.  1.
<mgrwt>
<rscale>  2 0.66825179E+02</rscale>
<asrwt>0</asrwt>
<pdfrwt beam="1">  1       21 0.36520219E-01 0.66825179E+02</pdfrwt>
<pdfrwt beam="2">  1       21 0.67205171E-02 0.66825179E+02</pdfrwt>
<totfact> 0.11567811E+06</totfact>
</mgrwt>
</event>
<event>
 5    1  0.1595802E+000  0.8199037E+02  0.7546771E-02  0.1323496E+00
         21   -1    0    0  501  502  0.00000000000E+00  0.00000000000E+00  0.15521301660E+02  0.15521301660E+02  0.00000000000E+00 0. -1.
         21   -1    0    0  502  503 -0.00000000000E+00 -0.00000000000E+00 -0.20295681782E+04  0.20295681782E+04  0.00000000000E+00 0. -1.
         24    1    1    2    0    0  0.98098133971E+01 -0.96332394279E+01 -0.11962190154E+04  0.11989979902E+04  0.80419002446E+02 0. -1.
          1    1    1    2  501    0 -0.45503591208E+02  0.10464917036E+02 -0.25967442364E+02  0.53426579194E+02  0.00000000000E+00 0. -1.
         -2    1    1    2    0  503  0.35693777811E+02 -0.83167760828E+00 -0.79186041881E+03  0.79266491050E+03  0.00000000000E+00 0.  1.
<mgrwt>
<rscale>  2 0.81990372E+02</rscale>
<asrwt>0</asrwt>
<pdfrwt beam="1">  1       21 0.23878922E-02 0.81990372E+02</pdfrwt>
<pdfrwt beam="2">  1       21 0.31224131E+00 0.81990372E+02</pdfrwt>
<totfact> 0.31194279E+04</totfact>
</mgrwt>
</event>
<event>
 5    1  0.1595802E+000  0.1055232E+03  0.7546771E-02  0.1269092E+00
         21   -1    0    0  501  502  0.00000000000E+00  0.00000000000E+00  0.10183106007E+02  0.10183106007E+02  0.00000000000E+00 0. -1.
         21   -1    0    0  502  503 -0.00000000000E+00 -0.00000000000E+00 -0.12376656827E+04  0.12376656827E+04  0.00000000000E+00 0.  1.
         24    1    1    2    0    0  0.21961270350E+02  0.26333621267E+02 -0.71513136893E+03  0.72045530589E+03  0.80419002446E+02 0.  1.
          1    1    1    2  501    0  0.15169609619E+02  0.42657156196E+02 -0.15074893392E+03  0.15740073414E+03  0.00000000000E+00 0. -1.
         -2    1    1    2    0  503 -0.37130879969E+02 -0.68990777462E+02 -0.36160227381E+03  0.36999274864E+03  0.00000000000E+00 0.  1.
<mgrwt>
<rscale>  2 0.10552320E+03</rscale>
<asrwt>0</asrwt>
<pdfrwt beam="1">  1       21 0.15666317E-02 0.10552320E+03</pdfrwt>
<pdfrwt beam="2">  1       21 0.19041011E+00 0.10552320E+03</pdfrwt>
<totfact> 0.29500137E+05</totfact>
</mgrwt>
</event>
<event>
 5    1  0.1595802E+000  0.1093288E+03  0.7546771E-02  0.1261818E+00
         21   -1    0    0  501  502  0.00000000000E+00  0.00000000000E+00  0.51845102147E+03  0.51845102147E+03  0.00000000000E+00 0.  1.
         21   -1    0    0  502  503 -0.00000000000E+00 -0.00000000000E+00 -0.49298265175E+02  0.49298265175E+02  0.00000000000E+00 0.  1.
         24    1    1    2    0    0 -0.68968857983E+02 -0.45485563067E+02  0.30770331988E+03  0.32859426172E+03  0.80419002446E+02 0.  1.
          1    1    1    2  501    0  0.55891867855E+02 -0.14860238197E+00  0.17978010100E+03  0.18826791466E+03  0.00000000000E+00 0. -1.
         -2    1    1    2    0  503  0.13076990128E+02  0.45634165449E+02 -0.18330664582E+02  0.50887110264E+02  0.00000000000E+00 0.  1.
<mgrwt>
<rscale>  2 0.10932880E+03</rscale>
<asrwt>0</asrwt>
<pdfrwt beam="1">  1       21 0.79761692E-01 0.10932880E+03</pdfrwt>
<pdfrwt beam="2">  1       21 0.75843488E-02 0.10932880E+03</pdfrwt>
<totfact> 0.18713889E+05</totfact>
</mgrwt>
</event>
<event>
 5    1  0.1595802E+000  0.1166196E+03  0.7546771E-02  0.1248780E+00
         21   -1    0    0  503  502  0.00000000000E+00  0.00000000000E+00  0.23974163054E+03  0.23974163054E+03  0.00000000000E+00 0.  1.
         21   -1    0    0  501  503 -0.00000000000E+00 -0.00000000000E+00 -0.77864297543E+03  0.77864297543E+03  0.00000000000E+00 0. -1.
         24    1    1    2    0    0  0.45311348334E+02  0.44960025476E+02 -0.45275475664E+02  0.11221232922E+03  0.80419002446E+02 0.  1.
          1    1    1    2  501    0 -0.19947418694E+02  0.38487263217E+02 -0.68996905118E+03  0.69132948768E+03  0.00000000000E+00 0. -1.
         -2    1    1    2    0  502 -0.25363929640E+02 -0.83447288693E+02  0.19634318195E+03  0.21484278907E+03  0.00000000000E+00 0.  1.
<mgrwt>
<rscale>  2 0.11661960E+03</rscale>
<asrwt>0</asrwt>
<pdfrwt beam="1">  1       21 0.36883327E-01 0.11661960E+03</pdfrwt>
<pdfrwt beam="2">  1       21 0.11979123E+00 0.11661960E+03</pdfrwt>
<totfact> 0.40564337E+03</totfact>
</mgrwt>
</event>
<event>
 5    1  0.1595802E+000  0.7304894E+02  0.7546771E-02  0.1350022E+00
         21   -1    0    0  501  502  0.00000000000E+00  0.00000000000E+00  0.46028848989E+03  0.46028848989E+03  0.00000000000E+00 0. -1.
         21   -1    0    0  502  503 -0.00000000000E+00 -0.00000000000E+00 -0.11902063414E+02  0.11902063414E+02  0.00000000000E+00 0. -1.
         24    1    1    2    0    0 -0.48902459127E+02 -0.12545977750E+02  0.26491309143E+03  0.28141608702E+03  0.80419002446E+02 0. -1.
          1    1    1    2  501    0  0.25259184861E+02  0.22567954697E+01  0.11071279370E+03  0.11358011373E+03  0.00000000000E+00 0. -1.
         -2    1    1    2    0  503  0.23643274267E+02  0.10289182280E+02  0.72760541343E+02  0.77194352556E+02  0.00000000000E+00 0.  1.
<mgrwt>
<rscale>  2 0.73048943E+02</rscale>
<asrwt>0</asrwt>
<pdfrwt beam="1">  1       21 0.70813600E-01 0.73048943E+02</pdfrwt>
<pdfrwt beam="2">  1       21 0.18310870E-02 0.73048943E+02</pdfrwt>
<totfact> 0.25036795E+06</totfact>
</mgrwt>
</event>
<event>
 5    1  0.1595802E+000  0.7600341E+02  0.7546771E-02  0.1340792E+00
         21   -1    0    0  503  502  0.00000000000E+00  0.00000000000E+00  0.76190045658E+02  0.76190045658E+02  0.00000000000E+00 0.  1.
         21   -1    0    0  501  503 -0.00000000000E+00 -0.00000000000E+00 -0.54907900912E+03  0.54907900912E+03  0.00000000000E+00 0. -1.
         24    1    1    2    0    0 -0.67304195116E+01 -0.11333954370E+02 -0.11854602121E+03  0.14385455213E+03  0.80419002446E+02 0.  1.
          1    1    1    2  501    0 -0.26327611453E+01  0.40139411628E+02 -0.41323588446E+03  0.41518911354E+03  0.00000000000E+00 0. -1.
         -2    1    1    2    0  502  0.93631806569E+01 -0.28805457258E+02  0.58892942213E+02  0.66225389106E+02  0.00000000000E+00 0.  1.
<mgrwt>
<rscale>  2 0.76003413E+02</rscale>
<asrwt>0</asrwt>
<pdfrwt beam="1">  1       21 0.11721546E-01 0.76003413E+02</pdfrwt>
<pdfrwt beam="2">  1       21 0.84473692E-01 0.76003413E+02</pdfrwt>
<totfact> 0.78980849E+04</totfact>
</mgrwt>
</event>
<event>
 5    1  0.1595802E+000  0.2598754E+03  0.7546771E-02  0.1107218E+00
         21   -1    0    0  503  502  0.00000000000E+00  0.00000000000E+00  0.14541699209E+03  0.14541699209E+03  0.00000000000E+00 0.  1.
         21   -1    0    0  501  503 -0.00000000000E+00 -0.00000000000E+00 -0.11168866291E+04  0.11168866291E+04  0.00000000000E+00 0. -1.
         24    1    1    2    0    0  0.11568395099E+02  0.25279714932E+03 -0.58248770132E+03  0.64015573465E+03  0.80419002446E+02 0. -1.
          1    1    1    2  501    0  0.51889092116E+01 -0.14791409958E+03 -0.46730240820E+03  0.49018062625E+03  0.00000000000E+00 0. -1.
         -2    1    1    2    0  502 -0.16757304311E+02 -0.10488304974E+03  0.78320472518E+02  0.13196726028E+03  0.00000000000E+00 0.  1.
<mgrwt>
<rscale>  2 0.25987537E+03</rscale>
<asrwt>0</asrwt>
<pdfrwt beam="1">  1       21 0.22371844E-01 0.25987537E+03</pdfrwt>
<pdfrwt beam="2">  1       21 0.17182872E+00 0.25987537E+03</pdfrwt>
<totfact> 0.36717350E+03</totfact>
</mgrwt>
</event>
<event>
 5    1  0.1595802E+000  0.1253709E+03  0.7546771E-02  0.1234491E+00
         21   -1    0    0  501  502  0.00000000000E+00  0.00000000000E+00  0.14097856621E+03  0.14097856621E+03  0.00000000000E+00 0.  1.
         21   -1    0    0  502  503 -0.00000000000E+00 -0.00000000000E+00 -0.36189719750E+03  0.36189719750E+03  0.00000000000E+00 0.  1.
         24    1    1    2    0    0  0.79411135449E+02 -0.64058309899E+02  0.41972532414E+02  0.13652290992E+03  0.80419002446E+02 0.  1.
          1    1    1    2  501    0 -0.21680335049E+02 -0.12438130018E+02  0.40828490439E+02  0.47871804204E+02  0.00000000000E+00 0. -1.
         -2    1    1    2    0  503 -0.57730800400E+02  0.76496439917E+02 -0.30371965414E+03  0.31848104958E+03  0.00000000000E+00 0.  1.
<mgrwt>
<rscale>  2 0.12537086E+03</rscale>
<asrwt>0</asrwt>
<pdfrwt beam="1">  1       21 0.21689010E-01 0.12537086E+03</pdfrwt>
<pdfrwt beam="2">  1       21 0.55676492E-01 0.12537086E+03</pdfrwt>
<totfact> 0.62202403E+04</totfact>
</mgrwt>
</event>
<event>
 5    1  0.1595802E+000  0.8447238E+02  0.7546771E-02  0.1316818E+00
         21   -1    0    0  501  502  0.00000000000E+00  0.00000000000E+00  0.83134402518E+02  0.83134402518E+02  0.00000000000E+00 0. -1.
         21   -1    0    0  502  503 -0.00000000000E+00 -0.00000000000E+00 -0.91824216111E+02  0.91824216111E+02  0.00000000000E+00 0.  1.
         24    1    1    2    0    0 -0.41088130123E+02  0.14254006702E+02  0.35126028425E+01  0.91492980480E+02  0.80419002446E+02 0.  1.
          1    1    1    2  501    0  0.19750721090E+02  0.25587629018E+02  0.89865118344E+01  0.33549592208E+02  0.00000000000E+00 0. -1.
         -2    1    1    2    0  503  0.21337409034E+02 -0.39841635720E+02 -0.21188928270E+02  0.49916045941E+02  0.00000000000E+00 0.  1.
<mgrwt>
<rscale>  2 0.84472377E+02</rscale>
<asrwt>0</asrwt>
<pdfrwt beam="1">  1       21 0.12789908E-01 0.84472377E+02</pdfrwt>
<pdfrwt beam="2">  1       21 0.14126802E-01 0.84472377E+02</pdfrwt>
<totfact> 0.22371214E+06</totfact>
</mgrwt>
</event>
<event>
 5    1  0.1595802E+000  0.9308433E+02  0.7546771E-02  0.1295550E+00
         21   -1    0    0  501  502  0.00000000000E+00  0.00000000000E+00  0.89673714025E+02  0.89673714025E+02  0.00000000000E+00 0.  1.
         21   -1    0    0  502  503 -0.00000000000E+00 -0.00000000000E+00 -0.10348407180E+03  0.10348407180E+03  0.00000000000E+00 0.  1.
         24    1    1    2    0    0  0.33951432556E+02  0.67661954072E+02 -0.12576998996E+02  0.11115861037E+03  0.80419002446E+02 0.  1.
          1    1    1    2  501    0 -0.96862743220E+01 -0.17527924810E+02  0.13785299588E+02  0.24312271451E+02  0.00000000000E+00 0. -1.
         -2    1    1    2    0  503 -0.24265158234E+02 -0.50134029262E+02 -0.15018658364E+02  0.57686904001E+02  0.00000000000E+00 0.  1.
<mgrwt>
<rscale>  2 0.93084329E+02</rscale>
<asrwt>0</asrwt>
<pdfrwt beam="1">  1       21 0.13795956E-01 0.93084329E+02</pdfrwt>
<pdfrwt beam="2">  1       21 0.15920626E-01 0.93084329E+02</pdfrwt>
<totfact> 0.15870055E+06</totfact>
</mgrwt>
</event>
<event>
 5    1  0.1595802E+000  0.8020020E+02  0.7546771E-02  0.1328484E+00
         21   -1    0    0  503  502  0.00000000000E+00  0.00000000000E+00  0.17825998149E+02  0.17825998149E+02  0.00000000000E+00 0.  1.
         21   -1    0    0  501  503 -0.00000000000E+00 -0.00000000000E+00 -0.56806512809E+03  0.56806512809E+03  0.00000000000E+00 0. -1.
         24    1    1    2    0    0  0.19449512572E+01  0.47226408702E+02 -0.31868665104E+03  0.33205799797E+03  0.80419002446E+02 0.  0.
          1    1    1    2  501    0 -0.21416829643E+02 -0.71770521017E+01 -0.19476769267E+03  0.19607305979E+03  0.00000000000E+00 0. -1.
         -2    1    1    2    0  502  0.19471878385E+02 -0.40049356600E+02 -0.36784786239E+02  0.57760068478E+02  0.00000000000E+00 0.  1.
<mgrwt>
<rscale>  2 0.80200200E+02</rscale>
<asrwt>0</asrwt>
<pdfrwt beam="1">  1       21 0.27424614E-02 0.80200200E+02</pdfrwt>
<pdfrwt beam="2">  1       21 0.87394632E-01 0.80200200E+02</pdfrwt>
<totfact> 0.82945560E+05</totfact>
</mgrwt>
</event>
<event>
 5    1  0.1595802E+000  0.1096795E+03  0.7546771E-02  0.1261164E+00
         21   -1    0    0  501  502  0.00000000000E+00  0.00000000000E+00  0.70938758315E+02  0.70938758315E+02  0.00000000000E+00 0. -1.
         21   -1    0    0  502  503 -0.00000000000E+00 -0.00000000000E+00 -0.34177285591E+03  0.34177285591E+03  0.00000000000E+00 0.  1.
         24    1    1    2    0    0 -0.25759533728E+02  0.65719144747E+02 -0.18096977611E+03  0.21023756892E+03  0.80419002446E+02 0. -1.
          1    1    1    2  501    0  0.41544525761E+01 -0.83970423590E+02  0.22151954903E+02  0.86942513307E+02  0.00000000000E+00 0. -1.
         -2    1    1    2    0  503  0.21605081152E+02  0.18251278843E+02 -0.11201627639E+03  0.11553153200E+03  0.00000000000E+00 0.  1.
<mgrwt>
<rscale>  2 0.10967953E+03</rscale>
<asrwt>0</asrwt>
<pdfrwt beam="1">  1       21 0.10913655E-01 0.10967953E+03</pdfrwt>
<pdfrwt beam="2">  1       21 0.52580440E-01 0.10967953E+03</pdfrwt>
<totfact> 0.24332870E+05</totfact>
</mgrwt>
</event>
<event>
 5    1  0.1595802E+000  0.9007891E+02  0.7546771E-02  0.1302661E+00
         21   -1    0    0  501  502  0.00000000000E+00  0.00000000000E+00  0.24731720499E+03  0.24731720499E+03  0.00000000000E+00 0. -1.
         21   -1    0    0  502  503 -0.00000000000E+00 -0.00000000000E+00 -0.43165858734E+02  0.43165858734E+02  0.00000000000E+00 0. -1.
         24    1    1    2    0    0  0.31485630273E+02 -0.37999593703E+02  0.77988146299E+02  0.12241193141E+03  0.80419002446E+02 0. -1.
          1    1    1    2  501    0 -0.51697108791E+02  0.12355537309E+02  0.12450641261E+03  0.13537760945E+03  0.00000000000E+00 0. -1.
         -2    1    1    2    0  503  0.20211478518E+02  0.25644056394E+02  0.16567873409E+01  0.32693522853E+02  0.00000000000E+00 0.  1.
<mgrwt>
<rscale>  2 0.90078910E+02</rscale>
<asrwt>0</asrwt>
<pdfrwt beam="1">  1       21 0.38048800E-01 0.90078910E+02</pdfrwt>
<pdfrwt beam="2">  1       21 0.66409015E-02 0.90078910E+02</pdfrwt>
<totfact> 0.10983124E+06</totfact>
</mgrwt>
</event>
<event>
 5    1  0.1595802E+000  0.1074534E+03  0.7546771E-02  0.1265360E+00
         21   -1    0    0  503  502  0.00000000000E+00  0.00000000000E+00  0.21631010557E+02  0.21631010557E+02  0.00000000000E+00 0. -1.
         21   -1    0    0  501  503 -0.00000000000E+00 -0.00000000000E+00 -0.88705811854E+03  0.88705811854E+03  0.00000000000E+00 0. -1.
         24    1    1    2    0    0 -0.63354462290E+02  0.62155582838E+02 -0.17846760797E+03  0.21493023849E+03  0.80419002446E+02 0. -1.
          1    1    1    2  501    0  0.38877336903E+02 -0.58717619017E+02 -0.56048587769E+03  0.56489257846E+03  0.00000000000E+00 0. -1.
         -2    1    1    2    0  502  0.24477125387E+02 -0.34379638214E+01 -0.12647362233E+03  0.12886631215E+03  0.00000000000E+00 0.  1.
<mgrwt>
<rscale>  2 0.10745340E+03</rscale>
<asrwt>0</asrwt>
<pdfrwt beam="1">  1       21 0.33278482E-02 0.10745340E+03</pdfrwt>
<pdfrwt beam="2">  1       21 0.13647046E+00 0.10745340E+03</pdfrwt>
<totfact> 0.21021982E+05</totfact>
</mgrwt>
</event>
<event>
 5    1  0.1595802E+000  0.1048149E+03  0.7546771E-02  0.1270485E+00
         21   -1    0    0  501  502  0.00000000000E+00  0.00000000000E+00  0.37569162160E+02  0.37569162160E+02  0.00000000000E+00 0. -1.
         21   -1    0    0  502  503 -0.00000000000E+00 -0.00000000000E+00 -0.45694248581E+03  0.45694248581E+03  0.00000000000E+00 0.  1.
         24    1    1    2    0    0 -0.16067822033E+02 -0.47366860264E+02 -0.14330360732E+03  0.17177000373E+03  0.80419002446E+02 0.  0.
          1    1    1    2  501    0  0.60003854389E+02  0.20417956864E+02 -0.27857419971E+02  0.69234322062E+02  0.00000000000E+00 0. -1.
         -2    1    1    2    0  503 -0.43936032356E+02  0.26948903401E+02 -0.24821229635E+03  0.25350732217E+03  0.00000000000E+00 0.  1.
<mgrwt>
<rscale>  2 0.10481493E+03</rscale>
<asrwt>0</asrwt>
<pdfrwt beam="1">  1       21 0.57798710E-02 0.10481493E+03</pdfrwt>
<pdfrwt beam="2">  1       21 0.70298845E-01 0.10481493E+03</pdfrwt>
<totfact> 0.39198204E+05</totfact>
</mgrwt>
</event>
<event>
 5    1  0.1595802E+000  0.6944493E+02  0.7546771E-02  0.1361991E+00
         21   -1    0    0  503  502  0.00000000000E+00  0.00000000000E+00  0.16406761758E+02  0.16406761758E+02  0.00000000000E+00 0.  1.
         21   -1    0    0  501  503 -0.00000000000E+00 -0.00000000000E+00 -0.12311471697E+04  0.12311471697E+04  0.00000000000E+00 0. -1.
         24    1    1    2    0    0 -0.20476931730E+02 -0.50369444452E+01 -0.12318825553E+03  0.14861775734E+03  0.80419002446E+02 0.  0.
          1    1    1    2  501    0 -0.28646731649E+01  0.24923549787E+02 -0.10286678941E+04  0.10289737733E+04  0.00000000000E+00 0. -1.
         -2    1    1    2    0  502  0.23341604895E+02 -0.19886605342E+02 -0.62884258300E+02  0.69962400853E+02  0.00000000000E+00 0.  1.
<mgrwt>
<rscale>  2 0.69444931E+02</rscale>
<asrwt>0</asrwt>
<pdfrwt beam="1">  1       21 0.25241169E-02 0.69444931E+02</pdfrwt>
<pdfrwt beam="2">  1       21 0.18940728E+00 0.69444931E+02</pdfrwt>
<totfact> 0.14338807E+05</totfact>
</mgrwt>
</event>
<event>
 5    1  0.1595802E+000  0.1054304E+03  0.7546771E-02  0.1269274E+00
         21   -1    0    0  503  502  0.00000000000E+00  0.00000000000E+00  0.25444313842E+03  0.25444313842E+03  0.00000000000E+00 0.  1.
         21   -1    0    0  501  503 -0.00000000000E+00 -0.00000000000E+00 -0.56811543686E+02  0.56811543686E+02  0.00000000000E+00 0. -1.
         24    1    1    2    0    0  0.16971343899E+02  0.30668603006E+02  0.80522500228E+02  0.11907845616E+03  0.80419002446E+02 0.  1.
          1    1    1    2  501    0 -0.80958232108E+01  0.45619555280E+02 -0.63621608224E+01  0.46767117377E+02  0.00000000000E+00 0. -1.
         -2    1    1    2    0  502 -0.88755206886E+01 -0.76288158287E+02  0.12347125533E+03  0.14540910857E+03  0.00000000000E+00 0.  1.
<mgrwt>
<rscale>  2 0.10543040E+03</rscale>
<asrwt>0</asrwt>
<pdfrwt beam="1">  1       21 0.39145098E-01 0.10543040E+03</pdfrwt>
<pdfrwt beam="2">  1       21 0.87402376E-02 0.10543040E+03</pdfrwt>
<totfact> 0.65086264E+05</totfact>
</mgrwt>
</event>
<event>
 5    1  0.1595802E+000  0.8281836E+02  0.7546771E-02  0.1321238E+00
         21   -1    0    0  503  502  0.00000000000E+00  0.00000000000E+00  0.13310892134E+04  0.13310892134E+04  0.00000000000E+00 0.  1.
         21   -1    0    0  501  503 -0.00000000000E+00 -0.00000000000E+00 -0.11631480672E+02  0.11631480672E+02  0.00000000000E+00 0.  1.
         24    1    1    2    0    0 -0.88244837200E+01  0.58905342990E+02  0.56659380220E+03  0.57536376631E+03  0.80419002446E+02 0.  1.
          1    1    1    2  501    0 -0.99753160370E+01 -0.19627059787E+02  0.11732908880E+02  0.24947736504E+02  0.00000000000E+00 0. -1.
         -2    1    1    2    0  502  0.18799799757E+02 -0.39278283203E+02  0.74113102165E+03  0.74240919126E+03  0.00000000000E+00 0.  1.
<mgrwt>
<rscale>  2 0.82818359E+02</rscale>
<asrwt>0</asrwt>
<pdfrwt beam="1">  1       21 0.20478284E+00 0.82818359E+02</pdfrwt>
<pdfrwt beam="2">  1       21 0.17894596E-02 0.82818359E+02</pdfrwt>
<totfact> 0.19735155E+05</totfact>
</mgrwt>
</event>
<event>
 5    1  0.1595802E+000  0.7475973E+02  0.7546771E-02  0.1344617E+00
         21   -1    0    0  501  502  0.00000000000E+00  0.00000000000E+00  0.19559211211E+03  0.19559211211E+03  0.00000000000E+00 0.  1.
         21   -1    0    0  502  503 -0.00000000000E+00 -0.00000000000E+00 -0.35741088296E+02  0.35741088296E+02  0.00000000000E+00 0. -1.
         24    1    1    2    0    0  0.22921905402E+02 -0.44865902166E+02  0.53901409342E+02  0.10913725674E+03  0.80419002446E+02 0. -1.
          1    1    1    2  501    0 -0.13499683375E+01  0.25789796089E+02  0.77607104670E+02  0.81791189575E+02  0.00000000000E+00 0. -1.
         -2    1    1    2    0  503 -0.21571937064E+02  0.19076106077E+02  0.28342509806E+02  0.40404754100E+02  0.00000000000E+00 0.  1.
<mgrwt>
<rscale>  2 0.74759735E+02</rscale>
<asrwt>0</asrwt>
<pdfrwt beam="1">  1       21 0.30091093E-01 0.74759735E+02</pdfrwt>
<pdfrwt beam="2">  1       21 0.54986291E-02 0.74759735E+02</pdfrwt>
<totfact> 0.23559123E+06</totfact>
</mgrwt>
</event>
<event>
 5    1  0.1595802E+000  0.7222612E+02  0.7546771E-02  0.1352683E+00
         21   -1    0    0  503  502  0.00000000000E+00  0.00000000000E+00  0.14803112814E+03  0.14803112814E+03  0.00000000000E+00 0. -1.
         21   -1    0    0  501  503 -0.00000000000E+00 -0.00000000000E+00 -0.54585086535E+02  0.54585086535E+02  0.00000000000E+00 0. -1.
         24    1    1    2    0    0 -0.13899527284E+02 -0.20781328295E+02  0.87229306352E+02  0.12124862187E+03  0.80419002446E+02 0. -1.
          1    1    1    2  501    0  0.31667465142E+02 -0.15424501804E+01 -0.24033640236E+02  0.39784712693E+02  0.00000000000E+00 0. -1.
         -2    1    1    2    0  502 -0.17767937858E+02  0.22323778476E+02  0.30250375493E+02  0.41582880114E+02  0.00000000000E+00 0.  1.
<mgrwt>
<rscale>  2 0.72226118E+02</rscale>
<asrwt>0</asrwt>
<pdfrwt beam="1">  1       21 0.22774020E-01 0.72226118E+02</pdfrwt>
<pdfrwt beam="2">  1       21 0.83977057E-02 0.72226118E+02</pdfrwt>
<totfact> 0.19416979E+06</totfact>
</mgrwt>
</event>
<event>
 5    1  0.1595802E+000  0.6590861E+02  0.7546771E-02  0.1374586E+00
         21   -1    0    0  501  502  0.00000000000E+00  0.00000000000E+00  0.39241864227E+03  0.39241864227E+03  0.00000000000E+00 0. -1.
         21   -1    0    0  502  503 -0.00000000000E+00 -0.00000000000E+00 -0.20774780330E+02  0.20774780330E+02  0.00000000000E+00 0. -1.
         24    1    1    2    0    0 -0.38864064914E-01 -0.77246093116E+01  0.85280374830E+02  0.11747182379E+03  0.80419002446E+02 0. -1.
          1    1    1    2  501    0  0.94502333089E+01 -0.19799623415E+02  0.23991683656E+03  0.24091787078E+03  0.00000000000E+00 0. -1.
         -2    1    1    2    0  503 -0.94113692440E+01  0.27524232726E+02  0.46446650545E+02  0.54803728022E+02  0.00000000000E+00 0.  1.
<mgrwt>
<rscale>  2 0.65908607E+02</rscale>
<asrwt>0</asrwt>
<pdfrwt beam="1">  1       21 0.60372094E-01 0.65908607E+02</pdfrwt>
<pdfrwt beam="2">  1       21 0.31961203E-02 0.65908607E+02</pdfrwt>
<totfact> 0.14322609E+06</totfact>
</mgrwt>
</event>
<event>
 5    1  0.1595802E+000  0.6530897E+02  0.7546771E-02  0.1376813E+00
         21   -1    0    0  501  502  0.00000000000E+00  0.00000000000E+00  0.33763108591E+02  0.33763108591E+02  0.00000000000E+00 0. -1.
         21   -1    0    0  502  503 -0.00000000000E+00 -0.00000000000E+00 -0.40131205394E+03  0.40131205394E+03  0.00000000000E+00 0. -1.
         24    1    1    2    0    0 -0.20607130964E+02 -0.27838397034E+02 -0.30791317591E+03  0.32012086787E+03  0.80419002446E+02 0. -1.
          1    1    1    2  501    0 -0.58038740445E-01  0.21417678526E+02  0.21878359816E+02  0.30616710310E+02  0.00000000000E+00 0. -1.
         -2    1    1    2    0  503  0.20665169704E+02  0.64207185072E+01 -0.81514129259E+02  0.84337584349E+02  0.00000000000E+00 0.  1.
<mgrwt>
<rscale>  2 0.65308973E+02</rscale>
<asrwt>0</asrwt>
<pdfrwt beam="1">  1       21 0.51943244E-02 0.65308973E+02</pdfrwt>
<pdfrwt beam="2">  1       21 0.61740316E-01 0.65308973E+02</pdfrwt>
<totfact> 0.61810613E+05</totfact>
</mgrwt>
</event>
<event>
 5    1  0.1595802E+000  0.1243475E+03  0.7546771E-02  0.1236093E+00
         21   -1    0    0  503  502  0.00000000000E+00  0.00000000000E+00  0.15820538485E+03  0.15820538485E+03  0.00000000000E+00 0. -1.
         21   -1    0    0  501  503 -0.00000000000E+00 -0.00000000000E+00 -0.16768396583E+03  0.16768396583E+03  0.00000000000E+00 0. -1.
         24    1    1    2    0    0 -0.43157521786E+02 -0.61106100477E+02  0.99819087032E+02  0.14841695756E+03  0.80419002446E+02 0. -1.
          1    1    1    2  501    0  0.45730232315E+02 -0.25403219256E+02 -0.51441145614E+02  0.73367357580E+02  0.00000000000E+00 0. -1.
         -2    1    1    2    0  502 -0.25727105289E+01  0.86509319733E+02 -0.57856522393E+02  0.10410503553E+03  0.00000000000E+00 0.  1.
<mgrwt>
<rscale>  2 0.12434747E+03</rscale>
<asrwt>0</asrwt>
<pdfrwt beam="1">  1       21 0.24339290E-01 0.12434747E+03</pdfrwt>
<pdfrwt beam="2">  1       21 0.25797533E-01 0.12434747E+03</pdfrwt>
<totfact> 0.23125118E+05</totfact>
</mgrwt>
</event>
<event>
 5    1  0.1595802E+000  0.1880436E+03  0.7546771E-02  0.1160238E+00
         21   -1    0    0  503  502  0.00000000000E+00  0.00000000000E+00  0.12241384935E+04  0.12241384935E+04  0.00000000000E+00 0.  1.
         21   -1    0    0  501  503 -0.00000000000E+00 -0.00000000000E+00 -0.65556085643E+02  0.65556085643E+02  0.00000000000E+00 0. -1.
         24    1    1    2    0    0  0.14939517515E+03 -0.17699606058E+02  0.69430379261E+03  0.71495256262E+03  0.80419002446E+02 0.  1.
          1    1    1    2  501    0 -0.80969541556E+02 -0.60881446170E+02  0.24808199350E+01  0.10133494765E+03  0.00000000000E+00 0. -1.
         -2    1    1    2    0  502 -0.68425633594E+02  0.78581052228E+02  0.46179779526E+03  0.47340706882E+03  0.00000000000E+00 0.  1.
<mgrwt>
<rscale>  2 0.18804362E+03</rscale>
<asrwt>0</asrwt>
<pdfrwt beam="1">  1       21 0.18832898E+00 0.18804362E+03</pdfrwt>
<pdfrwt beam="2">  1       21 0.10085553E-01 0.18804362E+03</pdfrwt>
<totfact> 0.12834802E+04</totfact>
</mgrwt>
</event>
<event>
 5    1  0.1595802E+000  0.6418073E+02  0.7546771E-02  0.1381080E+00
         21   -1    0    0  501  502  0.00000000000E+00  0.00000000000E+00  0.31955028087E+02  0.31955028087E+02  0.00000000000E+00 0.  1.
         21   -1    0    0  502  503 -0.00000000000E+00 -0.00000000000E+00 -0.30663826768E+03  0.30663826768E+03  0.00000000000E+00 0. -1.
         24    1    1    2    0    0 -0.55048377938E+01 -0.68661009080E+01 -0.22242693400E+03  0.23668207262E+03  0.80419002446E+02 0. -1.
          1    1    1    2  501    0 -0.14058215632E+02  0.19599724611E+02  0.16550831580E+02  0.29252566684E+02  0.00000000000E+00 0. -1.
         -2    1    1    2    0  503  0.19563053425E+02 -0.12733623703E+02 -0.68807137178E+02  0.72658656460E+02  0.00000000000E+00 0.  1.
<mgrwt>
<rscale>  2 0.64180729E+02</rscale>
<asrwt>0</asrwt>
<pdfrwt beam="1">  1       21 0.49161582E-02 0.64180729E+02</pdfrwt>
<pdfrwt beam="2">  1       21 0.47175118E-01 0.64180729E+02</pdfrwt>
<totfact> 0.11730124E+06</totfact>
</mgrwt>
</event>
<event>
 5    1  0.1595802E+000  0.1387993E+03  0.7546771E-02  0.1214954E+00
         21   -1    0    0  501  502  0.00000000000E+00  0.00000000000E+00  0.12627732001E+03  0.12627732001E+03  0.00000000000E+00 0.  1.
         21   -1    0    0  502  503 -0.00000000000E+00 -0.00000000000E+00 -0.36088675163E+03  0.36088675163E+03  0.00000000000E+00 0.  1.
         24    1    1    2    0    0 -0.11096399837E+03 -0.62054817543E+02  0.30975363776E+02  0.15359198687E+03  0.80419002446E+02 0.  1.
          1    1    1    2  501    0  0.65031920321E+02  0.34930217391E+02 -0.12430152842E+02  0.74858395970E+02  0.00000000000E+00 0. -1.
         -2    1    1    2    0  503  0.45932078048E+02  0.27124600151E+02 -0.25315464255E+03  0.25871368880E+03  0.00000000000E+00 0.  1.
<mgrwt>
<rscale>  2 0.13879926E+03</rscale>
<asrwt>0</asrwt>
<pdfrwt beam="1">  1       21 0.19427280E-01 0.13879926E+03</pdfrwt>
<pdfrwt beam="2">  1       21 0.55521039E-01 0.13879926E+03</pdfrwt>
<totfact> 0.76252573E+04</totfact>
</mgrwt>
</event>
<event>
 5    1  0.1595802E+000  0.9238420E+02  0.7546771E-02  0.1297179E+00
         21   -1    0    0  501  502  0.00000000000E+00  0.00000000000E+00  0.26447908628E+02  0.26447908628E+02  0.00000000000E+00 0.  1.
         21   -1    0    0  502  503 -0.00000000000E+00 -0.00000000000E+00 -0.40117259622E+03  0.40117259622E+03  0.00000000000E+00 0.  1.
         24    1    1    2    0    0 -0.13521423713E+02 -0.15516806926E+02 -0.10997479339E+03  0.13778705067E+03  0.80419002446E+02 0.  1.
          1    1    1    2  501    0 -0.33564526624E+02 -0.23196377559E+02 -0.40661701420E+02  0.57602285907E+02  0.00000000000E+00 0. -1.
         -2    1    1    2    0  503  0.47085950337E+02  0.38713184485E+02 -0.22408819279E+03  0.23223116828E+03  0.00000000000E+00 0.  1.
<mgrwt>
<rscale>  2 0.92384198E+02</rscale>
<asrwt>0</asrwt>
<pdfrwt beam="1">  1       21 0.40689092E-02 0.92384198E+02</pdfrwt>
<pdfrwt beam="2">  1       21 0.61718858E-01 0.92384198E+02</pdfrwt>
<totfact> 0.92960098E+05</totfact>
</mgrwt>
</event>
<event>
 5    1  0.1595802E+000  0.2188726E+03  0.7546771E-02  0.1134726E+00
         21   -1    0    0  503  502  0.00000000000E+00  0.00000000000E+00  0.12028458543E+04  0.12028458543E+04  0.00000000000E+00 0.  1.
         21   -1    0    0  501  503 -0.00000000000E+00 -0.00000000000E+00 -0.51474245164E+02  0.51474245164E+02  0.00000000000E+00 0.  1.
         24    1    1    2    0    0  0.10226093335E+03 -0.18270282881E+03  0.86836205647E+03  0.89685979908E+03  0.80419002446E+02 0.  1.
          1    1    1    2  501    0 -0.12949386186E+02  0.61814281215E+02  0.12085086925E+03  0.13635844149E+03  0.00000000000E+00 0. -1.
         -2    1    1    2    0  502 -0.89311547160E+02  0.12088854759E+03  0.16215868337E+03  0.22110185885E+03  0.00000000000E+00 0.  1.
<mgrwt>
<rscale>  2 0.21887258E+03</rscale>
<asrwt>0</asrwt>
<pdfrwt beam="1">  1       21 0.18505319E+00 0.21887258E+03</pdfrwt>
<pdfrwt beam="2">  1       21 0.79191156E-02 0.21887258E+03</pdfrwt>
<totfact> 0.20169561E+04</totfact>
</mgrwt>
</event>
<event>
 5    1  0.1595802E+000  0.7547833E+02  0.7546771E-02  0.1342396E+00
         21   -1    0    0  503  502  0.00000000000E+00  0.00000000000E+00  0.43316781159E+02  0.43316781159E+02  0.00000000000E+00 0.  1.
         21   -1    0    0  501  503 -0.00000000000E+00 -0.00000000000E+00 -0.24951913611E+03  0.24951913611E+03  0.00000000000E+00 0.  1.
         24    1    1    2    0    0 -0.13400960953E+02  0.20661039233E+02 -0.53949950432E+02  0.99921356089E+02  0.80419002446E+02 0.  1.
          1    1    1    2  501    0 -0.22353273581E+02  0.49200789957E+01 -0.14684735157E+03  0.14862039120E+03  0.00000000000E+00 0. -1.
         -2    1    1    2    0  502  0.35754234534E+02 -0.25581118228E+02 -0.54050529499E+01  0.44294169981E+02  0.00000000000E+00 0.  1.
<mgrwt>
<rscale>  2 0.75478333E+02</rscale>
<asrwt>0</asrwt>
<pdfrwt beam="1">  1       21 0.66641202E-02 0.75478333E+02</pdfrwt>
<pdfrwt beam="2">  1       21 0.38387559E-01 0.75478333E+02</pdfrwt>
<totfact> 0.10687081E+06</totfact>
</mgrwt>
</event>
<event>
 5    1  0.3390975E+000  0.1131238E+03  0.7546771E-02  0.1254892E+00
         21   -1    0    0  503  502  0.00000000000E+00  0.00000000000E+00  0.25017965017E+03  0.25017965017E+03  0.00000000000E+00 0. -1.
         21   -1    0    0  501  503 -0.00000000000E+00 -0.00000000000E+00 -0.30103237219E+03  0.30103237219E+03  0.00000000000E+00 0. -1.
         24    1    1    2    0    0 -0.11617801402E+02  0.33815986939E+02  0.13007538120E+03  0.15705195010E+03  0.80419002446E+02 0. -1.
          1    1    1    2  501    0  0.64393557856E+02  0.15252655585E+02 -0.27091207368E+03  0.27887725877E+03  0.00000000000E+00 0. -1.
         -2    1    1    2    0  502 -0.52775756454E+02 -0.49068642524E+02  0.89983970457E+02  0.11528281350E+03  0.00000000000E+00 0.  1.
<mgrwt>
<rscale>  2 0.11312380E+03</rscale>
<asrwt>0</asrwt>
<pdfrwt beam="1">  1       21 0.38489177E-01 0.11312380E+03</pdfrwt>
<pdfrwt beam="2">  1       21 0.46312673E-01 0.11312380E+03</pdfrwt>
<totfact> 0.30508763E+04</totfact>
</mgrwt>
</event>
<event>
 5    1  0.1595802E+000  0.1290003E+03  0.7546771E-02  0.1228947E+00
         21   -1    0    0  503  502  0.00000000000E+00  0.00000000000E+00  0.10809257659E+03  0.10809257659E+03  0.00000000000E+00 0. -1.
         21   -1    0    0  501  503 -0.00000000000E+00 -0.00000000000E+00 -0.29063814592E+03  0.29063814592E+03  0.00000000000E+00 0. -1.
         24    1    1    2    0    0 -0.91419328075E+02  0.70423419944E+02 -0.19559379413E+03  0.24091720544E+03  0.80419002446E+02 0. -1.
          1    1    1    2  501    0  0.72997110896E+02 -0.44330472328E+02 -0.41229662214E+02  0.94834877668E+02  0.00000000000E+00 0. -1.
         -2    1    1    2    0  502  0.18422217179E+02 -0.26092947617E+02  0.54277887013E+02  0.62978639393E+02  0.00000000000E+00 0.  1.
<mgrwt>
<rscale>  2 0.12900033E+03</rscale>
<asrwt>0</asrwt>
<pdfrwt beam="1">  1       21 0.16629627E-01 0.12900033E+03</pdfrwt>
<pdfrwt beam="2">  1       21 0.44713560E-01 0.12900033E+03</pdfrwt>
<totfact> 0.15911277E+05</totfact>
</mgrwt>
</event>
<event>
 5    1  0.1595802E+000  0.6836785E+02  0.7546771E-02  0.1365733E+00
         21   -1    0    0  501  502  0.00000000000E+00  0.00000000000E+00  0.65157861653E+01  0.65157861653E+01  0.00000000000E+00 0. -1.
         21   -1    0    0  502  503 -0.00000000000E+00 -0.00000000000E+00 -0.12346366347E+04  0.12346366347E+04  0.00000000000E+00 0. -1.
         24    1    1    2    0    0 -0.20132053896E+02 -0.30711143747E+02 -0.98714867625E+03  0.99109948992E+03  0.80419002446E+02 0. -1.
          1    1    1    2  501    0 -0.10943029307E+01  0.26705993500E+02 -0.41162943222E+02  0.49079481277E+02  0.00000000000E+00 0. -1.
         -2    1    1    2    0  503  0.21226356827E+02  0.40051502470E+01 -0.19980922907E+03  0.20097344967E+03  0.00000000000E+00 0.  1.
<mgrwt>
<rscale>  2 0.68367854E+02</rscale>
<asrwt>0</asrwt>
<pdfrwt beam="1">  1       21 0.10024277E-02 0.68367854E+02</pdfrwt>
<pdfrwt beam="2">  1       21 0.18994427E+00 0.68367854E+02</pdfrwt>
<totfact> 0.61049025E+05</totfact>
</mgrwt>
</event>
<event>
 5    1  0.1595802E+000  0.1015210E+03  0.7546771E-02  0.1277130E+00
         21   -1    0    0  501  502  0.00000000000E+00  0.00000000000E+00  0.25129040813E+03  0.25129040813E+03  0.00000000000E+00 0. -1.
         21   -1    0    0  502  503 -0.00000000000E+00 -0.00000000000E+00 -0.45746538378E+02  0.45746538378E+02  0.00000000000E+00 0. -1.
         24    1    1    2    0    0  0.65480994282E+02 -0.47123736516E+02  0.15300130733E+03  0.19074858624E+03  0.80419002446E+02 0. -1.
          1    1    1    2  501    0 -0.43849649096E+02  0.50888849675E+02  0.50880129240E+02  0.84268940296E+02  0.00000000000E+00 0. -1.
         -2    1    1    2    0  503 -0.21631345186E+02 -0.37651131594E+01  0.16624331842E+01  0.22019419968E+02  0.00000000000E+00 0.  1.
<mgrwt>
<rscale>  2 0.10152103E+03</rscale>
<asrwt>0</asrwt>
<pdfrwt beam="1">  1       21 0.38660062E-01 0.10152103E+03</pdfrwt>
<pdfrwt beam="2">  1       21 0.70379291E-02 0.10152103E+03</pdfrwt>
<totfact> 0.96641462E+05</totfact>
</mgrwt>
</event>
<event>
 5    1  0.2198518E+000  0.8754376E+02  0.7546771E-02  0.1308911E+00
         21   -1    0    0  501  502  0.00000000000E+00  0.00000000000E+00  0.74293392954E+03  0.74293392954E+03  0.00000000000E+00 0. -1.
         21   -1    0    0  502  503 -0.00000000000E+00 -0.00000000000E+00 -0.66189160778E+02  0.66189160778E+02  0.00000000000E+00 0.  1.
         24    1    1    2    0    0 -0.21337130010E+02 -0.29358288156E+02  0.61465844896E+03  0.62095845838E+03  0.80419002446E+02 0. -1.
          1    1    1    2  501    0  0.51228032168E+02  0.13297402592E+02  0.11426262368E+03  0.12592489574E+03  0.00000000000E+00 0. -1.
         -2    1    1    2    0  503 -0.29890902158E+02  0.16060885564E+02 -0.52176303876E+02  0.62239736206E+02  0.00000000000E+00 0.  1.
<mgrwt>
<rscale>  2 0.87543756E+02</rscale>
<asrwt>0</asrwt>
<pdfrwt beam="1">  1       21 0.11429752E+00 0.87543756E+02</pdfrwt>
<pdfrwt beam="2">  1       21 0.10182948E-01 0.87543756E+02</pdfrwt>
<totfact> 0.49917810E+04</totfact>
</mgrwt>
</event>
<event>
 5    1  0.1595802E+000  0.1559063E+03  0.7546771E-02  0.1193398E+00
         21   -1    0    0  503  502  0.00000000000E+00  0.00000000000E+00  0.27587126248E+03  0.27587126248E+03  0.00000000000E+00 0.  1.
         21   -1    0    0  501  503 -0.00000000000E+00 -0.00000000000E+00 -0.88549181866E+02  0.88549181866E+02  0.00000000000E+00 0.  1.
         24    1    1    2    0    0  0.14149080522E+03 -0.15046489301E+02  0.89131903897E+02  0.18616593955E+03  0.80419002446E+02 0.  1.
          1    1    1    2  501    0 -0.31731709842E+02  0.21648733658E+02  0.19806912942E+02  0.43219010618E+02  0.00000000000E+00 0. -1.
         -2    1    1    2    0  502 -0.10975909538E+03 -0.66022443569E+01  0.78383263778E+02  0.13503549418E+03  0.00000000000E+00 0.  1.
<mgrwt>
<rscale>  2 0.15590627E+03</rscale>
<asrwt>0</asrwt>
<pdfrwt beam="1">  1       21 0.42441732E-01 0.15590627E+03</pdfrwt>
<pdfrwt beam="2">  1       21 0.13622951E-01 0.15590627E+03</pdfrwt>
<totfact> 0.25190361E+05</totfact>
</mgrwt>
</event>
<event>
 5    1  0.1595802E+000  0.8026114E+02  0.7546771E-02  0.1328312E+00
         21   -1    0    0  503  502  0.00000000000E+00  0.00000000000E+00  0.93857060654E+02  0.93857060654E+02  0.00000000000E+00 0.  1.
         21   -1    0    0  501  503 -0.00000000000E+00 -0.00000000000E+00 -0.14055538237E+03  0.14055538237E+03  0.00000000000E+00 0.  1.
         24    1    1    2    0    0 -0.13763377008E+02 -0.77783686559E+01 -0.22956038697E+02  0.85112450515E+02  0.80419002446E+02 0.  1.
          1    1    1    2  501    0  0.11114799493E+02 -0.34477739730E+02 -0.74716892449E+02  0.83035337790E+02  0.00000000000E+00 0. -1.
         -2    1    1    2    0  502  0.26485775145E+01  0.42256108386E+02  0.50974609428E+02  0.66264654720E+02  0.00000000000E+00 0.  1.
<mgrwt>
<rscale>  2 0.80261144E+02</rscale>
<asrwt>0</asrwt>
<pdfrwt beam="1">  1       21 0.14439548E-01 0.80261144E+02</pdfrwt>
<pdfrwt beam="2">  1       21 0.21623905E-01 0.80261144E+02</pdfrwt>
<totfact> 0.83621683E+05</totfact>
</mgrwt>
</event>
<event>
 5    1  0.1595802E+000  0.1154441E+03  0.7546771E-02  0.1250808E+00
         21   -1    0    0  503  502  0.00000000000E+00  0.00000000000E+00  0.38216545326E+02  0.38216545326E+02  0.00000000000E+00 0.  1.
         21   -1    0    0  501  503 -0.00000000000E+00 -0.00000000000E+00 -0.51419358657E+03  0.51419358657E+03  0.00000000000E+00 0.  1.
         24    1    1    2    0    0 -0.26031791280E+02  0.94734828451E+02 -0.25037301706E+03  0.28072442983E+03  0.80419002446E+02 0.  1.
          1    1    1    2  501    0 -0.77406561241E+01 -0.29091535891E+02 -0.18500192032E+03  0.18743517744E+03  0.00000000000E+00 0. -1.
         -2    1    1    2    0  502  0.33772447404E+02 -0.65643292560E+02 -0.40602103860E+02  0.84250524625E+02  0.00000000000E+00 0.  1.
<mgrwt>
<rscale>  2 0.11544405E+03</rscale>
<asrwt>0</asrwt>
<pdfrwt beam="1">  1       21 0.58794691E-02 0.11544405E+03</pdfrwt>
<pdfrwt beam="2">  1       21 0.79106698E-01 0.11544405E+03</pdfrwt>
<totfact> 0.29333389E+05</totfact>
</mgrwt>
</event>
<event>
 5    1  0.1595802E+000  0.6772164E+02  0.7546771E-02  0.1368017E+00
         21   -1    0    0  501  502  0.00000000000E+00  0.00000000000E+00  0.12153246023E+03  0.12153246023E+03  0.00000000000E+00 0. -1.
         21   -1    0    0  502  503 -0.00000000000E+00 -0.00000000000E+00 -0.65952248789E+02  0.65952248789E+02  0.00000000000E+00 0.  1.
         24    1    1    2    0    0  0.79439549479E+01 -0.78480055990E+01  0.41808438881E+02  0.91322829173E+02  0.80419002446E+02 0.  0.
          1    1    1    2  501    0 -0.30539329393E+02  0.83200133578E+01  0.46583691641E+02  0.56319744220E+02  0.00000000000E+00 0. -1.
         -2    1    1    2    0  503  0.22595374445E+02 -0.47200775884E+00 -0.32811919080E+02  0.39842135627E+02  0.00000000000E+00 0.  1.
<mgrwt>
<rscale>  2 0.67721643E+02</rscale>
<asrwt>0</asrwt>
<pdfrwt beam="1">  1       21 0.18697302E-01 0.67721643E+02</pdfrwt>
<pdfrwt beam="2">  1       21 0.10146500E-01 0.67721643E+02</pdfrwt>
<totfact> 0.20059288E+06</totfact>
</mgrwt>
</event>
<event>
 5    1  0.1595802E+000  0.8033870E+02  0.7546771E-02  0.1328093E+00
         21   -1    0    0  503  502  0.00000000000E+00  0.00000000000E+00  0.14470206450E+03  0.14470206450E+03  0.00000000000E+00 0. -1.
         21   -1    0    0  501  503 -0.00000000000E+00 -0.00000000000E+00 -0.49638895952E+02  0.49638895952E+02  0.00000000000E+00 0. -1.
         24    1    1    2    0    0 -0.41165715392E+02 -0.42644909834E+02  0.50100309087E+02  0.11176073274E+03  0.80419002446E+02 0. -1.
          1    1    1    2  501    0  0.24076934150E+02  0.15290744627E+02  0.16393579710E+01  0.28569093858E+02  0.00000000000E+00 0. -1.
         -2    1    1    2    0  502  0.17088781242E+02  0.27354165207E+02  0.43323501493E+02  0.54011133853E+02  0.00000000000E+00 0.  1.
<mgrwt>
<rscale>  2 0.80338698E+02</rscale>
<asrwt>0</asrwt>
<pdfrwt beam="1">  1       21 0.22261856E-01 0.80338698E+02</pdfrwt>
<pdfrwt beam="2">  1       21 0.76367533E-02 0.80338698E+02</pdfrwt>
<totfact> 0.23916596E+06</totfact>
</mgrwt>
</event>
<event>
 5    1  0.1595802E+000  0.6540182E+02  0.7546771E-02  0.1376466E+00
         21   -1    0    0  503  502  0.00000000000E+00  0.00000000000E+00  0.20859770396E+03  0.20859770396E+03  0.00000000000E+00 0. -1.
         21   -1    0    0  501  503 -0.00000000000E+00 -0.00000000000E+00 -0.74930305565E+02  0.74930305565E+02  0.00000000000E+00 0. -1.
         24    1    1    2    0    0  0.63028373048E+01  0.20684193051E+02  0.37415659554E+02  0.91294628180E+02  0.80419002446E+02 0.  0.
          1    1    1    2  501    0  0.18141883272E+02 -0.11123150814E+02 -0.44356040377E+02  0.49196653652E+02  0.00000000000E+00 0. -1.
         -2    1    1    2    0  502 -0.24444720577E+02 -0.95610422375E+01  0.14060777921E+03  0.14303672769E+03  0.00000000000E+00 0.  1.
<mgrwt>
<rscale>  2 0.65401824E+02</rscale>
<asrwt>0</asrwt>
<pdfrwt beam="1">  1       21 0.32091954E-01 0.65401824E+02</pdfrwt>
<pdfrwt beam="2">  1       21 0.11527739E-01 0.65401824E+02</pdfrwt>
<totfact> 0.59109945E+05</totfact>
</mgrwt>
</event>
<event>
 5    1  0.1595802E+000  0.1015823E+03  0.7546771E-02  0.1277003E+00
         21   -1    0    0  503  502  0.00000000000E+00  0.00000000000E+00  0.91945223962E+02  0.91945223962E+02  0.00000000000E+00 0. -1.
         21   -1    0    0  501  503 -0.00000000000E+00 -0.00000000000E+00 -0.13590744892E+03  0.13590744892E+03  0.00000000000E+00 0. -1.
         24    1    1    2    0    0 -0.19514950968E+02 -0.43945150433E+02 -0.57871524274E+02  0.11012873755E+03  0.80419002446E+02 0. -1.
          1    1    1    2  501    0  0.26917605169E+02  0.73879855244E+02 -0.92308486906E+01  0.79170695630E+02  0.00000000000E+00 0. -1.
         -2    1    1    2    0  502 -0.74026542007E+01 -0.29934704811E+02  0.23140148011E+02  0.38553239699E+02  0.00000000000E+00 0.  1.
<mgrwt>
<rscale>  2 0.10158234E+03</rscale>
<asrwt>0</asrwt>
<pdfrwt beam="1">  1       21 0.14145419E-01 0.10158234E+03</pdfrwt>
<pdfrwt beam="2">  1       21 0.20908838E-01 0.10158234E+03</pdfrwt>
<totfact> 0.92623019E+05</totfact>
</mgrwt>
</event>
<event>
 5    1  0.1595802E+000  0.7149400E+02  0.7546771E-02  0.1355085E+00
         21   -1    0    0  501  502  0.00000000000E+00  0.00000000000E+00  0.19629072141E+03  0.19629072141E+03  0.00000000000E+00 0.  1.
         21   -1    0    0  502  503 -0.00000000000E+00 -0.00000000000E+00 -0.27112608551E+02  0.27112608551E+02  0.00000000000E+00 0. -1.
         24    1    1    2    0    0 -0.11926946869E+02  0.36910971295E+02  0.83408947370E+02  0.12218404282E+03  0.80419002446E+02 0.  0.
          1    1    1    2  501    0  0.25163176430E+02 -0.19515924517E+02  0.48770220583E+02  0.58245954139E+02  0.00000000000E+00 0. -1.
         -2    1    1    2    0  503 -0.13236229561E+02 -0.17395046778E+02  0.36998944910E+02  0.42973333008E+02  0.00000000000E+00 0.  1.
<mgrwt>
<rscale>  2 0.71493995E+02</rscale>
<asrwt>0</asrwt>
<pdfrwt beam="1">  1       21 0.30198572E-01 0.71493995E+02</pdfrwt>
<pdfrwt beam="2">  1       21 0.41711707E-02 0.71493995E+02</pdfrwt>
<totfact> 0.36830769E+06</totfact>
</mgrwt>
</event>
<event>
 5    1  0.1595802E+000  0.6770480E+02  0.7546771E-02  0.1368077E+00
         21   -1    0    0  501  502  0.00000000000E+00  0.00000000000E+00  0.13349674862E+03  0.13349674862E+03  0.00000000000E+00 0. -1.
         21   -1    0    0  502  503 -0.00000000000E+00 -0.00000000000E+00 -0.18356787587E+03  0.18356787587E+03  0.00000000000E+00 0.  1.
         24    1    1    2    0    0  0.55738379262E+00 -0.25681188575E+02 -0.39607393138E+02  0.93251250227E+02  0.80419002446E+02 0.  0.
          1    1    1    2  501    0 -0.21588756563E+02  0.19435778830E+02  0.10363262270E+03  0.10762687581E+03  0.00000000000E+00 0. -1.
         -2    1    1    2    0  503  0.21031372771E+02  0.62454097450E+01 -0.11409635682E+03  0.11618649845E+03  0.00000000000E+00 0.  1.
<mgrwt>
<rscale>  2 0.67704799E+02</rscale>
<asrwt>0</asrwt>
<pdfrwt beam="1">  1       21 0.20537961E-01 0.67704799E+02</pdfrwt>
<pdfrwt beam="2">  1       21 0.28241212E-01 0.67704799E+02</pdfrwt>
<totfact> 0.27028392E+05</totfact>
</mgrwt>
</event>
<event>
 5    1  0.1595802E+000  0.9740612E+02  0.7546771E-02  0.1285847E+00
         21   -1    0    0  501  502  0.00000000000E+00  0.00000000000E+00  0.69807631595E+03  0.69807631595E+03  0.00000000000E+00 0.  1.
         21   -1    0    0  502  503 -0.00000000000E+00 -0.00000000000E+00 -0.16531250801E+02  0.16531250801E+02  0.00000000000E+00 0.  1.
         24    1    1    2    0    0 -0.78299470818E+02 -0.34986185522E+01  0.52710763672E+03  0.53893666057E+03  0.80419002446E+02 0.  1.
          1    1    1    2  501    0  0.23228583270E+02 -0.10805069174E+02  0.62557839650E+02  0.67600295134E+02  0.00000000000E+00 0. -1.
         -2    1    1    2    0  503  0.55070887548E+02  0.14303687727E+02  0.91879588783E+02  0.10807061105E+03  0.00000000000E+00 0.  1.
<mgrwt>
<rscale>  2 0.97406122E+02</rscale>
<asrwt>0</asrwt>
<pdfrwt beam="1">  1       21 0.10739633E+00 0.97406122E+02</pdfrwt>
<pdfrwt beam="2">  1       21 0.25432699E-02 0.97406122E+02</pdfrwt>
<totfact> 0.58366569E+05</totfact>
</mgrwt>
</event>
<event>
 5    1  0.1595802E+000  0.8314988E+02  0.7546771E-02  0.1320343E+00
         21   -1    0    0  503  502  0.00000000000E+00  0.00000000000E+00  0.14926833759E+03  0.14926833759E+03  0.00000000000E+00 0. -1.
         21   -1    0    0  501  503 -0.00000000000E+00 -0.00000000000E+00 -0.87304412574E+02  0.87304412574E+02  0.00000000000E+00 0. -1.
         24    1    1    2    0    0  0.25722690065E+02 -0.55537836194E+02  0.41677093247E+02  0.10931744641E+03  0.80419002446E+02 0.  0.
          1    1    1    2  501    0 -0.52657262104E+01  0.37792873147E+02 -0.43555950337E+02  0.57906389484E+02  0.00000000000E+00 0. -1.
         -2    1    1    2    0  502 -0.20456963855E+02  0.17744963046E+02  0.63842782103E+02  0.69348914269E+02  0.00000000000E+00 0.  1.
<mgrwt>
<rscale>  2 0.83149883E+02</rscale>
<asrwt>0</asrwt>
<pdfrwt beam="1">  1       21 0.22964360E-01 0.83149883E+02</pdfrwt>
<pdfrwt beam="2">  1       21 0.13431448E-01 0.83149883E+02</pdfrwt>
<totfact> 0.85121805E+05</totfact>
</mgrwt>
</event>
<event>
 5    1  0.1595802E+000  0.1131392E+03  0.7546771E-02  0.1254865E+00
         21   -1    0    0  503  502  0.00000000000E+00  0.00000000000E+00  0.11841023156E+04  0.11841023156E+04  0.00000000000E+00 0.  1.
         21   -1    0    0  501  503 -0.00000000000E+00 -0.00000000000E+00 -0.10216421240E+03  0.10216421240E+03  0.00000000000E+00 0. -1.
         24    1    1    2    0    0 -0.47764089619E+02 -0.60105008577E+02  0.34306941489E+03  0.36063535559E+03  0.80419002446E+02 0.  0.
          1    1    1    2  501    0 -0.24534185714E+02  0.73949797501E+01 -0.89166825453E+02  0.92775722878E+02  0.00000000000E+00 0. -1.
         -2    1    1    2    0  502  0.72298275333E+02  0.52710028827E+02  0.82803551382E+03  0.83285544958E+03  0.00000000000E+00 0.  1.
<mgrwt>
<rscale>  2 0.11313919E+03</rscale>
<asrwt>0</asrwt>
<pdfrwt beam="1">  1       21 0.18216958E+00 0.11313919E+03</pdfrwt>
<pdfrwt beam="2">  1       21 0.15717572E-01 0.11313919E+03</pdfrwt>
<totfact> 0.68788729E+03</totfact>
</mgrwt>
</event>
<event>
 5    1  0.1595802E+000  0.8716862E+02  0.7546771E-02  0.1309857E+00
         21   -1    0    0  501  502  0.00000000000E+00  0.00000000000E+00  0.18860833870E+03  0.18860833870E+03  0.00000000000E+00 0. -1.
         21   -1    0    0  502  503 -0.00000000000E+00 -0.00000000000E+00 -0.18504737800E+03  0.18504737800E+03  0.00000000000E+00 0.  1.
         24    1    1    2    0    0 -0.19710360129E+02  0.36310282359E+02 -0.49350316261E+02  0.10300293477E+03  0.80419002446E+02 0.  0.
          1    1    1    2  501    0  0.21238282163E+02 -0.58215074047E+02  0.15463325565E+03  0.16658782437E+03  0.00000000000E+00 0. -1.
         -2    1    1    2    0  503 -0.15279220341E+01  0.21904791687E+02 -0.10172197869E+03  0.10406495757E+03  0.00000000000E+00 0.  1.
<mgrwt>
<rscale>  2 0.87168620E+02</rscale>
<asrwt>0</asrwt>
<pdfrwt beam="1">  1       21 0.29016668E-01 0.87168620E+02</pdfrwt>
<pdfrwt beam="2">  1       21 0.28468827E-01 0.87168620E+02</pdfrwt>
<totfact> 0.13921949E+05</totfact>
</mgrwt>
</event>
<event>
 5    1  0.1595802E+000  0.6627424E+02  0.7546771E-02  0.1373241E+00
         21   -1    0    0  501  502  0.00000000000E+00  0.00000000000E+00  0.13874685144E+03  0.13874685144E+03  0.00000000000E+00 0.  1.
         21   -1    0    0  502  503 -0.00000000000E+00 -0.00000000000E+00 -0.12358003136E+03  0.12358003136E+03  0.00000000000E+00 0.  1.
         24    1    1    2    0    0 -0.79983814269E+01 -0.29081264251E+02  0.64558993421E+02  0.10744660824E+03  0.80419002446E+02 0.  1.
          1    1    1    2  501    0  0.21380594794E+02  0.10660399424E+02  0.48665706894E+02  0.54213697320E+02  0.00000000000E+00 0. -1.
         -2    1    1    2    0  503 -0.13382213367E+02  0.18420864828E+02 -0.98057880243E+02  0.10066657724E+03  0.00000000000E+00 0.  1.
<mgrwt>
<rscale>  2 0.66274238E+02</rscale>
<asrwt>0</asrwt>
<pdfrwt beam="1">  1       21 0.21345669E-01 0.66274238E+02</pdfrwt>
<pdfrwt beam="2">  1       21 0.19012313E-01 0.66274238E+02</pdfrwt>
<totfact> 0.52199709E+05</totfact>
</mgrwt>
</event>
<event>
 5    1  0.1595802E+000  0.8817884E+02  0.7546771E-02  0.1307323E+00
         21   -1    0    0  501  502  0.00000000000E+00  0.00000000000E+00  0.52873589679E+02  0.52873589679E+02  0.00000000000E+00 0.  1.
         21   -1    0    0  502  503 -0.00000000000E+00 -0.00000000000E+00 -0.20891109301E+03  0.20891109301E+03  0.00000000000E+00 0. -1.
         24    1    1    2    0    0  0.29461463674E+02 -0.16527106624E+02 -0.10688970716E+02  0.87878285967E+02  0.80419002446E+02 0.  1.
          1    1    1    2  501    0  0.29058604014E+02  0.49330682996E+01 -0.21643147164E+02  0.36567245580E+02  0.00000000000E+00 0. -1.
         -2    1    1    2    0  503 -0.58520067688E+02  0.11594038324E+02 -0.12370538545E+03  0.13733915114E+03  0.00000000000E+00 0.  1.
<mgrwt>
<rscale>  2 0.88178836E+02</rscale>
<asrwt>0</asrwt>
<pdfrwt beam="1">  1       21 0.81343984E-02 0.88178836E+02</pdfrwt>
<pdfrwt beam="2">  1       21 0.32140168E-01 0.88178836E+02</pdfrwt>
<totfact> 0.10797151E+06</totfact>
</mgrwt>
</event>
<event>
 5    1  0.1727422E+000  0.1292527E+03  0.7546771E-02  0.1228569E+00
         21   -1    0    0  503  502  0.00000000000E+00  0.00000000000E+00  0.19136950686E+03  0.19136950686E+03  0.00000000000E+00 0. -1.
         21   -1    0    0  501  503 -0.00000000000E+00 -0.00000000000E+00 -0.19005759878E+03  0.19005759878E+03  0.00000000000E+00 0. -1.
         24    1    1    2    0    0  0.24233977151E+01  0.70343681624E+02  0.91017132512E+02  0.14037606906E+03  0.80419002446E+02 0. -1.
          1    1    1    2  501    0  0.48561881044E+02 -0.85600373204E+02 -0.13778939339E+03  0.16932689425E+03  0.00000000000E+00 0. -1.
         -2    1    1    2    0  502 -0.50985278759E+02  0.15256691580E+02  0.48084168959E+02  0.71724142327E+02  0.00000000000E+00 0.  1.
<mgrwt>
<rscale>  2 0.12925274E+03</rscale>
<asrwt>0</asrwt>
<pdfrwt beam="1">  1       21 0.29441463E-01 0.12925274E+03</pdfrwt>
<pdfrwt beam="2">  1       21 0.29239630E-01 0.12925274E+03</pdfrwt>
<totfact> 0.12657307E+05</totfact>
</mgrwt>
</event>
<event>
 5    1  0.1595802E+000  0.1023116E+03  0.7546771E-02  0.1275509E+00
         21   -1    0    0  503  502  0.00000000000E+00  0.00000000000E+00  0.77385205266E+01  0.77385205266E+01  0.00000000000E+00 0.  1.
         21   -1    0    0  501  503 -0.00000000000E+00 -0.00000000000E+00 -0.16034505514E+04  0.16034505514E+04  0.00000000000E+00 0. -1.
         24    1    1    2    0    0  0.23513180970E+01 -0.29653003084E+02 -0.85907351514E+03  0.86334196566E+03  0.80419002446E+02 0. -1.
          1    1    1    2  501    0 -0.27565991601E+02 -0.37847975672E+02 -0.44424661237E+03  0.44670729315E+03  0.00000000000E+00 0. -1.
         -2    1    1    2    0  502  0.25214673504E+02  0.67500978756E+02 -0.29239190338E+03  0.30113981314E+03  0.00000000000E+00 0.  1.
<mgrwt>
<rscale>  2 0.10231165E+03</rscale>
<asrwt>0</asrwt>
<pdfrwt beam="1">  1       21 0.11905404E-02 0.10231165E+03</pdfrwt>
<pdfrwt beam="2">  1       21 0.24668494E+00 0.10231165E+03</pdfrwt>
<totfact> 0.21071111E+05</totfact>
</mgrwt>
</event>
<event>
 5    1  0.1595802E+000  0.7525328E+02  0.7546771E-02  0.1343089E+00
         21   -1    0    0  503  502  0.00000000000E+00  0.00000000000E+00  0.36045491224E+03  0.36045491224E+03  0.00000000000E+00 0.  1.
         21   -1    0    0  501  503 -0.00000000000E+00 -0.00000000000E+00 -0.21173290848E+02  0.21173290848E+02  0.00000000000E+00 0.  1.
         24    1    1    2    0    0 -0.97669434437E+01 -0.20699509984E+02  0.10063146927E+03  0.13083490154E+03  0.80419002446E+02 0.  1.
          1    1    1    2  501    0 -0.18862263283E+01 -0.22281478318E+02  0.29848298593E+02  0.37295348969E+02  0.00000000000E+00 0. -1.
         -2    1    1    2    0  502  0.11653169772E+02  0.42980988302E+02  0.20880185352E+03  0.21349795258E+03  0.00000000000E+00 0.  1.
<mgrwt>
<rscale>  2 0.75253275E+02</rscale>
<asrwt>0</asrwt>
<pdfrwt beam="1">  1       21 0.55454597E-01 0.75253275E+02</pdfrwt>
<pdfrwt beam="2">  1       21 0.32574296E-02 0.75253275E+02</pdfrwt>
<totfact> 0.16644226E+06</totfact>
</mgrwt>
</event>
<event>
 5    1  0.1595802E+000  0.6481517E+02  0.7546771E-02  0.1378668E+00
         21   -1    0    0  503  502  0.00000000000E+00  0.00000000000E+00  0.59222174933E+02  0.59222174933E+02  0.00000000000E+00 0.  1.
         21   -1    0    0  501  503 -0.00000000000E+00 -0.00000000000E+00 -0.41638352799E+03  0.41638352799E+03  0.00000000000E+00 0. -1.
         24    1    1    2    0    0  0.18564684557E+01  0.14524339513E+01  0.46497660641E+01  0.80587792614E+02  0.80419002446E+02 0.  1.
          1    1    1    2  501    0 -0.46452676314E+01 -0.25018602204E+02 -0.36926767722E+03  0.37014338628E+03  0.00000000000E+00 0. -1.
         -2    1    1    2    0  502  0.27887991757E+01  0.23566168253E+02  0.74565580984E+01  0.24874524029E+02  0.00000000000E+00 0.  1.
<mgrwt>
<rscale>  2 0.64815172E+02</rscale>
<asrwt>0</asrwt>
<pdfrwt beam="1">  1       21 0.91111037E-02 0.64815172E+02</pdfrwt>
<pdfrwt beam="2">  1       21 0.64059005E-01 0.64815172E+02</pdfrwt>
<totfact> 0.22286808E+05</totfact>
</mgrwt>
</event>
<event>
 5    1  0.3478120E+000  0.1242766E+03  0.7546771E-02  0.1236204E+00
         21   -1    0    0  503  502  0.00000000000E+00  0.00000000000E+00  0.22217070958E+03  0.22217070958E+03  0.00000000000E+00 0. -1.
         21   -1    0    0  501  503 -0.00000000000E+00 -0.00000000000E+00 -0.30775984058E+03  0.30775984058E+03  0.00000000000E+00 0. -1.
         24    1    1    2    0    0  0.10645764934E+03 -0.31927341815E+02  0.18317991568E+03  0.22885515882E+03  0.80419002446E+02 0. -1.
          1    1    1    2  501    0 -0.87571779780E+02  0.23386899518E+02 -0.26491578812E+03  0.27999310434E+03  0.00000000000E+00 0. -1.
         -2    1    1    2    0  502 -0.18885869558E+02  0.85404422972E+01 -0.38532585506E+01  0.21082286998E+02  0.00000000000E+00 0.  1.
<mgrwt>
<rscale>  2 0.12427665E+03</rscale>
<asrwt>0</asrwt>
<pdfrwt beam="1">  1       21 0.34180109E-01 0.12427665E+03</pdfrwt>
<pdfrwt beam="2">  1       21 0.47347668E-01 0.12427665E+03</pdfrwt>
<totfact> 0.36561446E+04</totfact>
</mgrwt>
</event>
<event>
 5    1  0.1595802E+000  0.8447309E+02  0.7546771E-02  0.1316816E+00
         21   -1    0    0  503  502  0.00000000000E+00  0.00000000000E+00  0.10068037469E+03  0.10068037469E+03  0.00000000000E+00 0. -1.
         21   -1    0    0  501  503 -0.00000000000E+00 -0.00000000000E+00 -0.75764340619E+02  0.75764340619E+02  0.00000000000E+00 0.  1.
         24    1    1    2    0    0  0.15276309184E+02  0.50423600788E+02 -0.72958325449E+01  0.96417582762E+02  0.80419002446E+02 0.  0.
          1    1    1    2  501    0 -0.33193059436E+02 -0.40357297024E+02  0.19027478587E+02  0.55610570571E+02  0.00000000000E+00 0. -1.
         -2    1    1    2    0  502  0.17916750252E+02 -0.10066303764E+02  0.13184388029E+02  0.24416561977E+02  0.00000000000E+00 0.  1.
<mgrwt>
<rscale>  2 0.84473085E+02</rscale>
<asrwt>0</asrwt>
<pdfrwt beam="1">  1       21 0.15489288E-01 0.84473085E+02</pdfrwt>
<pdfrwt beam="2">  1       21 0.11656052E-01 0.84473085E+02</pdfrwt>
<totfact> 0.22346356E+06</totfact>
</mgrwt>
</event>
<event>
 5    1  0.1595802E+000  0.7398734E+02  0.7546771E-02  0.1347036E+00
         21   -1    0    0  501  502  0.00000000000E+00  0.00000000000E+00  0.24260623536E+02  0.24260623536E+02  0.00000000000E+00 0. -1.
         21   -1    0    0  502  503 -0.00000000000E+00 -0.00000000000E+00 -0.44801660157E+03  0.44801660157E+03  0.00000000000E+00 0. -1.
         24    1    1    2    0    0  0.22017524344E+02  0.90312662121E+00 -0.31044394087E+03  0.32144710824E+03  0.80419002446E+02 0. -1.
          1    1    1    2  501    0  0.94343188526E+00  0.27810245684E+02  0.37984704293E+01  0.28084305338E+02  0.00000000000E+00 0. -1.
         -2    1    1    2    0  503 -0.22960956229E+02 -0.28713372305E+02 -0.11711050760E+03  0.12274581153E+03  0.00000000000E+00 0.  1.
<mgrwt>
<rscale>  2 0.73987343E+02</rscale>
<asrwt>0</asrwt>
<pdfrwt beam="1">  1       21 0.37324040E-02 0.73987343E+02</pdfrwt>
<pdfrwt beam="2">  1       21 0.68925625E-01 0.73987343E+02</pdfrwt>
<totfact> 0.84436088E+05</totfact>
</mgrwt>
</event>
<event>
 5    1  0.1595802E+000  0.1327582E+03  0.7546771E-02  0.1223419E+00
         21   -1    0    0  503  502  0.00000000000E+00  0.00000000000E+00  0.74293961129E+02  0.74293961129E+02  0.00000000000E+00 0.  1.
         21   -1    0    0  501  503 -0.00000000000E+00 -0.00000000000E+00 -0.26318249289E+03  0.26318249289E+03  0.00000000000E+00 0.  1.
         24    1    1    2    0    0 -0.46056883120E+02 -0.10301596197E+03 -0.10680515630E+03  0.17495165695E+03  0.80419002446E+02 0.  1.
          1    1    1    2  501    0  0.49246782422E+02  0.38906982064E+02 -0.75229209030E+02  0.97971591411E+02  0.00000000000E+00 0. -1.
         -2    1    1    2    0  502 -0.31898993019E+01  0.64108979908E+02 -0.68541664266E+01  0.64553205651E+02  0.00000000000E+00 0.  1.
<mgrwt>
<rscale>  2 0.13275824E+03</rscale>
<asrwt>0</asrwt>
<pdfrwt beam="1">  1       21 0.11429840E-01 0.13275824E+03</pdfrwt>
<pdfrwt beam="2">  1       21 0.40489615E-01 0.13275824E+03</pdfrwt>
<totfact> 0.38022460E+05</totfact>
</mgrwt>
</event>
<event>
 5    1  0.1595802E+000  0.1005793E+03  0.7546771E-02  0.1279083E+00
         21   -1    0    0  503  502  0.00000000000E+00  0.00000000000E+00  0.54655635017E+02  0.54655635017E+02  0.00000000000E+00 0.  1.
         21   -1    0    0  501  503 -0.00000000000E+00 -0.00000000000E+00 -0.27976095553E+03  0.27976095553E+03  0.00000000000E+00 0. -1.
         24    1    1    2    0    0  0.77206878206E+02 -0.96811501572E+01 -0.20967495318E+03  0.23766663345E+03  0.80419002446E+02 0. -1.
          1    1    1    2  501    0 -0.16253048483E+02  0.21718314529E+02 -0.21091896644E+02  0.34361531907E+02  0.00000000000E+00 0. -1.
         -2    1    1    2    0  502 -0.60953829723E+02 -0.12037164372E+02  0.56615293061E+01  0.62388425193E+02  0.00000000000E+00 0.  1.
<mgrwt>
<rscale>  2 0.10057927E+03</rscale>
<asrwt>0</asrwt>
<pdfrwt beam="1">  1       21 0.84085592E-02 0.10057927E+03</pdfrwt>
<pdfrwt beam="2">  1       21 0.43040147E-01 0.10057927E+03</pdfrwt>
<totfact> 0.57578083E+05</totfact>
</mgrwt>
</event>
<event>
 5    1  0.1595802E+000  0.1120348E+03  0.7546771E-02  0.1256847E+00
         21   -1    0    0  503  502  0.00000000000E+00  0.00000000000E+00  0.70402592780E+02  0.70402592780E+02  0.00000000000E+00 0.  1.
         21   -1    0    0  501  503 -0.00000000000E+00 -0.00000000000E+00 -0.32666328968E+03  0.32666328968E+03  0.00000000000E+00 0. -1.
         24    1    1    2    0    0 -0.13999445752E+02 -0.18983007991E+02 -0.37372144975E+02  0.91761823479E+02  0.80419002446E+02 0. -1.
          1    1    1    2  501    0  0.76470768301E+02  0.89881763756E+01 -0.22867126510E+03  0.24128637177E+03  0.00000000000E+00 0. -1.
         -2    1    1    2    0  502 -0.62471322549E+02  0.99948316153E+01  0.97827131669E+01  0.64017687220E+02  0.00000000000E+00 0.  1.
<mgrwt>
<rscale>  2 0.11203482E+03</rscale>
<asrwt>0</asrwt>
<pdfrwt beam="1">  1       21 0.10831168E-01 0.11203482E+03</pdfrwt>
<pdfrwt beam="2">  1       21 0.50255891E-01 0.11203482E+03</pdfrwt>
<totfact> 0.27053589E+05</totfact>
</mgrwt>
</event>
<event>
 5    1  0.1595802E+000  0.6177510E+02  0.7546771E-02  0.1390530E+00
         21   -1    0    0  503  502  0.00000000000E+00  0.00000000000E+00  0.24094424583E+03  0.24094424583E+03  0.00000000000E+00 0.  1.
         21   -1    0    0  501  503 -0.00000000000E+00 -0.00000000000E+00 -0.33764169469E+02  0.33764169469E+02  0.00000000000E+00 0. -1.
         24    1    1    2    0    0  0.58536158881E+01  0.48963348798E+01  0.10605161194E+03  0.13331316238E+03  0.80419002446E+02 0.  0.
          1    1    1    2  501    0  0.71083894449E+01 -0.20957826096E+02 -0.12831483420E+02  0.25581372948E+02  0.00000000000E+00 0. -1.
         -2    1    1    2    0  502 -0.12962005333E+02  0.16061491216E+02  0.11395994784E+03  0.11581387997E+03  0.00000000000E+00 0.  1.
<mgrwt>
<rscale>  2 0.61775104E+02</rscale>
<asrwt>0</asrwt>
<pdfrwt beam="1">  1       21 0.37068344E-01 0.61775104E+02</pdfrwt>
<pdfrwt beam="2">  1       21 0.51944878E-02 0.61775104E+02</pdfrwt>
<totfact> 0.17194169E+06</totfact>
</mgrwt>
</event>
<event>
 5    1  0.1595802E+000  0.7582796E+02  0.7546771E-02  0.1341326E+00
         21   -1    0    0  501  502  0.00000000000E+00  0.00000000000E+00  0.38343518893E+03  0.38343518893E+03  0.00000000000E+00 0. -1.
         21   -1    0    0  502  503 -0.00000000000E+00 -0.00000000000E+00 -0.31379154298E+02  0.31379154298E+02  0.00000000000E+00 0.  1.
         24    1    1    2    0    0  0.90221637229E+01 -0.37522676321E+02  0.17702821537E+03  0.19823106635E+03  0.80419002446E+02 0. -1.
          1    1    1    2  501    0 -0.28176847605E+02  0.31751626044E+02  0.18800469154E+03  0.19273781294E+03  0.00000000000E+00 0. -1.
         -2    1    1    2    0  503  0.19154683883E+02  0.57710502776E+01 -0.12976872277E+02  0.23845463930E+02  0.00000000000E+00 0.  1.
<mgrwt>
<rscale>  2 0.75827958E+02</rscale>
<asrwt>0</asrwt>
<pdfrwt beam="1">  1       21 0.58990026E-01 0.75827958E+02</pdfrwt>
<pdfrwt beam="2">  1       21 0.48275625E-02 0.75827958E+02</pdfrwt>
<totfact> 0.76882337E+05</totfact>
</mgrwt>
</event>
<event>
 5    1  0.1595802E+000  0.6373957E+02  0.7546771E-02  0.1382776E+00
         21   -1    0    0  501  502  0.00000000000E+00  0.00000000000E+00  0.81448897799E+01  0.81448897799E+01  0.00000000000E+00 0.  1.
         21   -1    0    0  502  503 -0.00000000000E+00 -0.00000000000E+00 -0.57388465292E+03  0.57388465292E+03  0.00000000000E+00 0. -1.
         24    1    1    2    0    0  0.64726735513E+01 -0.36309461260E+00 -0.39051108860E+03  0.39875826464E+03  0.80419002446E+02 0. -1.
          1    1    1    2  501    0  0.19725086480E+02  0.46174163593E+01 -0.34060142362E+02  0.39629444459E+02  0.00000000000E+00 0. -1.
         -2    1    1    2    0  503 -0.26197760031E+02 -0.42543217467E+01 -0.14116853218E+03  0.14364183360E+03  0.00000000000E+00 0.  1.
<mgrwt>
<rscale>  2 0.63739575E+02</rscale>
<asrwt>0</asrwt>
<pdfrwt beam="1">  1       21 0.12530597E-02 0.63739575E+02</pdfrwt>
<pdfrwt beam="2">  1       21 0.88289962E-01 0.63739575E+02</pdfrwt>
<totfact> 0.27896194E+06</totfact>
</mgrwt>
</event>
<event>
 5    1  0.1595802E+000  0.1120115E+03  0.7546771E-02  0.1256890E+00
         21   -1    0    0  501  502  0.00000000000E+00  0.00000000000E+00  0.24822576403E+02  0.24822576403E+02  0.00000000000E+00 0.  1.
         21   -1    0    0  502  503 -0.00000000000E+00 -0.00000000000E+00 -0.13052348457E+04  0.13052348457E+04  0.00000000000E+00 0. -1.
         24    1    1    2    0    0  0.80924208025E+02  0.15636629545E+02 -0.14266769556E+03  0.18334262718E+03  0.80419002446E+02 0.  1.
          1    1    1    2  501    0 -0.61742619349E+02  0.22875789182E+02 -0.27030991628E+03  0.27821377323E+03  0.00000000000E+00 0. -1.
         -2    1    1    2    0  503 -0.19181588676E+02 -0.38512418727E+02 -0.86743465743E+03  0.86850102168E+03  0.00000000000E+00 0.  1.
<mgrwt>
<rscale>  2 0.11201152E+03</rscale>
<asrwt>0</asrwt>
<pdfrwt beam="1">  1       21 0.38188567E-02 0.11201152E+03</pdfrwt>
<pdfrwt beam="2">  1       21 0.20080543E+00 0.11201152E+03</pdfrwt>
<totfact> 0.59591920E+04</totfact>
</mgrwt>
</event>
<event>
 5    1  0.1595802E+000  0.7115537E+02  0.7546771E-02  0.1356208E+00
         21   -1    0    0  501  502  0.00000000000E+00  0.00000000000E+00  0.15376915372E+02  0.15376915372E+02  0.00000000000E+00 0. -1.
         21   -1    0    0  502  503 -0.00000000000E+00 -0.00000000000E+00 -0.10827951408E+04  0.10827951408E+04  0.00000000000E+00 0. -1.
         24    1    1    2    0    0 -0.36588447548E+02  0.31570657819E+02 -0.73604257038E+03  0.74199818213E+03  0.80419002446E+02 0. -1.
          1    1    1    2  501    0  0.16808654545E+02 -0.11916499203E+02  0.28382360891E+01  0.20798783738E+02  0.00000000000E+00 0. -1.
         -2    1    1    2    0  503  0.19779793002E+02 -0.19654158616E+02 -0.33421389112E+03  0.33537509028E+03  0.00000000000E+00 0.  1.
<mgrwt>
<rscale>  2 0.71155372E+02</rscale>
<asrwt>0</asrwt>
<pdfrwt beam="1">  1       21 0.23656791E-02 0.71155372E+02</pdfrwt>
<pdfrwt beam="2">  1       21 0.16658388E+00 0.71155372E+02</pdfrwt>
<totfact> 0.22368983E+05</totfact>
</mgrwt>
</event>
<event>
 5    1  0.1595802E+000  0.7827083E+02  0.7546771E-02  0.1334031E+00
         21   -1    0    0  503  502  0.00000000000E+00  0.00000000000E+00  0.15661839669E+03  0.15661839669E+03  0.00000000000E+00 0.  1.
         21   -1    0    0  501  503 -0.00000000000E+00 -0.00000000000E+00 -0.74675044153E+02  0.74675044153E+02  0.00000000000E+00 0. -1.
         24    1    1    2    0    0 -0.14100456561E+02 -0.29955397867E+02  0.41097583170E+02  0.96189271924E+02  0.80419002446E+02 0.  1.
          1    1    1    2  501    0 -0.21299410121E+02 -0.26285840078E+01 -0.37475354484E+02  0.43185373902E+02  0.00000000000E+00 0. -1.
         -2    1    1    2    0  502  0.35399866682E+02  0.32583981874E+02  0.78321123848E+02  0.91918795013E+02  0.00000000000E+00 0.  1.
<mgrwt>
<rscale>  2 0.78270831E+02</rscale>
<asrwt>0</asrwt>
<pdfrwt beam="1">  1       21 0.24095138E-01 0.78270831E+02</pdfrwt>
<pdfrwt beam="2">  1       21 0.11488468E-01 0.78270831E+02</pdfrwt>
<totfact> 0.10228672E+06</totfact>
</mgrwt>
</event>
<event>
 5    1  0.1595802E+000  0.7205325E+02  0.7546771E-02  0.1353247E+00
         21   -1    0    0  501  502  0.00000000000E+00  0.00000000000E+00  0.61833601579E+02  0.61833601579E+02  0.00000000000E+00 0. -1.
         21   -1    0    0  502  503 -0.00000000000E+00 -0.00000000000E+00 -0.23358471581E+03  0.23358471581E+03  0.00000000000E+00 0. -1.
         24    1    1    2    0    0 -0.16076543556E+01 -0.49576639804E+02 -0.64068673353E+02  0.11415970667E+03  0.80419002446E+02 0. -1.
          1    1    1    2  501    0  0.92519360130E-01  0.23190619411E+02  0.31764404266E+02  0.39329260950E+02  0.00000000000E+00 0. -1.
         -2    1    1    2    0  503  0.15151349955E+01  0.26386020392E+02 -0.13944684514E+03  0.14192934977E+03  0.00000000000E+00 0.  1.
<mgrwt>
<rscale>  2 0.72053249E+02</rscale>
<asrwt>0</asrwt>
<pdfrwt beam="1">  1       21 0.95128620E-02 0.72053249E+02</pdfrwt>
<pdfrwt beam="2">  1       21 0.35936109E-01 0.72053249E+02</pdfrwt>
<totfact> 0.66332747E+05</totfact>
</mgrwt>
</event>
<event>
 5    1  0.1595802E+000  0.6386636E+02  0.7546771E-02  0.1382287E+00
         21   -1    0    0  503  502  0.00000000000E+00  0.00000000000E+00  0.62791789484E+03  0.62791789484E+03  0.00000000000E+00 0. -1.
         21   -1    0    0  501  503 -0.00000000000E+00 -0.00000000000E+00 -0.87748027299E+01  0.87748027299E+01  0.00000000000E+00 0. -1.
         24    1    1    2    0    0 -0.81350994859E+01  0.62740440292E+01  0.50422089636E+03  0.51069704498E+03  0.80419002446E+02 0. -1.
          1    1    1    2  501    0 -0.44170714702E+01 -0.24297933706E+02  0.33228604755E+02  0.41400969515E+02  0.00000000000E+00 0. -1.
         -2    1    1    2    0  502  0.12552170956E+02  0.18023889677E+02  0.81693590995E+02  0.84594683074E+02  0.00000000000E+00 0.  1.
<mgrwt>
<rscale>  2 0.63866359E+02</rscale>
<asrwt>0</asrwt>
<pdfrwt beam="1">  1       21 0.96602718E-01 0.63866359E+02</pdfrwt>
<pdfrwt beam="2">  1       21 0.13499701E-02 0.63866359E+02</pdfrwt>
<totfact> 0.20292842E+06</totfact>
</mgrwt>
</event>
<event>
 5    1  0.1595802E+000  0.7559349E+02  0.7546771E-02  0.1342043E+00
         21   -1    0    0  501  502  0.00000000000E+00  0.00000000000E+00  0.28565264009E+03  0.28565264009E+03  0.00000000000E+00 0.  1.
         21   -1    0    0  502  503 -0.00000000000E+00 -0.00000000000E+00 -0.22895816053E+02  0.22895816053E+02  0.00000000000E+00 0.  1.
         24    1    1    2    0    0 -0.12289320904E+02 -0.85133283349E+01  0.19545718140E+03  0.21188258513E+03  0.80419002446E+02 0.  1.
          1    1    1    2  501    0  0.29441118916E+02 -0.20367871635E+02  0.34885685321E+02  0.49986405335E+02  0.00000000000E+00 0. -1.
         -2    1    1    2    0  503 -0.17151798012E+02  0.28881199970E+02  0.32413957317E+02  0.46679465675E+02  0.00000000000E+00 0.  1.
<mgrwt>
<rscale>  2 0.75593486E+02</rscale>
<asrwt>0</asrwt>
<pdfrwt beam="1">  1       21 0.43946558E-01 0.75593486E+02</pdfrwt>
<pdfrwt beam="2">  1       21 0.35224334E-02 0.75593486E+02</pdfrwt>
<totfact> 0.23490382E+06</totfact>
</mgrwt>
</event>
<event>
 5    1  0.1595802E+000  0.7736528E+02  0.7546771E-02  0.1336699E+00
         21   -1    0    0  501  502  0.00000000000E+00  0.00000000000E+00  0.12024822894E+03  0.12024822894E+03  0.00000000000E+00 0. -1.
         21   -1    0    0  502  503 -0.00000000000E+00 -0.00000000000E+00 -0.27498669843E+03  0.27498669843E+03  0.00000000000E+00 0. -1.
         24    1    1    2    0    0  0.22838314539E+02  0.20789293735E+02 -0.21412301203E+03  0.23080221745E+03  0.80419002446E+02 0. -1.
          1    1    1    2  501    0  0.14591525514E+02 -0.26955042240E+02  0.10251179728E+03  0.10699605366E+03  0.00000000000E+00 0. -1.
         -2    1    1    2    0  503 -0.37429840053E+02  0.61657485052E+01 -0.43127254725E+02  0.57436656249E+02  0.00000000000E+00 0.  1.
<mgrwt>
<rscale>  2 0.77365275E+02</rscale>
<asrwt>0</asrwt>
<pdfrwt beam="1">  1       21 0.18499728E-01 0.77365275E+02</pdfrwt>
<pdfrwt beam="2">  1       21 0.42305645E-01 0.77365275E+02</pdfrwt>
<totfact> 0.14935280E+05</totfact>
</mgrwt>
</event>
<event>
 5    1  0.1595802E+000  0.1118838E+03  0.7546771E-02  0.1257121E+00
         21   -1    0    0  501  502  0.00000000000E+00  0.00000000000E+00  0.13181338704E+03  0.13181338704E+03  0.00000000000E+00 0. -1.
         21   -1    0    0  502  503 -0.00000000000E+00 -0.00000000000E+00 -0.20266092998E+03  0.20266092998E+03  0.00000000000E+00 0.  1.
         24    1    1    2    0    0 -0.57433218056E+02  0.40955339562E+02  0.34912732058E+02  0.11252568235E+03  0.80419002446E+02 0. -1.
          1    1    1    2  501    0  0.38417463173E+02 -0.71295980503E+02  0.26275609446E+02  0.85143560910E+02  0.00000000000E+00 0. -1.
         -2    1    1    2    0  503  0.19015754882E+02  0.30340640942E+02 -0.13203588444E+03  0.13680507376E+03  0.00000000000E+00 0.  1.
<mgrwt>
<rscale>  2 0.11188375E+03</rscale>
<asrwt>0</asrwt>
<pdfrwt beam="1">  1       21 0.20278983E-01 0.11188375E+03</pdfrwt>
<pdfrwt beam="2">  1       21 0.31178604E-01 0.11188375E+03</pdfrwt>
<totfact> 0.22687637E+05</totfact>
</mgrwt>
</event>
<event>
 5    1  0.1595802E+000  0.1040868E+03  0.7546771E-02  0.1271929E+00
         21   -1    0    0  501  502  0.00000000000E+00  0.00000000000E+00  0.52450630722E+03  0.52450630722E+03  0.00000000000E+00 0.  1.
         21   -1    0    0  502  503 -0.00000000000E+00 -0.00000000000E+00 -0.21501083901E+02  0.21501083901E+02  0.00000000000E+00 0. -1.
         24    1    1    2    0    0 -0.56350599010E+02  0.28340706419E+02  0.26882669495E+03  0.28759971058E+03  0.80419002446E+02 0.  0.
          1    1    1    2  501    0  0.50079958914E+02 -0.57437517732E+02  0.19380290652E+03  0.20824657813E+03  0.00000000000E+00 0. -1.
         -2    1    1    2    0  503  0.62706400960E+01  0.29096811313E+02  0.40375621841E+02  0.50161102409E+02  0.00000000000E+00 0.  1.
<mgrwt>
<rscale>  2 0.10408684E+03</rscale>
<asrwt>0</asrwt>
<pdfrwt beam="1">  1       21 0.80693268E-01 0.10408684E+03</pdfrwt>
<pdfrwt beam="2">  1       21 0.33078595E-02 0.10408684E+03</pdfrwt>
<totfact> 0.73138020E+05</totfact>
</mgrwt>
</event>
<event>
 5    1  0.1595802E+000  0.9073848E+02  0.7546771E-02  0.1301073E+00
         21   -1    0    0  501  502  0.00000000000E+00  0.00000000000E+00  0.24917203813E+02  0.24917203813E+02  0.00000000000E+00 0.  1.
         21   -1    0    0  502  503 -0.00000000000E+00 -0.00000000000E+00 -0.35788073839E+03  0.35788073839E+03  0.00000000000E+00 0. -1.
         24    1    1    2    0    0  0.23799401714E+02  0.32413615459E+01 -0.19394318900E+03  0.21132461868E+03  0.80419002446E+02 0.  0.
          1    1    1    2  501    0  0.31949796537E+02  0.19397425008E+02 -0.34472397131E+02  0.50846787112E+02  0.00000000000E+00 0. -1.
         -2    1    1    2    0  503 -0.55749198251E+02 -0.22638786554E+02 -0.10454794844E+03  0.12062653641E+03  0.00000000000E+00 0.  1.
<mgrwt>
<rscale>  2 0.90738477E+02</rscale>
<asrwt>0</asrwt>
<pdfrwt beam="1">  1       21 0.38334159E-02 0.90738477E+02</pdfrwt>
<pdfrwt beam="2">  1       21 0.55058576E-01 0.90738477E+02</pdfrwt>
<totfact> 0.13018453E+06</totfact>
</mgrwt>
</event>
<event>
 5    1  0.1595802E+000  0.8742356E+02  0.7546771E-02  0.1309214E+00
         21   -1    0    0  503  502  0.00000000000E+00  0.00000000000E+00  0.56335074300E+03  0.56335074300E+03  0.00000000000E+00 0.  1.
         21   -1    0    0  501  503 -0.00000000000E+00 -0.00000000000E+00 -0.12476558444E+03  0.12476558444E+03  0.00000000000E+00 0.  1.
         24    1    1    2    0    0 -0.29360329055E+01 -0.66940736887E+02 -0.60206702557E+02  0.12075489858E+03  0.80419002446E+02 0.  1.
          1    1    1    2  501    0  0.11299310998E+02  0.25433708153E+02 -0.27643296183E+02  0.39226263692E+02  0.00000000000E+00 0. -1.
         -2    1    1    2    0  502 -0.83632780922E+01  0.41507028734E+02  0.52643515729E+03  0.52813516517E+03  0.00000000000E+00 0.  1.
<mgrwt>
<rscale>  2 0.87423557E+02</rscale>
<asrwt>0</asrwt>
<pdfrwt beam="1">  1       21 0.86669344E-01 0.87423557E+02</pdfrwt>
<pdfrwt beam="2">  1       21 0.19194706E-01 0.87423557E+02</pdfrwt>
<totfact> 0.30690624E+04</totfact>
</mgrwt>
</event>
<event>
 5    1  0.1595802E+000  0.7495756E+02  0.7546771E-02  0.1344003E+00
         21   -1    0    0  503  502  0.00000000000E+00  0.00000000000E+00  0.51628577964E+03  0.51628577964E+03  0.00000000000E+00 0. -1.
         21   -1    0    0  501  503 -0.00000000000E+00 -0.00000000000E+00 -0.11543405576E+02  0.11543405576E+02  0.00000000000E+00 0. -1.
         24    1    1    2    0    0 -0.12158635193E+02 -0.10824879365E+02  0.22278230596E+03  0.23741141975E+03  0.80419002446E+02 0. -1.
          1    1    1    2  501    0  0.13525722601E+02  0.38164896467E+02  0.13546063363E+03  0.14138277037E+03  0.00000000000E+00 0. -1.
         -2    1    1    2    0  502 -0.13670874077E+01 -0.27340017102E+02  0.14649943447E+03  0.14903499510E+03  0.00000000000E+00 0.  1.
<mgrwt>
<rscale>  2 0.74957558E+02</rscale>
<asrwt>0</asrwt>
<pdfrwt beam="1">  1       21 0.79428564E-01 0.74957558E+02</pdfrwt>
<pdfrwt beam="2">  1       21 0.17759089E-02 0.74957558E+02</pdfrwt>
<totfact> 0.20509296E+06</totfact>
</mgrwt>
</event>
<event>
 5    1  0.1595802E+000  0.8103085E+02  0.7546771E-02  0.1326151E+00
         21   -1    0    0  503  502  0.00000000000E+00  0.00000000000E+00  0.11568971161E+03  0.11568971161E+03  0.00000000000E+00 0. -1.
         21   -1    0    0  501  503 -0.00000000000E+00 -0.00000000000E+00 -0.64780368424E+02  0.64780368424E+02  0.00000000000E+00 0.  1.
         24    1    1    2    0    0 -0.45876425904E+02 -0.30885488350E+02  0.43206463778E+02  0.10673600288E+03  0.80419002446E+02 0. -1.
          1    1    1    2  501    0  0.45428853658E+01  0.21633392406E+02 -0.13975355325E+02  0.26152476573E+02  0.00000000000E+00 0. -1.
         -2    1    1    2    0  502  0.41333540538E+02  0.92520959439E+01  0.21678234735E+02  0.47581600582E+02  0.00000000000E+00 0.  1.
<mgrwt>
<rscale>  2 0.81030848E+02</rscale>
<asrwt>0</asrwt>
<pdfrwt beam="1">  1       21 0.17798417E-01 0.81030848E+02</pdfrwt>
<pdfrwt beam="2">  1       21 0.99662105E-02 0.81030848E+02</pdfrwt>
<totfact> 0.22812837E+06</totfact>
</mgrwt>
</event>
<event>
 5    1  0.1595802E+000  0.8643591E+02  0.7546771E-02  0.1311720E+00
         21   -1    0    0  503  502  0.00000000000E+00  0.00000000000E+00  0.95354666541E+01  0.95354666541E+01  0.00000000000E+00 0. -1.
         21   -1    0    0  501  503 -0.00000000000E+00 -0.00000000000E+00 -0.84172658218E+03  0.84172658218E+03  0.00000000000E+00 0.  1.
         24    1    1    2    0    0 -0.59285594081E+01  0.20508977431E+02 -0.31397079274E+03  0.32480862153E+03  0.80419002446E+02 0. -1.
          1    1    1    2  501    0  0.11310236765E+02  0.33517066685E+02 -0.27379611217E+03  0.27607177736E+03  0.00000000000E+00 0. -1.
         -2    1    1    2    0  502 -0.53816773569E+01 -0.54026044117E+02 -0.24442421062E+03  0.25038164995E+03  0.00000000000E+00 0.  1.
<mgrwt>
<rscale>  2 0.86435908E+02</rscale>
<asrwt>0</asrwt>
<pdfrwt beam="1">  1       21 0.14669949E-02 0.86435908E+02</pdfrwt>
<pdfrwt beam="2">  1       21 0.12949639E+00 0.86435908E+02</pdfrwt>
<totfact> 0.89857229E+05</totfact>
</mgrwt>
</event>
<event>
 5    1  0.1595802E+000  0.7774913E+02  0.7546771E-02  0.1335563E+00
         21   -1    0    0  503  502  0.00000000000E+00  0.00000000000E+00  0.41028212736E+01  0.41028212736E+01  0.00000000000E+00 0. -1.
         21   -1    0    0  501  503 -0.00000000000E+00 -0.00000000000E+00 -0.17685754653E+04  0.17685754653E+04  0.00000000000E+00 0. -1.
         24    1    1    2    0    0 -0.93403741374E+01 -0.55665485160E+02 -0.91530361347E+03  0.92056168159E+03  0.80419002446E+02 0. -1.
          1    1    1    2  501    0  0.87922457661E+01  0.23707419441E+02 -0.64187826708E+03  0.64237610095E+03  0.00000000000E+00 0. -1.
         -2    1    1    2    0  502  0.54812837133E+00  0.31958065719E+02 -0.20729076344E+03  0.20974050400E+03  0.00000000000E+00 0.  1.
<mgrwt>
<rscale>  2 0.77749130E+02</rscale>
<asrwt>0</asrwt>
<pdfrwt beam="1">  1       21 0.63120348E-03 0.77749130E+02</pdfrwt>
<pdfrwt beam="2">  1       21 0.27208845E+00 0.77749130E+02</pdfrwt>
<totfact> 0.41900455E+05</totfact>
</mgrwt>
</event>
<event>
 5    1  0.1595802E+000  0.1081033E+03  0.7546771E-02  0.1264123E+00
         21   -1    0    0  503  502  0.00000000000E+00  0.00000000000E+00  0.90781622278E+02  0.90781622278E+02  0.00000000000E+00 0.  1.
         21   -1    0    0  501  503 -0.00000000000E+00 -0.00000000000E+00 -0.21553885230E+03  0.21553885230E+03  0.00000000000E+00 0. -1.
         24    1    1    2    0    0  0.55749742416E+00  0.59674509150E+02 -0.11864571586E+03  0.15525907282E+03  0.80419002446E+02 0. -1.
          1    1    1    2  501    0 -0.46438078733E+02 -0.82814975734E+01 -0.50502155263E+02  0.69105325733E+02  0.00000000000E+00 0. -1.
         -2    1    1    2    0  502  0.45880581309E+02 -0.51393011576E+02  0.44390641103E+02  0.81956076027E+02  0.00000000000E+00 0.  1.
<mgrwt>
<rscale>  2 0.10810334E+03</rscale>
<asrwt>0</asrwt>
<pdfrwt beam="1">  1       21 0.13966403E-01 0.10810334E+03</pdfrwt>
<pdfrwt beam="2">  1       21 0.33159823E-01 0.10810334E+03</pdfrwt>
<totfact> 0.39619436E+05</totfact>
</mgrwt>
</event>
<event>
 5    1  0.1595802E+000  0.7956139E+02  0.7546771E-02  0.1330301E+00
         21   -1    0    0  503  502  0.00000000000E+00  0.00000000000E+00  0.29943181194E+04  0.29943181194E+04  0.00000000000E+00 0.  1.
         21   -1    0    0  501  503 -0.00000000000E+00 -0.00000000000E+00 -0.21158015957E+01  0.21158015957E+01  0.00000000000E+00 0. -1.
         24    1    1    2    0    0  0.43839930535E+02 -0.12763061205E+02  0.17517536852E+04  0.17541929839E+04  0.80419002446E+02 0.  1.
          1    1    1    2  501    0 -0.28300019599E+02  0.31471836285E+02  0.76192260941E+03  0.76309726137E+03  0.00000000000E+00 0. -1.
         -2    1    1    2    0  502 -0.15539910936E+02 -0.18708775079E+02  0.47852602312E+03  0.47914367564E+03  0.00000000000E+00 0.  1.
<mgrwt>
<rscale>  2 0.79561385E+02</rscale>
<asrwt>0</asrwt>
<pdfrwt beam="1">  1       21 0.46066094E+00 0.79561385E+02</pdfrwt>
<pdfrwt beam="2">  1       21 0.32551033E-03 0.79561385E+02</pdfrwt>
<totfact> 0.92723225E+04</totfact>
</mgrwt>
</event>
<event>
 5    1  0.1595802E+000  0.8137988E+02  0.7546771E-02  0.1325181E+00
         21   -1    0    0  503  502  0.00000000000E+00  0.00000000000E+00  0.10314070246E+03  0.10314070246E+03  0.00000000000E+00 0.  1.
         21   -1    0    0  501  503 -0.00000000000E+00 -0.00000000000E+00 -0.77158495385E+02  0.77158495385E+02  0.00000000000E+00 0. -1.
         24    1    1    2    0    0 -0.31666283943E+02 -0.28053444297E+02  0.50679157163E+02  0.10404490473E+03  0.80419002446E+02 0.  1.
          1    1    1    2  501    0  0.13423854773E+02  0.45020206414E+02 -0.19144951391E+02  0.50730149087E+02  0.00000000000E+00 0. -1.
         -2    1    1    2    0  502  0.18242429170E+02 -0.16966762117E+02 -0.55519986953E+01  0.25524144027E+02  0.00000000000E+00 0.  1.
<mgrwt>
<rscale>  2 0.81379879E+02</rscale>
<asrwt>0</asrwt>
<pdfrwt beam="1">  1       21 0.15867800E-01 0.81379879E+02</pdfrwt>
<pdfrwt beam="2">  1       21 0.11870538E-01 0.81379879E+02</pdfrwt>
<totfact> 0.20696752E+06</totfact>
</mgrwt>
</event>
<event>
 5    1  0.1595802E+000  0.7192417E+02  0.7546771E-02  0.1353669E+00
         21   -1    0    0  501  502  0.00000000000E+00  0.00000000000E+00  0.68601621758E+02  0.68601621758E+02  0.00000000000E+00 0. -1.
         21   -1    0    0  502  503 -0.00000000000E+00 -0.00000000000E+00 -0.33887642932E+03  0.33887642932E+03  0.00000000000E+00 0. -1.
         24    1    1    2    0    0 -0.32248418563E+02 -0.17612804507E+02 -0.16101381128E+03  0.18369222836E+03  0.80419002446E+02 0. -1.
          1    1    1    2  501    0  0.25617858432E+02 -0.96497739550E+01  0.52714234097E+02  0.59398512477E+02  0.00000000000E+00 0. -1.
         -2    1    1    2    0  503  0.66305601315E+01  0.27262578462E+02 -0.16197523038E+03  0.16438731025E+03  0.00000000000E+00 0.  1.
<mgrwt>
<rscale>  2 0.71924169E+02</rscale>
<asrwt>0</asrwt>
<pdfrwt beam="1">  1       21 0.10554096E-01 0.71924169E+02</pdfrwt>
<pdfrwt beam="2">  1       21 0.52134836E-01 0.71924169E+02</pdfrwt>
<totfact> 0.26479963E+05</totfact>
</mgrwt>
</event>
<event>
 5    1  0.1595802E+000  0.7353095E+02  0.7546771E-02  0.1348482E+00
         21   -1    0    0  501  502  0.00000000000E+00  0.00000000000E+00  0.48370629954E+03  0.48370629954E+03  0.00000000000E+00 0. -1.
         21   -1    0    0  502  503 -0.00000000000E+00 -0.00000000000E+00 -0.33836337817E+02  0.33836337817E+02  0.00000000000E+00 0.  1.
         24    1    1    2    0    0 -0.17454310404E+02 -0.39710450196E+02  0.20189169530E+03  0.22160560776E+03  0.80419002446E+02 0.  1.
          1    1    1    2  501    0 -0.31262685623E+01  0.34256970134E+02  0.26589480714E+03  0.26811072717E+03  0.00000000000E+00 0. -1.
         -2    1    1    2    0  503  0.20580578966E+02  0.54534800621E+01 -0.17916540719E+02  0.27826302426E+02  0.00000000000E+00 0.  1.
<mgrwt>
<rscale>  2 0.73530945E+02</rscale>
<asrwt>0</asrwt>
<pdfrwt beam="1">  1       21 0.74416349E-01 0.73530945E+02</pdfrwt>
<pdfrwt beam="2">  1       21 0.52055908E-02 0.73530945E+02</pdfrwt>
<totfact> 0.41419561E+05</totfact>
</mgrwt>
</event>
<event>
 5    1  0.1595802E+000  0.9007588E+02  0.7546771E-02  0.1302668E+00
         21   -1    0    0  503  502  0.00000000000E+00  0.00000000000E+00  0.37374076768E+03  0.37374076768E+03  0.00000000000E+00 0.  1.
         21   -1    0    0  501  503 -0.00000000000E+00 -0.00000000000E+00 -0.14445393627E+03  0.14445393627E+03  0.00000000000E+00 0. -1.
         24    1    1    2    0    0 -0.59483461723E+02 -0.14735516569E+02 -0.28538006020E+02  0.10505737199E+03  0.80419002446E+02 0.  1.
          1    1    1    2  501    0  0.43248964043E+02 -0.14490918057E+02 -0.70034359627E+02  0.83577934440E+02  0.00000000000E+00 0. -1.
         -2    1    1    2    0  502  0.16234497680E+02  0.29226434626E+02  0.32785919706E+03  0.32955939752E+03  0.00000000000E+00 0.  1.
<mgrwt>
<rscale>  2 0.90075883E+02</rscale>
<asrwt>0</asrwt>
<pdfrwt beam="1">  1       21 0.57498579E-01 0.90075883E+02</pdfrwt>
<pdfrwt beam="2">  1       21 0.22223683E-01 0.90075883E+02</pdfrwt>
<totfact> 0.56794089E+04</totfact>
</mgrwt>
</event>
<event>
 5    1  0.1595802E+000  0.1153310E+03  0.7546771E-02  0.1251004E+00
         21   -1    0    0  503  502  0.00000000000E+00  0.00000000000E+00  0.68692038503E+02  0.68692038503E+02  0.00000000000E+00 0. -1.
         21   -1    0    0  501  503 -0.00000000000E+00 -0.00000000000E+00 -0.19979697208E+03  0.19979697208E+03  0.00000000000E+00 0. -1.
         24    1    1    2    0    0  0.85205190510E+02  0.14985409802E+02 -0.53469934213E+02  0.12965622552E+03  0.80419002446E+02 0. -1.
          1    1    1    2  501    0 -0.64163603652E+02 -0.43197624737E+02 -0.66246986348E+02  0.10184137674E+03  0.00000000000E+00 0. -1.
         -2    1    1    2    0  502 -0.21041586859E+02  0.28212214935E+02 -0.11388013015E+02  0.36991408320E+02  0.00000000000E+00 0.  1.
<mgrwt>
<rscale>  2 0.11533102E+03</rscale>
<asrwt>0</asrwt>
<pdfrwt beam="1">  1       21 0.10568006E-01 0.11533102E+03</pdfrwt>
<pdfrwt beam="2">  1       21 0.30737995E-01 0.11533102E+03</pdfrwt>
<totfact> 0.75068562E+05</totfact>
</mgrwt>
</event>
<event>
 5    1  0.1595802E+000  0.1540460E+03  0.7546771E-02  0.1195588E+00
         21   -1    0    0  503  502  0.00000000000E+00  0.00000000000E+00  0.41124448700E+03  0.41124448700E+03  0.00000000000E+00 0.  1.
         21   -1    0    0  501  503 -0.00000000000E+00 -0.00000000000E+00 -0.59412823324E+03  0.59412823324E+03  0.00000000000E+00 0. -1.
         24    1    1    2    0    0 -0.10699567130E+03 -0.21295287958E+02 -0.66954294868E+02  0.15116764377E+03  0.80419002446E+02 0. -1.
          1    1    1    2  501    0 -0.27213859210E+02 -0.18106099900E+02 -0.47123051774E+03  0.47236281165E+03  0.00000000000E+00 0. -1.
         -2    1    1    2    0  502  0.13420953051E+03  0.39401387858E+02  0.35530106636E+03  0.38184226482E+03  0.00000000000E+00 0.  1.
<mgrwt>
<rscale>  2 0.15404600E+03</rscale>
<asrwt>0</asrwt>
<pdfrwt beam="1">  1       21 0.63268383E-01 0.15404600E+03</pdfrwt>
<pdfrwt beam="2">  1       21 0.91404343E-01 0.15404600E+03</pdfrwt>
<totfact> 0.24307187E+03</totfact>
</mgrwt>
</event>
<event>
 5    1  0.1595802E+000  0.9862217E+02  0.7546771E-02  0.1283220E+00
         21   -1    0    0  501  502  0.00000000000E+00  0.00000000000E+00  0.30089475895E+02  0.30089475895E+02  0.00000000000E+00 0. -1.
         21   -1    0    0  502  503 -0.00000000000E+00 -0.00000000000E+00 -0.34049520100E+03  0.34049520100E+03  0.00000000000E+00 0.  1.
         24    1    1    2    0    0  0.28809830293E+02 -0.77014121616E+02 -0.20336779238E+03  0.23363830205E+03  0.80419002446E+02 0.  1.
          1    1    1    2  501    0 -0.21066930350E+02  0.57218437777E+02 -0.61049976521E+02  0.86283630019E+02  0.00000000000E+00 0. -1.
         -2    1    1    2    0  503 -0.77428999437E+01  0.19795683839E+02 -0.45987956202E+02  0.50662744831E+02  0.00000000000E+00 0.  1.
<mgrwt>
<rscale>  2 0.98622172E+02</rscale>
<asrwt>0</asrwt>
<pdfrwt beam="1">  1       21 0.46291499E-02 0.98622172E+02</pdfrwt>
<pdfrwt beam="2">  1       21 0.52383879E-01 0.98622172E+02</pdfrwt>
<totfact> 0.10580891E+06</totfact>
</mgrwt>
</event>
<event>
 5    1  0.1595802E+000  0.8092752E+02  0.7546771E-02  0.1326440E+00
         21   -1    0    0  503  502  0.00000000000E+00  0.00000000000E+00  0.20424417231E+03  0.20424417231E+03  0.00000000000E+00 0.  1.
         21   -1    0    0  501  503 -0.00000000000E+00 -0.00000000000E+00 -0.75642146041E+02  0.75642146041E+02  0.00000000000E+00 0. -1.
         24    1    1    2    0    0 -0.26736433971E+02 -0.24594237035E+02  0.10536579501E+03  0.13743682225E+03  0.80419002446E+02 0.  1.
          1    1    1    2  501    0 -0.21125733297E+02  0.39734041149E+01 -0.48923688300E+02  0.53437924964E+02  0.00000000000E+00 0. -1.
         -2    1    1    2    0  502  0.47862167268E+02  0.20620832920E+02  0.72159919560E+02  0.89011571140E+02  0.00000000000E+00 0.  1.
<mgrwt>
<rscale>  2 0.80927522E+02</rscale>
<asrwt>0</asrwt>
<pdfrwt beam="1">  1       21 0.31422180E-01 0.80927522E+02</pdfrwt>
<pdfrwt beam="2">  1       21 0.11637253E-01 0.80927522E+02</pdfrwt>
<totfact> 0.60679026E+05</totfact>
</mgrwt>
</event>
<event>
 5    1  0.1595802E+000  0.8173926E+02  0.7546771E-02  0.1324187E+00
         21   -1    0    0  501  502  0.00000000000E+00  0.00000000000E+00  0.91192215739E+02  0.91192215739E+02  0.00000000000E+00 0.  1.
         21   -1    0    0  502  503 -0.00000000000E+00 -0.00000000000E+00 -0.20073262937E+03  0.20073262937E+03  0.00000000000E+00 0.  1.
         24    1    1    2    0    0 -0.11951246633E+02 -0.21305047927E+02  0.32915555909E+02  0.90262877965E+02  0.80419002446E+02 0.  1.
          1    1    1    2  501    0  0.26067367253E+02  0.44910219841E+02  0.45304070999E+01  0.52124467097E+02  0.00000000000E+00 0. -1.
         -2    1    1    2    0  503 -0.14116120620E+02 -0.23605171913E+02 -0.14698637664E+03  0.14953750005E+03  0.00000000000E+00 0.  1.
<mgrwt>
<rscale>  2 0.81739261E+02</rscale>
<asrwt>0</asrwt>
<pdfrwt beam="1">  1       21 0.14029572E-01 0.81739261E+02</pdfrwt>
<pdfrwt beam="2">  1       21 0.30881943E-01 0.81739261E+02</pdfrwt>
<totfact> 0.45157286E+05</totfact>
</mgrwt>
</event>
<event>
 5    1  0.1595802E+000  0.7598903E+02  0.7546771E-02  0.1340835E+00
         21   -1    0    0  503  502  0.00000000000E+00  0.00000000000E+00  0.64415364878E+02  0.64415364878E+02  0.00000000000E+00 0.  1.
         21   -1    0    0  501  503 -0.00000000000E+00 -0.00000000000E+00 -0.18254609372E+03  0.18254609372E+03  0.00000000000E+00 0.  1.
         24    1    1    2    0    0  0.23916600922E+02 -0.44127979313E+02 -0.12757677137E+03  0.15894128131E+03  0.80419002446E+02 0.  1.
          1    1    1    2  501    0 -0.25851940538E+02  0.19259925685E+02 -0.28219714256E+02  0.42844134251E+02  0.00000000000E+00 0. -1.
         -2    1    1    2    0  502  0.19353396163E+01  0.24868053628E+02  0.37665756780E+02  0.45176043037E+02  0.00000000000E+00 0.  1.
<mgrwt>
<rscale>  2 0.75989032E+02</rscale>
<asrwt>0</asrwt>
<pdfrwt beam="1">  1       21 0.99100563E-02 0.75989032E+02</pdfrwt>
<pdfrwt beam="2">  1       21 0.28084014E-01 0.75989032E+02</pdfrwt>
<totfact> 0.99151681E+05</totfact>
</mgrwt>
</event>
<event>
 5    1  0.1595802E+000  0.7014875E+02  0.7546771E-02  0.1359588E+00
         21   -1    0    0  503  502  0.00000000000E+00  0.00000000000E+00  0.25083926932E+02  0.25083926932E+02  0.00000000000E+00 0. -1.
         21   -1    0    0  501  503 -0.00000000000E+00 -0.00000000000E+00 -0.60012965923E+03  0.60012965923E+03  0.00000000000E+00 0.  1.
         24    1    1    2    0    0  0.14432481323E+02  0.13152141998E+02 -0.43418360356E+03  0.44199987886E+03  0.80419002446E+02 0.  1.
          1    1    1    2  501    0  0.21044893250E+01  0.20203026271E+02 -0.14439521019E+03  0.14581689844E+03  0.00000000000E+00 0. -1.
         -2    1    1    2    0  502 -0.16536970648E+02 -0.33355168270E+02  0.35330814499E+01  0.37396808862E+02  0.00000000000E+00 0.  1.
<mgrwt>
<rscale>  2 0.70148746E+02</rscale>
<asrwt>0</asrwt>
<pdfrwt beam="1">  1       21 0.38590661E-02 0.70148746E+02</pdfrwt>
<pdfrwt beam="2">  1       21 0.92327629E-01 0.70148746E+02</pdfrwt>
<totfact> 0.42106089E+05</totfact>
</mgrwt>
</event>
<event>
 5    1  0.1595802E+000  0.1336573E+03  0.7546771E-02  0.1222128E+00
         21   -1    0    0  501  502  0.00000000000E+00  0.00000000000E+00  0.17069415349E+03  0.17069415349E+03  0.00000000000E+00 0. -1.
         21   -1    0    0  502  503 -0.00000000000E+00 -0.00000000000E+00 -0.11994516622E+03  0.11994516622E+03  0.00000000000E+00 0.  1.
         24    1    1    2    0    0  0.19076661523E+02  0.16565048949E+02  0.39246429413E+02  0.92982891101E+02  0.80419002446E+02 0.  0.
          1    1    1    2  501    0  0.77041593393E+02  0.20951700108E+02  0.41799472353E+02  0.90119791050E+02  0.00000000000E+00 0. -1.
         -2    1    1    2    0  503 -0.96118254916E+02 -0.37516749057E+02 -0.30296914496E+02  0.10753663755E+03  0.00000000000E+00 0.  1.
<mgrwt>
<rscale>  2 0.13365730E+03</rscale>
<asrwt>0</asrwt>
<pdfrwt beam="1">  1       21 0.26260639E-01 0.13365730E+03</pdfrwt>
<pdfrwt beam="2">  1       21 0.18453102E-01 0.13365730E+03</pdfrwt>
<totfact> 0.37347958E+05</totfact>
</mgrwt>
</event>
<event>
 5    1  0.1595802E+000  0.1121421E+03  0.7546771E-02  0.1256654E+00
         21   -1    0    0  501  502  0.00000000000E+00  0.00000000000E+00  0.68195540692E+03  0.68195540692E+03  0.00000000000E+00 0.  1.
         21   -1    0    0  502  503 -0.00000000000E+00 -0.00000000000E+00 -0.24083867970E+02  0.24083867970E+02  0.00000000000E+00 0.  1.
         24    1    1    2    0    0 -0.77240261639E+01 -0.67188783460E+02  0.18946498830E+03  0.21665223504E+03  0.80419002446E+02 0.  1.
          1    1    1    2  501    0 -0.25323894347E+02 -0.15821638828E+02  0.27174799947E+03  0.27338361161E+03  0.00000000000E+00 0. -1.
         -2    1    1    2    0  503  0.33047920511E+02  0.83010422288E+02  0.19665855119E+03  0.21600342825E+03  0.00000000000E+00 0.  1.
<mgrwt>
<rscale>  2 0.11214214E+03</rscale>
<asrwt>0</asrwt>
<pdfrwt beam="1">  1       21 0.10491620E+00 0.11214214E+03</pdfrwt>
<pdfrwt beam="2">  1       21 0.37052110E-02 0.11214214E+03</pdfrwt>
<totfact> 0.33267728E+05</totfact>
</mgrwt>
</event>
<event>
 5    1  0.1595802E+000  0.1568826E+03  0.7546771E-02  0.1192262E+00
         21   -1    0    0  501  502  0.00000000000E+00  0.00000000000E+00  0.19151273332E+03  0.19151273332E+03  0.00000000000E+00 0. -1.
         21   -1    0    0  502  503 -0.00000000000E+00 -0.00000000000E+00 -0.74997742388E+03  0.74997742388E+03  0.00000000000E+00 0.  1.
         24    1    1    2    0    0  0.55939568932E+02 -0.30889827490E+02 -0.32329408652E+03  0.33921924938E+03  0.80419002446E+02 0.  0.
          1    1    1    2  501    0 -0.10097114762E+03  0.91010079090E+02  0.15429197281E+03  0.20563078569E+03  0.00000000000E+00 0. -1.
         -2    1    1    2    0  503  0.45031578692E+02 -0.60120251600E+02 -0.38946257684E+03  0.39664012214E+03  0.00000000000E+00 0.  1.
<mgrwt>
<rscale>  2 0.15688263E+03</rscale>
<asrwt>0</asrwt>
<pdfrwt beam="1">  1       21 0.29463498E-01 0.15688263E+03</pdfrwt>
<pdfrwt beam="2">  1       21 0.11538114E+00 0.15688263E+03</pdfrwt>
<totfact> 0.66105731E+03</totfact>
</mgrwt>
</event>
<event>
 5    1  0.1595802E+000  0.6995646E+02  0.7546771E-02  0.1360241E+00
         21   -1    0    0  503  502  0.00000000000E+00  0.00000000000E+00  0.24092836763E+02  0.24092836763E+02  0.00000000000E+00 0. -1.
         21   -1    0    0  501  503 -0.00000000000E+00 -0.00000000000E+00 -0.21591443185E+03  0.21591443185E+03  0.00000000000E+00 0.  1.
         24    1    1    2    0    0  0.33994344630E+02  0.62902622786E+01 -0.10180612377E+03  0.13426423819E+03  0.80419002446E+02 0.  1.
          1    1    1    2  501    0 -0.14678971729E+02 -0.22700197299E+02 -0.63741875726E+02  0.69237257957E+02  0.00000000000E+00 0. -1.
         -2    1    1    2    0  502 -0.19315372902E+02  0.16409935021E+02 -0.26273595593E+02  0.36505772463E+02  0.00000000000E+00 0.  1.
<mgrwt>
<rscale>  2 0.69956460E+02</rscale>
<asrwt>0</asrwt>
<pdfrwt beam="1">  1       21 0.37065905E-02 0.69956460E+02</pdfrwt>
<pdfrwt beam="2">  1       21 0.33217603E-01 0.69956460E+02</pdfrwt>
<totfact> 0.37192024E+06</totfact>
</mgrwt>
</event>
<event>
 5    1  0.1595802E+000  0.7590498E+02  0.7546771E-02  0.1341091E+00
         21   -1    0    0  503  502  0.00000000000E+00  0.00000000000E+00  0.23557300902E+03  0.23557300902E+03  0.00000000000E+00 0.  1.
         21   -1    0    0  501  503 -0.00000000000E+00 -0.00000000000E+00 -0.75592515103E+02  0.75592515103E+02  0.00000000000E+00 0.  1.
         24    1    1    2    0    0 -0.45367232103E+02 -0.22714939152E+02 -0.61253887999E+01  0.95283212329E+02  0.80419002446E+02 0.  1.
          1    1    1    2  501    0  0.12026432550E+02  0.19916374905E+02 -0.17588388905E+02  0.29165878926E+02  0.00000000000E+00 0. -1.
         -2    1    1    2    0  502  0.33340799553E+02  0.27985642464E+01  0.18369427162E+03  0.18671643287E+03  0.00000000000E+00 0.  1.
<mgrwt>
<rscale>  2 0.75904979E+02</rscale>
<asrwt>0</asrwt>
<pdfrwt beam="1">  1       21 0.36242001E-01 0.75904979E+02</pdfrwt>
<pdfrwt beam="2">  1       21 0.11629618E-01 0.75904979E+02</pdfrwt>
<totfact> 0.46126810E+05</totfact>
</mgrwt>
</event>
<event>
 5    1  0.1595802E+000  0.7656053E+02  0.7546771E-02  0.1339106E+00
         21   -1    0    0  501  502  0.00000000000E+00  0.00000000000E+00  0.35377674181E+03  0.35377674181E+03  0.00000000000E+00 0.  1.
         21   -1    0    0  502  503 -0.00000000000E+00 -0.00000000000E+00 -0.86030176208E+02  0.86030176208E+02  0.00000000000E+00 0.  1.
         24    1    1    2    0    0  0.20643529121E+01  0.13582360351E+02  0.23403535913E+03  0.24784775032E+03  0.80419002446E+02 0.  1.
          1    1    1    2  501    0  0.10279925284E+02 -0.40574279867E+02  0.10591895292E+03  0.11388930432E+03  0.00000000000E+00 0. -1.
         -2    1    1    2    0  503 -0.12344278196E+02  0.26991919515E+02 -0.72207746435E+02  0.78069863382E+02  0.00000000000E+00 0.  1.
<mgrwt>
<rscale>  2 0.76560531E+02</rscale>
<asrwt>0</asrwt>
<pdfrwt beam="1">  1       21 0.54427190E-01 0.76560531E+02</pdfrwt>
<pdfrwt beam="2">  1       21 0.13235412E-01 0.76560531E+02</pdfrwt>
<totfact> 0.16318106E+05</totfact>
</mgrwt>
</event>
<event>
 5    1  0.1595802E+000  0.9651757E+02  0.7546771E-02  0.1287794E+00
         21   -1    0    0  501  502  0.00000000000E+00  0.00000000000E+00  0.34105509256E+03  0.34105509256E+03  0.00000000000E+00 0.  1.
         21   -1    0    0  502  503 -0.00000000000E+00 -0.00000000000E+00 -0.41189427680E+02  0.41189427680E+02  0.00000000000E+00 0. -1.
         24    1    1    2    0    0  0.62064514322E+02 -0.20510726223E+02  0.26441422718E+03  0.28399787556E+03  0.80419002446E+02 0.  1.
          1    1    1    2  501    0 -0.39933742933E+02 -0.18916794877E+02  0.28293233746E+02  0.52469572410E+02  0.00000000000E+00 0. -1.
         -2    1    1    2    0  503 -0.22130771388E+02  0.39427521100E+02  0.71582039497E+01  0.45777072275E+02  0.00000000000E+00 0.  1.
<mgrwt>
<rscale>  2 0.96517567E+02</rscale>
<asrwt>0</asrwt>
<pdfrwt beam="1">  1       21 0.52470012E-01 0.96517567E+02</pdfrwt>
<pdfrwt beam="2">  1       21 0.63368353E-02 0.96517567E+02</pdfrwt>
<totfact> 0.62317705E+05</totfact>
</mgrwt>
</event>
<event>
 5    1  0.1595802E+000  0.7948090E+02  0.7546771E-02  0.1330531E+00
         21   -1    0    0  501  502  0.00000000000E+00  0.00000000000E+00  0.62430717135E+02  0.62430717135E+02  0.00000000000E+00 0.  1.
         21   -1    0    0  502  503 -0.00000000000E+00 -0.00000000000E+00 -0.22793326396E+03  0.22793326396E+03  0.00000000000E+00 0.  1.
         24    1    1    2    0    0 -0.13445889528E+02 -0.81520536406E+01  0.56104317087E+01  0.82133676541E+02  0.80419002446E+02 0.  1.
          1    1    1    2  501    0  0.35863002266E+02  0.29217604522E+02 -0.14284755048E+02  0.48413609371E+02  0.00000000000E+00 0. -1.
         -2    1    1    2    0  503 -0.22417112738E+02 -0.21065550882E+02 -0.15682822349E+03  0.15981669518E+03  0.00000000000E+00 0.  1.
<mgrwt>
<rscale>  2 0.79480896E+02</rscale>
<asrwt>0</asrwt>
<pdfrwt beam="1">  1       21 0.96047256E-02 0.79480896E+02</pdfrwt>
<pdfrwt beam="2">  1       21 0.35066656E-01 0.79480896E+02</pdfrwt>
<totfact> 0.68503944E+05</totfact>
</mgrwt>
</event>
<event>
 5    1  0.1595802E+000  0.7745759E+02  0.7546771E-02  0.1336425E+00
         21   -1    0    0  501  502  0.00000000000E+00  0.00000000000E+00  0.90850196191E+02  0.90850196191E+02  0.00000000000E+00 0. -1.
         21   -1    0    0  502  503 -0.00000000000E+00 -0.00000000000E+00 -0.27794830121E+03  0.27794830121E+03  0.00000000000E+00 0.  1.
         24    1    1    2    0    0  0.25795829371E+02  0.35808997794E+01 -0.57207078989E+01  0.84724200258E+02  0.80419002446E+02 0. -1.
          1    1    1    2  501    0 -0.42843577023E+02  0.14787670186E+02  0.40502256030E+02  0.60783879649E+02  0.00000000000E+00 0. -1.
         -2    1    1    2    0  503  0.17047747653E+02 -0.18368569966E+02 -0.22187965315E+03  0.22329041749E+03  0.00000000000E+00 0.  1.
<mgrwt>
<rscale>  2 0.77457588E+02</rscale>
<asrwt>0</asrwt>
<pdfrwt beam="1">  1       21 0.13976953E-01 0.77457588E+02</pdfrwt>
<pdfrwt beam="2">  1       21 0.42761277E-01 0.77457588E+02</pdfrwt>
<totfact> 0.24132785E+05</totfact>
</mgrwt>
</event>
<event>
 5    1  0.1595802E+000  0.6532136E+02  0.7546771E-02  0.1376767E+00
         21   -1    0    0  503  502  0.00000000000E+00  0.00000000000E+00  0.19106998546E+03  0.19106998546E+03  0.00000000000E+00 0.  1.
         21   -1    0    0  501  503 -0.00000000000E+00 -0.00000000000E+00 -0.27542617801E+02  0.27542617801E+02  0.00000000000E+00 0. -1.
         24    1    1    2    0    0 -0.29240675176E+01 -0.11659947127E+02  0.14301976966E+03  0.16451861599E+03  0.80419002446E+02 0.  0.
          1    1    1    2  501    0  0.19622212770E+02 -0.99659114762E+01  0.46179729267E+01  0.22487247486E+02  0.00000000000E+00 0. -1.
         -2    1    1    2    0  502 -0.16698145252E+02  0.21625858603E+02  0.15889625070E+02  0.31606739788E+02  0.00000000000E+00 0.  1.
<mgrwt>
<rscale>  2 0.65321356E+02</rscale>
<asrwt>0</asrwt>
<pdfrwt beam="1">  1       21 0.29395382E-01 0.65321356E+02</pdfrwt>
<pdfrwt beam="2">  1       21 0.42373259E-02 0.65321356E+02</pdfrwt>
<totfact> 0.37544561E+06</totfact>
</mgrwt>
</event>
<event>
 5    1  0.1837758E+000  0.1686602E+03  0.7546771E-02  0.1179252E+00
         21   -1    0    0  501  502  0.00000000000E+00  0.00000000000E+00  0.16014772429E+04  0.16014772429E+04  0.00000000000E+00 0. -1.
         21   -1    0    0  502  503 -0.00000000000E+00 -0.00000000000E+00 -0.33283018417E+02  0.33283018417E+02  0.00000000000E+00 0.  1.
         24    1    1    2    0    0  0.15708980000E+02  0.23347833939E+02  0.41226279726E+03  0.42097473008E+03  0.80419002446E+02 0. -1.
          1    1    1    2  501    0 -0.62300940054E+02 -0.12535102744E+03  0.10507633633E+04  0.10600461937E+04  0.00000000000E+00 0. -1.
         -2    1    1    2    0  503  0.46591960054E+02  0.10200319350E+03  0.10516806392E+03  0.15373933750E+03  0.00000000000E+00 0.  1.
<mgrwt>
<rscale>  2 0.16866019E+03</rscale>
<asrwt>0</asrwt>
<pdfrwt beam="1">  1       21 0.24638105E+00 0.16866019E+03</pdfrwt>
<pdfrwt beam="2">  1       21 0.51204656E-02 0.16866019E+03</pdfrwt>
<totfact> 0.18444298E+04</totfact>
</mgrwt>
</event>
<event>
 5    1  0.1595802E+000  0.9106607E+02  0.7546771E-02  0.1300290E+00
         21   -1    0    0  503  502  0.00000000000E+00  0.00000000000E+00  0.12349504516E+03  0.12349504516E+03  0.00000000000E+00 0. -1.
         21   -1    0    0  501  503 -0.00000000000E+00 -0.00000000000E+00 -0.73557133245E+02  0.73557133245E+02  0.00000000000E+00 0. -1.
         24    1    1    2    0    0 -0.32773197580E+02  0.56980668686E+02  0.53773197214E+02  0.11696004350E+03  0.80419002446E+02 0. -1.
          1    1    1    2  501    0  0.12095452448E+02 -0.56292383724E+02 -0.10140805131E+02  0.58463393367E+02  0.00000000000E+00 0. -1.
         -2    1    1    2    0  502  0.20677745131E+02 -0.68828496176E+00  0.63055198294E+01  0.21628741531E+02  0.00000000000E+00 0.  1.
<mgrwt>
<rscale>  2 0.91066069E+02</rscale>
<asrwt>0</asrwt>
<pdfrwt beam="1">  1       21 0.18999238E-01 0.91066069E+02</pdfrwt>
<pdfrwt beam="2">  1       21 0.11316482E-01 0.91066069E+02</pdfrwt>
<totfact> 0.16329742E+06</totfact>
</mgrwt>
</event>
<event>
 5    1  0.1595802E+000  0.7380900E+02  0.7546771E-02  0.1347599E+00
         21   -1    0    0  501  502  0.00000000000E+00  0.00000000000E+00  0.36027666895E+02  0.36027666895E+02  0.00000000000E+00 0.  1.
         21   -1    0    0  502  503 -0.00000000000E+00 -0.00000000000E+00 -0.15289253350E+03  0.15289253350E+03  0.00000000000E+00 0. -1.
         24    1    1    2    0    0 -0.23488436368E+02  0.43984723540E+01 -0.57561340102E+02  0.10174270013E+03  0.80419002446E+02 0.  0.
          1    1    1    2  501    0  0.29907124797E+02  0.21633938714E+02 -0.37507110677E+02  0.52623633182E+02  0.00000000000E+00 0. -1.
         -2    1    1    2    0  503 -0.64186884284E+01 -0.26032411068E+02 -0.21796415827E+02  0.34553867078E+02  0.00000000000E+00 0.  1.
<mgrwt>
<rscale>  2 0.73809002E+02</rscale>
<asrwt>0</asrwt>
<pdfrwt beam="1">  1       21 0.55427181E-02 0.73809002E+02</pdfrwt>
<pdfrwt beam="2">  1       21 0.23521928E-01 0.73809002E+02</pdfrwt>
<totfact> 0.36848788E+06</totfact>
</mgrwt>
</event>
<event>
 5    1  0.1595802E+000  0.8290870E+02  0.7546771E-02  0.1320994E+00
         21   -1    0    0  501  502  0.00000000000E+00  0.00000000000E+00  0.52890545770E+03  0.52890545770E+03  0.00000000000E+00 0.  1.
         21   -1    0    0  502  503 -0.00000000000E+00 -0.00000000000E+00 -0.13949197003E+02  0.13949197003E+02  0.00000000000E+00 0. -1.
         24    1    1    2    0    0  0.29202833895E+02  0.44153970191E+02  0.29916843505E+03  0.31427909106E+03  0.80419002446E+02 0. -1.
          1    1    1    2  501    0  0.28587997680E+01 -0.36453271118E+02  0.15670444711E+03  0.16091394425E+03  0.00000000000E+00 0. -1.
         -2    1    1    2    0  503 -0.32061633663E+02 -0.77006990731E+01  0.59083378532E+02  0.67661619387E+02  0.00000000000E+00 0.  1.
<mgrwt>
<rscale>  2 0.82908696E+02</rscale>
<asrwt>0</asrwt>
<pdfrwt beam="1">  1       21 0.81370055E-01 0.82908696E+02</pdfrwt>
<pdfrwt beam="2">  1       21 0.21460307E-02 0.82908696E+02</pdfrwt>
<totfact> 0.14428134E+06</totfact>
</mgrwt>
</event>
<event>
 5    1  0.1595802E+000  0.8115775E+02  0.7546771E-02  0.1325798E+00
         21   -1    0    0  501  502  0.00000000000E+00  0.00000000000E+00  0.73166407424E+01  0.73166407424E+01  0.00000000000E+00 0. -1.
         21   -1    0    0  502  503 -0.00000000000E+00 -0.00000000000E+00 -0.11812783081E+04  0.11812783081E+04  0.00000000000E+00 0. -1.
         24    1    1    2    0    0  0.57637034975E+02  0.44074444841E+01 -0.58511639400E+03  0.59343901443E+03  0.80419002446E+02 0. -1.
          1    1    1    2  501    0 -0.39550237973E+02  0.92442450617E+01 -0.14088444043E+03  0.14662231394E+03  0.00000000000E+00 0. -1.
         -2    1    1    2    0  503 -0.18086797002E+02 -0.13651689546E+02 -0.44796083288E+03  0.44853362043E+03  0.00000000000E+00 0.  1.
<mgrwt>
<rscale>  2 0.81157752E+02</rscale>
<asrwt>0</asrwt>
<pdfrwt beam="1">  1       21 0.11256374E-02 0.81157752E+02</pdfrwt>
<pdfrwt beam="2">  1       21 0.18173507E+00 0.81157752E+02</pdfrwt>
<totfact> 0.57172802E+05</totfact>
</mgrwt>
</event>
<event>
 5    1  0.1595802E+000  0.1153475E+03  0.7546771E-02  0.1250976E+00
         21   -1    0    0  501  502  0.00000000000E+00  0.00000000000E+00  0.12308211900E+04  0.12308211900E+04  0.00000000000E+00 0. -1.
         21   -1    0    0  502  503 -0.00000000000E+00 -0.00000000000E+00 -0.17811032512E+02  0.17811032512E+02  0.00000000000E+00 0.  1.
         24    1    1    2    0    0  0.57924352447E+02  0.51402963042E+02  0.26548664382E+03  0.28800671731E+03  0.80419002446E+02 0.  1.
          1    1    1    2  501    0 -0.15811304861E+02  0.26289254030E+02  0.63790539244E+03  0.63864263242E+03  0.00000000000E+00 0. -1.
         -2    1    1    2    0  503 -0.42113047585E+02 -0.77692217072E+02  0.30961812118E+03  0.32198287274E+03  0.00000000000E+00 0.  1.
<mgrwt>
<rscale>  2 0.11534753E+03</rscale>
<asrwt>0</asrwt>
<pdfrwt beam="1">  1       21 0.18935704E+00 0.11534753E+03</pdfrwt>
<pdfrwt beam="2">  1       21 0.27401598E-02 0.11534753E+03</pdfrwt>
<totfact> 0.12106082E+05</totfact>
</mgrwt>
</event>
<event>
 5    1  0.1595802E+000  0.7226754E+02  0.7546771E-02  0.1352548E+00
         21   -1    0    0  503  502  0.00000000000E+00  0.00000000000E+00  0.39759007967E+03  0.39759007967E+03  0.00000000000E+00 0.  1.
         21   -1    0    0  501  503 -0.00000000000E+00 -0.00000000000E+00 -0.14339290427E+02  0.14339290427E+02  0.00000000000E+00 0.  1.
         24    1    1    2    0    0  0.20178027871E+02 -0.81683074343E+00  0.27641623829E+03  0.28858442918E+03  0.80419002446E+02 0.  1.
          1    1    1    2  501    0  0.16509646161E+02 -0.14393995152E+02  0.36217961844E+02  0.42326070842E+02  0.00000000000E+00 0. -1.
         -2    1    1    2    0  502 -0.36687674032E+02  0.15210825896E+02  0.70616589107E+02  0.81018870070E+02  0.00000000000E+00 0.  1.
<mgrwt>
<rscale>  2 0.72267542E+02</rscale>
<asrwt>0</asrwt>
<pdfrwt beam="1">  1       21 0.61167696E-01 0.72267542E+02</pdfrwt>
<pdfrwt beam="2">  1       21 0.22060450E-02 0.72267542E+02</pdfrwt>
<totfact> 0.25376416E+06</totfact>
</mgrwt>
</event>
<event>
 5    1  0.1595802E+000  0.8111434E+02  0.7546771E-02  0.1325919E+00
         21   -1    0    0  501  502  0.00000000000E+00  0.00000000000E+00  0.17128490919E+03  0.17128490919E+03  0.00000000000E+00 0. -1.
         21   -1    0    0  502  503 -0.00000000000E+00 -0.00000000000E+00 -0.16695258380E+03  0.16695258380E+03  0.00000000000E+00 0.  1.
         24    1    1    2    0    0  0.74757274590E+01 -0.53272376347E+02 -0.35580089356E+02  0.10308729939E+03  0.80419002446E+02 0.  0.
          1    1    1    2  501    0  0.15238588916E+02  0.23916988202E+02  0.13244697341E+03  0.13544902245E+03  0.00000000000E+00 0. -1.
         -2    1    1    2    0  503 -0.22714316375E+02  0.29355388144E+02 -0.92534558661E+02  0.99701171147E+02  0.00000000000E+00 0.  1.
<mgrwt>
<rscale>  2 0.81114341E+02</rscale>
<asrwt>0</asrwt>
<pdfrwt beam="1">  1       21 0.26351525E-01 0.81114341E+02</pdfrwt>
<pdfrwt beam="2">  1       21 0.25685013E-01 0.81114341E+02</pdfrwt>
<totfact> 0.20314347E+05</totfact>
</mgrwt>
</event>
<event>
 5    1  0.1595802E+000  0.6934249E+02  0.7546771E-02  0.1362343E+00
         21   -1    0    0  501  502  0.00000000000E+00  0.00000000000E+00  0.23931608068E+03  0.23931608068E+03  0.00000000000E+00 0.  1.
         21   -1    0    0  502  503 -0.00000000000E+00 -0.00000000000E+00 -0.23418601763E+02  0.23418601763E+02  0.00000000000E+00 0. -1.
         24    1    1    2    0    0  0.22132551351E+02  0.38860975891E+01  0.86941375325E+02  0.12054447429E+03  0.80419002446E+02 0. -1.
          1    1    1    2  501    0  0.32973551004E+01  0.20015980192E+02  0.76805848090E+02  0.79439601676E+02  0.00000000000E+00 0. -1.
         -2    1    1    2    0  503 -0.25429906452E+02 -0.23902077781E+02  0.52150255499E+02  0.62750606475E+02  0.00000000000E+00 0.  1.
<mgrwt>
<rscale>  2 0.69342485E+02</rscale>
<asrwt>0</asrwt>
<pdfrwt beam="1">  1       21 0.36817857E-01 0.69342485E+02</pdfrwt>
<pdfrwt beam="2">  1       21 0.36028620E-02 0.69342485E+02</pdfrwt>
<totfact> 0.31919532E+06</totfact>
</mgrwt>
</event>
<event>
 5    1  0.1595802E+000  0.8653645E+02  0.7546771E-02  0.1311463E+00
         21   -1    0    0  501  502  0.00000000000E+00  0.00000000000E+00  0.22772503572E+03  0.22772503572E+03  0.00000000000E+00 0. -1.
         21   -1    0    0  502  503 -0.00000000000E+00 -0.00000000000E+00 -0.45640083522E+02  0.45640083522E+02  0.00000000000E+00 0.  1.
         24    1    1    2    0    0 -0.47274051050E+02  0.16400863433E+02  0.76990697351E+02  0.12205985276E+03  0.80419002446E+02 0. -1.
          1    1    1    2  501    0  0.41891471118E+01  0.20932622845E+02  0.89768014016E+02  0.92271447334E+02  0.00000000000E+00 0. -1.
         -2    1    1    2    0  503  0.43084903938E+02 -0.37333486278E+02  0.15326240836E+02  0.59033819148E+02  0.00000000000E+00 0.  1.
<mgrwt>
<rscale>  2 0.86536446E+02</rscale>
<asrwt>0</asrwt>
<pdfrwt beam="1">  1       21 0.35034620E-01 0.86536446E+02</pdfrwt>
<pdfrwt beam="2">  1       21 0.70215514E-02 0.86536446E+02</pdfrwt>
<totfact> 0.11732443E+06</totfact>
</mgrwt>
</event>
<event>
 5    1  0.1595802E+000  0.1352646E+03  0.7546771E-02  0.1219847E+00
         21   -1    0    0  503  502  0.00000000000E+00  0.00000000000E+00  0.10342649152E+03  0.10342649152E+03  0.00000000000E+00 0. -1.
         21   -1    0    0  501  503 -0.00000000000E+00 -0.00000000000E+00 -0.20419560699E+03  0.20419560699E+03  0.00000000000E+00 0.  1.
         24    1    1    2    0    0 -0.68897772776E+02  0.10224316764E+03 -0.37311323288E+02  0.15185492821E+03  0.80419002446E+02 0. -1.
          1    1    1    2  501    0  0.12474500437E+02 -0.16445032563E+02 -0.47572386937E+02  0.51857345246E+02  0.00000000000E+00 0. -1.
         -2    1    1    2    0  502  0.56423272339E+02 -0.85798135074E+02 -0.15885405251E+02  0.10390982506E+03  0.00000000000E+00 0.  1.
<mgrwt>
<rscale>  2 0.13526462E+03</rscale>
<asrwt>0</asrwt>
<pdfrwt beam="1">  1       21 0.15911768E-01 0.13526462E+03</pdfrwt>
<pdfrwt beam="2">  1       21 0.31414708E-01 0.13526462E+03</pdfrwt>
<totfact> 0.34676226E+05</totfact>
</mgrwt>
</event>
<event>
 5    1  0.1595802E+000  0.9026779E+02  0.7546771E-02  0.1302204E+00
         21   -1    0    0  503  502  0.00000000000E+00  0.00000000000E+00  0.17777482550E+03  0.17777482550E+03  0.00000000000E+00 0.  1.
         21   -1    0    0  501  503 -0.00000000000E+00 -0.00000000000E+00 -0.15642191158E+03  0.15642191158E+03  0.00000000000E+00 0. -1.
         24    1    1    2    0    0 -0.23913819113E+02  0.38684212497E+02  0.11322425764E+03  0.14613448434E+03  0.80419002446E+02 0.  0.
          1    1    1    2  501    0  0.30525124949E+02 -0.59192551218E+02 -0.12897509859E+03  0.14515549397E+03  0.00000000000E+00 0. -1.
         -2    1    1    2    0  502 -0.66113058360E+01  0.20508338721E+02  0.37103754878E+02  0.42906758769E+02  0.00000000000E+00 0.  1.
<mgrwt>
<rscale>  2 0.90267790E+02</rscale>
<asrwt>0</asrwt>
<pdfrwt beam="1">  1       21 0.27349973E-01 0.90267790E+02</pdfrwt>
<pdfrwt beam="2">  1       21 0.24064909E-01 0.90267790E+02</pdfrwt>
<totfact> 0.21336628E+05</totfact>
</mgrwt>
</event>
<event>
 5    1  0.1595802E+000  0.1110518E+03  0.7546771E-02  0.1258634E+00
         21   -1    0    0  501  502  0.00000000000E+00  0.00000000000E+00  0.67173998785E+02  0.67173998785E+02  0.00000000000E+00 0. -1.
         21   -1    0    0  502  503 -0.00000000000E+00 -0.00000000000E+00 -0.82226504679E+03  0.82226504679E+03  0.00000000000E+00 0.  1.
         24    1    1    2    0    0 -0.76163322162E+02  0.22123592528E+02 -0.82516178654E+02  0.13988009395E+03  0.80419002446E+02 0.  1.
          1    1    1    2  501    0 -0.13197133049E+01  0.20620953057E+02  0.32739595397E+02  0.38714938396E+02  0.00000000000E+00 0. -1.
         -2    1    1    2    0  503  0.77483035467E+02 -0.42744545585E+02 -0.70531446475E+03  0.71084401323E+03  0.00000000000E+00 0.  1.
<mgrwt>
<rscale>  2 0.11105184E+03</rscale>
<asrwt>0</asrwt>
<pdfrwt beam="1">  1       21 0.10334461E-01 0.11105184E+03</pdfrwt>
<pdfrwt beam="2">  1       21 0.12650232E+00 0.11105184E+03</pdfrwt>
<totfact> 0.37343624E+04</totfact>
</mgrwt>
</event>
<event>
 5    1  0.1595802E+000  0.6701510E+02  0.7546771E-02  0.1370548E+00
         21   -1    0    0  501  502  0.00000000000E+00  0.00000000000E+00  0.82051006069E+02  0.82051006069E+02  0.00000000000E+00 0. -1.
         21   -1    0    0  502  503 -0.00000000000E+00 -0.00000000000E+00 -0.57685471613E+02  0.57685471613E+02  0.00000000000E+00 0. -1.
         24    1    1    2    0    0 -0.19522210259E+02  0.12946581825E+02  0.16799726793E+02  0.85429371115E+02  0.80419002446E+02 0. -1.
          1    1    1    2  501    0  0.25060886486E+02  0.97617150358E+01  0.13640969212E+02  0.30156510954E+02  0.00000000000E+00 0. -1.
         -2    1    1    2    0  503 -0.55386762266E+01 -0.22708296860E+02 -0.60751615496E+01  0.24150595614E+02  0.00000000000E+00 0.  1.
<mgrwt>
<rscale>  2 0.67015104E+02</rscale>
<asrwt>0</asrwt>
<pdfrwt beam="1">  1       21 0.12623232E-01 0.67015104E+02</pdfrwt>
<pdfrwt beam="2">  1       21 0.88746879E-02 0.67015104E+02</pdfrwt>
<totfact> 0.50609550E+06</totfact>
</mgrwt>
</event>
<event>
 5    1  0.1595802E+000  0.8995673E+02  0.7546771E-02  0.1302957E+00
         21   -1    0    0  501  502  0.00000000000E+00  0.00000000000E+00  0.38731715619E+03  0.38731715619E+03  0.00000000000E+00 0. -1.
         21   -1    0    0  502  503 -0.00000000000E+00 -0.00000000000E+00 -0.25561215098E+02  0.25561215098E+02  0.00000000000E+00 0.  1.
         24    1    1    2    0    0 -0.24554126778E+02  0.14638643049E+02  0.17915009532E+03  0.19844184947E+03  0.80419002446E+02 0. -1.
          1    1    1    2  501    0 -0.32052663583E+02  0.88901606873E+01  0.12829411506E+03  0.13253598817E+03  0.00000000000E+00 0. -1.
         -2    1    1    2    0  503  0.56606790361E+02 -0.23528803736E+02  0.54311730707E+02  0.81900533653E+02  0.00000000000E+00 0.  1.
<mgrwt>
<rscale>  2 0.89956730E+02</rscale>
<asrwt>0</asrwt>
<pdfrwt beam="1">  1       21 0.59587251E-01 0.89956730E+02</pdfrwt>
<pdfrwt beam="2">  1       21 0.39324949E-02 0.89956730E+02</pdfrwt>
<totfact> 0.10584427E+06</totfact>
</mgrwt>
</event>
<event>
 5    1  0.1595802E+000  0.7842528E+02  0.7546771E-02  0.1333581E+00
         21   -1    0    0  503  502  0.00000000000E+00  0.00000000000E+00  0.56140088566E+02  0.56140088566E+02  0.00000000000E+00 0. -1.
         21   -1    0    0  501  503 -0.00000000000E+00 -0.00000000000E+00 -0.12629054848E+03  0.12629054848E+03  0.00000000000E+00 0.  1.
         24    1    1    2    0    0  0.46712215772E+02 -0.34016915208E+02 -0.56759288983E+02  0.11414032794E+03  0.80419002446E+02 0.  0.
          1    1    1    2  501    0 -0.29709637926E+02  0.20384479600E+02 -0.24752609787E+02  0.43713628145E+02  0.00000000000E+00 0. -1.
         -2    1    1    2    0  502 -0.17002577846E+02  0.13632435608E+02  0.11361438857E+02  0.24576680958E+02  0.00000000000E+00 0.  1.
<mgrwt>
<rscale>  2 0.78425283E+02</rscale>
<asrwt>0</asrwt>
<pdfrwt beam="1">  1       21 0.86369367E-02 0.78425283E+02</pdfrwt>
<pdfrwt beam="2">  1       21 0.19429315E-01 0.78425283E+02</pdfrwt>
<totfact> 0.24851291E+06</totfact>
</mgrwt>
</event>
<event>
 5    1  0.1595802E+000  0.9361715E+02  0.7546771E-02  0.1294321E+00
         21   -1    0    0  503  502  0.00000000000E+00  0.00000000000E+00  0.76696015242E+02  0.76696015242E+02  0.00000000000E+00 0.  1.
         21   -1    0    0  501  503 -0.00000000000E+00 -0.00000000000E+00 -0.12528790727E+04  0.12528790727E+04  0.00000000000E+00 0.  1.
         24    1    1    2    0    0  0.21371616676E+02  0.61885621384E+02 -0.86633859550E+03  0.87252298202E+03  0.80419002446E+02 0.  1.
          1    1    1    2  501    0  0.17339824722E+02 -0.20899213723E+02 -0.37208454570E+03  0.37307419611E+03  0.00000000000E+00 0. -1.
         -2    1    1    2    0  502 -0.38711441398E+02 -0.40986407661E+02  0.62240083759E+02  0.83977909800E+02  0.00000000000E+00 0.  1.
<mgrwt>
<rscale>  2 0.93617153E+02</rscale>
<asrwt>0</asrwt>
<pdfrwt beam="1">  1       21 0.11799387E-01 0.93617153E+02</pdfrwt>
<pdfrwt beam="2">  1       21 0.19275063E+00 0.93617153E+02</pdfrwt>
<totfact> 0.10068815E+04</totfact>
</mgrwt>
</event>
<event>
 5    1  0.1595802E+000  0.1118604E+03  0.7546771E-02  0.1257163E+00
         21   -1    0    0  501  502  0.00000000000E+00  0.00000000000E+00  0.33369670900E+03  0.33369670900E+03  0.00000000000E+00 0.  1.
         21   -1    0    0  502  503 -0.00000000000E+00 -0.00000000000E+00 -0.54275592258E+02  0.54275592258E+02  0.00000000000E+00 0.  1.
         24    1    1    2    0    0  0.96686112421E+01 -0.87388714575E+02  0.23562492771E+03  0.26403899710E+03  0.80419002446E+02 0.  1.
          1    1    1    2  501    0  0.23708681613E+02  0.41970608199E+02  0.47203256421E+02  0.67466887828E+02  0.00000000000E+00 0. -1.
         -2    1    1    2    0  503 -0.33377292855E+02  0.45418106376E+02 -0.34070673845E+01  0.56466416331E+02  0.00000000000E+00 0.  1.
<mgrwt>
<rscale>  2 0.11186041E+03</rscale>
<asrwt>0</asrwt>
<pdfrwt beam="1">  1       21 0.51337954E-01 0.11186041E+03</pdfrwt>
<pdfrwt beam="2">  1       21 0.83500913E-02 0.11186041E+03</pdfrwt>
<totfact> 0.40687208E+05</totfact>
</mgrwt>
</event>
<event>
 5    1  0.1595802E+000  0.1017536E+03  0.7546771E-02  0.1276651E+00
         21   -1    0    0  501  502  0.00000000000E+00  0.00000000000E+00  0.51030023175E+03  0.51030023175E+03  0.00000000000E+00 0.  1.
         21   -1    0    0  502  503 -0.00000000000E+00 -0.00000000000E+00 -0.36610340013E+02  0.36610340013E+02  0.00000000000E+00 0.  1.
         24    1    1    2    0    0 -0.78954172099E+02 -0.33740499657E+02  0.18838369412E+03  0.22209866000E+03  0.80419002446E+02 0.  1.
          1    1    1    2  501    0  0.54521845393E+02  0.22840620792E+02  0.29143154447E+03  0.29736622319E+03  0.00000000000E+00 0. -1.
         -2    1    1    2    0  503  0.24432326706E+02  0.10899878864E+02 -0.61253468468E+01  0.27445688578E+02  0.00000000000E+00 0.  1.
<mgrwt>
<rscale>  2 0.10175361E+03</rscale>
<asrwt>0</asrwt>
<pdfrwt beam="1">  1       21 0.78507723E-01 0.10175361E+03</pdfrwt>
<pdfrwt beam="2">  1       21 0.56323604E-02 0.10175361E+03</pdfrwt>
<totfact> 0.32164420E+05</totfact>
</mgrwt>
</event>
<event>
 5    1  0.1595802E+000  0.2045250E+03  0.7546771E-02  0.1145976E+00
         21   -1    0    0  503  502  0.00000000000E+00  0.00000000000E+00  0.18862280812E+03  0.18862280812E+03  0.00000000000E+00 0.  1.
         21   -1    0    0  501  503 -0.00000000000E+00 -0.00000000000E+00 -0.33975487246E+03  0.33975487246E+03  0.00000000000E+00 0.  1.
         24    1    1    2    0    0  0.31148536150E+02  0.15610865244E+03  0.35325638739E+02  0.18181105406E+03  0.80419002446E+02 0.  1.
          1    1    1    2  501    0 -0.76370789419E+02 -0.91170576781E+01 -0.17641043739E+03  0.19244807257E+03  0.00000000000E+00 0. -1.
         -2    1    1    2    0  502  0.45222253269E+02 -0.14699159476E+03 -0.10047265696E+02  0.15411855394E+03  0.00000000000E+00 0.  1.
<mgrwt>
<rscale>  2 0.20452497E+03</rscale>
<asrwt>0</asrwt>
<pdfrwt beam="1">  1       21 0.29018894E-01 0.20452497E+03</pdfrwt>
<pdfrwt beam="2">  1       21 0.52269980E-01 0.20452497E+03</pdfrwt>
<totfact> 0.39233457E+04</totfact>
</mgrwt>
</event>
<event>
 5    1  0.1595802E+000  0.7686999E+02  0.7546771E-02  0.1338176E+00
         21   -1    0    0  501  502  0.00000000000E+00  0.00000000000E+00  0.12260871359E+03  0.12260871359E+03  0.00000000000E+00 0.  1.
         21   -1    0    0  502  503 -0.00000000000E+00 -0.00000000000E+00 -0.24003467204E+03  0.24003467204E+03  0.00000000000E+00 0.  1.
         24    1    1    2    0    0 -0.29416806792E+02  0.47250445738E+02  0.41378173073E+02  0.10619473765E+03  0.80419002446E+02 0.  1.
          1    1    1    2  501    0  0.13433924140E+02 -0.26842979508E+02  0.43301172364E+02  0.52687829665E+02  0.00000000000E+00 0. -1.
         -2    1    1    2    0  503  0.15982882652E+02 -0.20407466230E+02 -0.20210530390E+03  0.20376081831E+03  0.00000000000E+00 0.  1.
<mgrwt>
<rscale>  2 0.76869987E+02</rscale>
<asrwt>0</asrwt>
<pdfrwt beam="1">  1       21 0.18862879E-01 0.76869987E+02</pdfrwt>
<pdfrwt beam="2">  1       21 0.36928410E-01 0.76869987E+02</pdfrwt>
<totfact> 0.18840814E+05</totfact>
</mgrwt>
</event>
<event>
 5    1  0.1595802E+000  0.9984720E+02  0.7546771E-02  0.1280618E+00
         21   -1    0    0  501  502  0.00000000000E+00  0.00000000000E+00  0.36474811055E+03  0.36474811055E+03  0.00000000000E+00 0.  1.
         21   -1    0    0  502  503 -0.00000000000E+00 -0.00000000000E+00 -0.33229348649E+02  0.33229348649E+02  0.00000000000E+00 0.  1.
         24    1    1    2    0    0  0.73921540903E+02  0.34036563333E+02  0.26338502129E+03  0.28716156993E+03  0.80419002446E+02 0.  1.
          1    1    1    2  501    0 -0.35208746489E+02 -0.24062734649E+01  0.40412603053E+02  0.53652814156E+02  0.00000000000E+00 0. -1.
         -2    1    1    2    0  503 -0.38712794414E+02 -0.31630289868E+02  0.27721137559E+02  0.57163075110E+02  0.00000000000E+00 0.  1.
<mgrwt>
<rscale>  2 0.99847199E+02</rscale>
<asrwt>0</asrwt>
<pdfrwt beam="1">  1       21 0.56115091E-01 0.99847199E+02</pdfrwt>
<pdfrwt beam="2">  1       21 0.51122077E-02 0.99847199E+02</pdfrwt>
<totfact> 0.77770102E+05</totfact>
</mgrwt>
</event>
<event>
 5    1  0.1595802E+000  0.9334087E+02  0.7546771E-02  0.1294957E+00
         21   -1    0    0  503  502  0.00000000000E+00  0.00000000000E+00  0.67363909820E+02  0.67363909820E+02  0.00000000000E+00 0. -1.
         21   -1    0    0  501  503 -0.00000000000E+00 -0.00000000000E+00 -0.17976712536E+03  0.17976712536E+03  0.00000000000E+00 0. -1.
         24    1    1    2    0    0 -0.31343821734E+02  0.67285195835E+02 -0.12338900957E+02  0.11013263445E+03  0.80419002446E+02 0. -1.
          1    1    1    2  501    0  0.15346325694E+02 -0.54918349579E+02 -0.10182234542E+03  0.11670186314E+03  0.00000000000E+00 0. -1.
         -2    1    1    2    0  502  0.15997496040E+02 -0.12366846256E+02  0.17580308373E+01  0.20296537594E+02  0.00000000000E+00 0.  1.
<mgrwt>
<rscale>  2 0.93340867E+02</rscale>
<asrwt>0</asrwt>
<pdfrwt beam="1">  1       21 0.10363679E-01 0.93340867E+02</pdfrwt>
<pdfrwt beam="2">  1       21 0.27656480E-01 0.93340867E+02</pdfrwt>
<totfact> 0.94853274E+05</totfact>
</mgrwt>
</event>
<event>
 5    1  0.1595802E+000  0.7037358E+02  0.7546771E-02  0.1358827E+00
         21   -1    0    0  501  502  0.00000000000E+00  0.00000000000E+00  0.26223670355E+02  0.26223670355E+02  0.00000000000E+00 0.  1.
         21   -1    0    0  502  503 -0.00000000000E+00 -0.00000000000E+00 -0.22668856769E+03  0.22668856769E+03  0.00000000000E+00 0. -1.
         24    1    1    2    0    0 -0.16775701197E+02  0.30291452934E+02 -0.81084319603E+02  0.11933515455E+03  0.80419002446E+02 0.  1.
          1    1    1    2  501    0 -0.51958923137E+01 -0.30777781964E+02 -0.37460046148E+02  0.48759862766E+02  0.00000000000E+00 0. -1.
         -2    1    1    2    0  503  0.21971593510E+02  0.48632903013E+00 -0.81920531586E+02  0.84817220732E+02  0.00000000000E+00 0.  1.
<mgrwt>
<rscale>  2 0.70373584E+02</rscale>
<asrwt>0</asrwt>
<pdfrwt beam="1">  1       21 0.40344109E-02 0.70373584E+02</pdfrwt>
<pdfrwt beam="2">  1       21 0.34875164E-01 0.70373584E+02</pdfrwt>
<totfact> 0.29502161E+06</totfact>
</mgrwt>
</event>
<event>
 5    1  0.1595802E+000  0.1022327E+03  0.7546771E-02  0.1275670E+00
         21   -1    0    0  501  502  0.00000000000E+00  0.00000000000E+00  0.11784248933E+03  0.11784248933E+03  0.00000000000E+00 0. -1.
         21   -1    0    0  502  503 -0.00000000000E+00 -0.00000000000E+00 -0.99905387055E+02  0.99905387055E+02  0.00000000000E+00 0.  1.
         24    1    1    2    0    0  0.12703300811E+02  0.28534878241E+02  0.28310378809E+02  0.90798164246E+02  0.80419002446E+02 0. -1.
          1    1    1    2  501    0  0.18331818076E+02 -0.66601828214E+02  0.16418045164E+02  0.71002896296E+02  0.00000000000E+00 0. -1.
         -2    1    1    2    0  503 -0.31035118888E+02  0.38066949973E+02 -0.26791321698E+02  0.55946815843E+02  0.00000000000E+00 0.  1.
<mgrwt>
<rscale>  2 0.10223268E+03</rscale>
<asrwt>0</asrwt>
<pdfrwt beam="1">  1       21 0.18129614E-01 0.10223268E+03</pdfrwt>
<pdfrwt beam="2">  1       21 0.15370060E-01 0.10223268E+03</pdfrwt>
<totfact> 0.10369497E+06</totfact>
</mgrwt>
</event>
<event>
 5    1  0.1595802E+000  0.7059290E+02  0.7546771E-02  0.1358088E+00
         21   -1    0    0  503  502  0.00000000000E+00  0.00000000000E+00  0.21307377814E+03  0.21307377814E+03  0.00000000000E+00 0. -1.
         21   -1    0    0  501  503 -0.00000000000E+00 -0.00000000000E+00 -0.58655478527E+02  0.58655478527E+02  0.00000000000E+00 0.  1.
         24    1    1    2    0    0 -0.12174714821E+01  0.41840616536E+02 -0.93916540943E+01  0.91145699569E+02  0.80419002446E+02 0.  0.
          1    1    1    2  501    0  0.14620188192E+02 -0.18148698498E+02  0.11737084176E+02  0.26093759884E+02  0.00000000000E+00 0. -1.
         -2    1    1    2    0  502 -0.13402716710E+02 -0.23691918038E+02  0.15207286953E+03  0.15448979721E+03  0.00000000000E+00 0.  1.
<mgrwt>
<rscale>  2 0.70592903E+02</rscale>
<asrwt>0</asrwt>
<pdfrwt beam="1">  1       21 0.32780581E-01 0.70592903E+02</pdfrwt>
<pdfrwt beam="2">  1       21 0.90239199E-02 0.70592903E+02</pdfrwt>
<totfact> 0.86633200E+05</totfact>
</mgrwt>
</event>
<event>
 5    1  0.1595802E+000  0.9811365E+02  0.7546771E-02  0.1284313E+00
         21   -1    0    0  503  502  0.00000000000E+00  0.00000000000E+00  0.61909373967E+02  0.61909373967E+02  0.00000000000E+00 0.  1.
         21   -1    0    0  501  503 -0.00000000000E+00 -0.00000000000E+00 -0.21110816296E+03  0.21110816296E+03  0.00000000000E+00 0. -1.
         24    1    1    2    0    0  0.38772580152E+02  0.13298126864E+02 -0.64522765093E+02  0.11095294642E+03  0.80419002446E+02 0.  1.
          1    1    1    2  501    0 -0.36582368437E+02 -0.53988506168E+02 -0.99274710653E+02  0.11877919285E+03  0.00000000000E+00 0. -1.
         -2    1    1    2    0  502 -0.21902117149E+01  0.40690379304E+02  0.14598686754E+02  0.43285397656E+02  0.00000000000E+00 0.  1.
<mgrwt>
<rscale>  2 0.98113654E+02</rscale>
<asrwt>0</asrwt>
<pdfrwt beam="1">  1       21 0.95245191E-02 0.98113654E+02</pdfrwt>
<pdfrwt beam="2">  1       21 0.32478179E-01 0.98113654E+02</pdfrwt>
<totfact> 0.80802037E+05</totfact>
</mgrwt>
</event>
<event>
 5    1  0.1595802E+000  0.8612106E+02  0.7546771E-02  0.1312527E+00
         21   -1    0    0  503  502  0.00000000000E+00  0.00000000000E+00  0.16637028563E+03  0.16637028563E+03  0.00000000000E+00 0. -1.
         21   -1    0    0  501  503 -0.00000000000E+00 -0.00000000000E+00 -0.84750408390E+02  0.84750408390E+02  0.00000000000E+00 0. -1.
         24    1    1    2    0    0 -0.67052838811E+02  0.58483092754E+01  0.65996525204E+02  0.12390739771E+03  0.80419002446E+02 0. -1.
          1    1    1    2  501    0  0.24601119816E+02 -0.35869426808E+01 -0.46035414075E+02  0.52319600562E+02  0.00000000000E+00 0. -1.
         -2    1    1    2    0  502  0.42451718995E+02 -0.22613665946E+01  0.61658766111E+02  0.74893695748E+02  0.00000000000E+00 0.  1.
<mgrwt>
<rscale>  2 0.86121061E+02</rscale>
<asrwt>0</asrwt>
<pdfrwt beam="1">  1       21 0.25595429E-01 0.86121061E+02</pdfrwt>
<pdfrwt beam="2">  1       21 0.13038524E-01 0.86121061E+02</pdfrwt>
<totfact> 0.73337912E+05</totfact>
</mgrwt>
</event>
<event>
 5    1  0.1595802E+000  0.1541481E+03  0.7546771E-02  0.1195467E+00
         21   -1    0    0  501  502  0.00000000000E+00  0.00000000000E+00  0.31021653368E+02  0.31021653368E+02  0.00000000000E+00 0. -1.
         21   -1    0    0  502  503 -0.00000000000E+00 -0.00000000000E+00 -0.10249736244E+04  0.10249736244E+04  0.00000000000E+00 0. -1.
         24    1    1    2    0    0 -0.63160546755E+02  0.10124798326E+03 -0.67885966324E+03  0.69394385011E+03  0.80419002446E+02 0. -1.
          1    1    1    2  501    0  0.95843806179E+02 -0.83975371697E+02 -0.17079059892E+03  0.21308995029E+03  0.00000000000E+00 0. -1.
         -2    1    1    2    0  503 -0.32683259424E+02 -0.17272611560E+02 -0.14430170892E+03  0.14896147742E+03  0.00000000000E+00 0.  1.
<mgrwt>
<rscale>  2 0.15414809E+03</rscale>
<asrwt>0</asrwt>
<pdfrwt beam="1">  1       21 0.47725612E-02 0.15414809E+03</pdfrwt>
<pdfrwt beam="2">  1       21 0.15768828E+00 0.15414809E+03</pdfrwt>
<totfact> 0.77786591E+04</totfact>
</mgrwt>
</event>
<event>
 5    1  0.1595802E+000  0.6973729E+02  0.7546771E-02  0.1360989E+00
         21   -1    0    0  501  502  0.00000000000E+00  0.00000000000E+00  0.14366102887E+03  0.14366102887E+03  0.00000000000E+00 0. -1.
         21   -1    0    0  502  503 -0.00000000000E+00 -0.00000000000E+00 -0.78091956817E+02  0.78091956817E+02  0.00000000000E+00 0. -1.
         24    1    1    2    0    0 -0.27459825549E+02 -0.18281548361E+02  0.50283618292E+02  0.10041869972E+03  0.80419002446E+02 0. -1.
          1    1    1    2  501    0  0.34605580717E+01  0.26847941520E+02  0.62261573067E+02  0.67891758755E+02  0.00000000000E+00 0. -1.
         -2    1    1    2    0  503  0.23999267477E+02 -0.85663931597E+01 -0.46976119301E+02  0.53442527221E+02  0.00000000000E+00 0.  1.
<mgrwt>
<rscale>  2 0.69737288E+02</rscale>
<asrwt>0</asrwt>
<pdfrwt beam="1">  1       21 0.22101697E-01 0.69737288E+02</pdfrwt>
<pdfrwt beam="2">  1       21 0.12014147E-01 0.69737288E+02</pdfrwt>
<totfact> 0.11059162E+06</totfact>
</mgrwt>
</event>
<event>
 5    1  0.1595802E+000  0.7178616E+02  0.7546771E-02  0.1354122E+00
         21   -1    0    0  501  502  0.00000000000E+00  0.00000000000E+00  0.69810119404E+03  0.69810119404E+03  0.00000000000E+00 0.  1.
         21   -1    0    0  502  503 -0.00000000000E+00 -0.00000000000E+00 -0.17481420750E+02  0.17481420750E+02  0.00000000000E+00 0.  1.
         24    1    1    2    0    0  0.22948723073E+01  0.19368169720E+02  0.48727647570E+03  0.49425294351E+03  0.80419002446E+02 0.  1.
          1    1    1    2  501    0  0.25905516744E+02  0.11754840616E+01  0.18315634711E+03  0.18498303989E+03  0.00000000000E+00 0. -1.
         -2    1    1    2    0  503 -0.28200389052E+02 -0.20543653781E+02  0.10186950474E+02  0.36346631389E+02  0.00000000000E+00 0.  1.
<mgrwt>
<rscale>  2 0.71786164E+02</rscale>
<asrwt>0</asrwt>
<pdfrwt beam="1">  1       21 0.10740016E+00 0.71786164E+02</pdfrwt>
<pdfrwt beam="2">  1       21 0.26894499E-02 0.71786164E+02</pdfrwt>
<totfact> 0.53440749E+05</totfact>
</mgrwt>
</event>
<event>
 5    1  0.1595802E+000  0.7045365E+02  0.7546771E-02  0.1358557E+00
         21   -1    0    0  501  502  0.00000000000E+00  0.00000000000E+00  0.13965380112E+03  0.13965380112E+03  0.00000000000E+00 0.  1.
         21   -1    0    0  502  503 -0.00000000000E+00 -0.00000000000E+00 -0.59243449679E+02  0.59243449679E+02  0.00000000000E+00 0.  1.
         24    1    1    2    0    0  0.22285743525E+02  0.24603563780E+02  0.46755693403E+02  0.98768924947E+02  0.80419002446E+02 0.  1.
          1    1    1    2  501    0 -0.32735006747E+02 -0.70619313229E+01  0.58842358969E+02  0.67704318546E+02  0.00000000000E+00 0. -1.
         -2    1    1    2    0  503  0.10449263222E+02 -0.17541632458E+02 -0.25187700935E+02  0.32424007302E+02  0.00000000000E+00 0.  1.
<mgrwt>
<rscale>  2 0.70453647E+02</rscale>
<asrwt>0</asrwt>
<pdfrwt beam="1">  1       21 0.21485200E-01 0.70453647E+02</pdfrwt>
<pdfrwt beam="2">  1       21 0.91143769E-02 0.70453647E+02</pdfrwt>
<totfact> 0.18767941E+06</totfact>
</mgrwt>
</event>
<event>
 5    1  0.1595802E+000  0.1320290E+03  0.7546771E-02  0.1224476E+00
         21   -1    0    0  501  502  0.00000000000E+00  0.00000000000E+00  0.17192230963E+03  0.17192230963E+03  0.00000000000E+00 0. -1.
         21   -1    0    0  502  503 -0.00000000000E+00 -0.00000000000E+00 -0.19941983759E+03  0.19941983759E+03  0.00000000000E+00 0.  1.
         24    1    1    2    0    0 -0.90938471469E+02  0.30413209440E+02  0.22751786123E+02  0.12719916913E+03  0.80419002446E+02 0.  1.
          1    1    1    2  501    0  0.27291506032E+02 -0.62084803007E+02  0.74384062010E+02  0.10065951394E+03  0.00000000000E+00 0. -1.
         -2    1    1    2    0  503  0.63646965437E+02  0.31671593566E+02 -0.12463337609E+03  0.14348346415E+03  0.00000000000E+00 0.  1.
<mgrwt>
<rscale>  2 0.13202901E+03</rscale>
<asrwt>0</asrwt>
<pdfrwt beam="1">  1       21 0.26449586E-01 0.13202901E+03</pdfrwt>
<pdfrwt beam="2">  1       21 0.30679975E-01 0.13202901E+03</pdfrwt>
<totfact> 0.14148629E+05</totfact>
</mgrwt>
</event>
<event>
 5    1  0.1595802E+000  0.7061251E+02  0.7546771E-02  0.1358022E+00
         21   -1    0    0  503  502  0.00000000000E+00  0.00000000000E+00  0.13603397866E+04  0.13603397866E+04  0.00000000000E+00 0.  1.
         21   -1    0    0  501  503 -0.00000000000E+00 -0.00000000000E+00 -0.59601339460E+01  0.59601339460E+01  0.00000000000E+00 0.  1.
         24    1    1    2    0    0 -0.15934818551E+02  0.18971787200E+02  0.36859888876E+03  0.37808227134E+03  0.80419002446E+02 0.  1.
          1    1    1    2  501    0  0.30632936359E+02  0.28506219729E+01  0.23879629111E+03  0.24076995552E+03  0.00000000000E+00 0. -1.
         -2    1    1    2    0  502 -0.14698117808E+02 -0.21822409173E+02  0.74698447281E+03  0.74744769370E+03  0.00000000000E+00 0.  1.
<mgrwt>
<rscale>  2 0.70612513E+02</rscale>
<asrwt>0</asrwt>
<pdfrwt beam="1">  1       21 0.20928280E+00 0.70612513E+02</pdfrwt>
<pdfrwt beam="2">  1       21 0.91694477E-03 0.70612513E+02</pdfrwt>
<totfact> 0.53429110E+05</totfact>
</mgrwt>
</event>
<event>
 5    1  0.1595802E+000  0.7463620E+02  0.7546771E-02  0.1345001E+00
         21   -1    0    0  503  502  0.00000000000E+00  0.00000000000E+00  0.66088805564E+02  0.66088805564E+02  0.00000000000E+00 0.  1.
         21   -1    0    0  501  503 -0.00000000000E+00 -0.00000000000E+00 -0.88280292996E+02  0.88280292996E+02  0.00000000000E+00 0. -1.
         24    1    1    2    0    0 -0.59473832437E+01  0.76717171629E+01 -0.15099228501E+02  0.82397993103E+02  0.80419002446E+02 0.  0.
          1    1    1    2  501    0  0.81883723754E+01  0.29711573936E+02 -0.14065199277E+02  0.33877085155E+02  0.00000000000E+00 0. -1.
         -2    1    1    2    0  502 -0.22409891317E+01 -0.37383291099E+02  0.69729403461E+01  0.38094020302E+02  0.00000000000E+00 0.  1.
<mgrwt>
<rscale>  2 0.74636198E+02</rscale>
<asrwt>0</asrwt>
<pdfrwt beam="1">  1       21 0.10167509E-01 0.74636198E+02</pdfrwt>
<pdfrwt beam="2">  1       21 0.13581583E-01 0.74636198E+02</pdfrwt>
<totfact> 0.35533272E+06</totfact>
</mgrwt>
</event>
<event>
 5    1  0.1595802E+000  0.6383146E+02  0.7546771E-02  0.1382422E+00
         21   -1    0    0  503  502  0.00000000000E+00  0.00000000000E+00  0.29981725939E+02  0.29981725939E+02  0.00000000000E+00 0. -1.
         21   -1    0    0  501  503 -0.00000000000E+00 -0.00000000000E+00 -0.26533736784E+03  0.26533736784E+03  0.00000000000E+00 0.  1.
         24    1    1    2    0    0 -0.55045191288E+00  0.11956400910E-01 -0.12739447815E+03  0.15065481127E+03  0.80419002446E+02 0.  1.
          1    1    1    2  501    0  0.22680175372E+02  0.74748147838E+01 -0.11715085144E+03  0.11955996489E+03  0.00000000000E+00 0. -1.
         -2    1    1    2    0  502 -0.22129723459E+02 -0.74867711847E+01  0.91896876957E+01  0.25104317619E+02  0.00000000000E+00 0.  1.
<mgrwt>
<rscale>  2 0.63831465E+02</rscale>
<asrwt>0</asrwt>
<pdfrwt beam="1">  1       21 0.46125732E-02 0.63831465E+02</pdfrwt>
<pdfrwt beam="2">  1       21 0.40821133E-01 0.63831465E+02</pdfrwt>
<totfact> 0.17351196E+06</totfact>
</mgrwt>
</event>
<event>
 5    1  0.1595802E+000  0.9483007E+02  0.7546771E-02  0.1291559E+00
         21   -1    0    0  501  502  0.00000000000E+00  0.00000000000E+00  0.23521623304E+03  0.23521623304E+03  0.00000000000E+00 0. -1.
         21   -1    0    0  502  503 -0.00000000000E+00 -0.00000000000E+00 -0.14440975327E+03  0.14440975327E+03  0.00000000000E+00 0. -1.
         24    1    1    2    0    0  0.21421297472E+02  0.74666616099E+02  0.16360518355E+03  0.19816116568E+03  0.80419002446E+02 0. -1.
          1    1    1    2  501    0 -0.15021085430E+02 -0.43101653600E+02  0.42125835537E+02  0.62112571757E+02  0.00000000000E+00 0. -1.
         -2    1    1    2    0  503 -0.64002120421E+01 -0.31564962499E+02 -0.11492453932E+03  0.11935224887E+03  0.00000000000E+00 0.  1.
<mgrwt>
<rscale>  2 0.94830068E+02</rscale>
<asrwt>0</asrwt>
<pdfrwt beam="1">  1       21 0.36187113E-01 0.94830068E+02</pdfrwt>
<pdfrwt beam="2">  1       21 0.22216885E-01 0.94830068E+02</pdfrwt>
<totfact> 0.14427765E+05</totfact>
</mgrwt>
</event>
<event>
 5    1  0.1595802E+000  0.8392240E+02  0.7546771E-02  0.1318275E+00
         21   -1    0    0  503  502  0.00000000000E+00  0.00000000000E+00  0.14618580063E+02  0.14618580063E+02  0.00000000000E+00 0.  1.
         21   -1    0    0  501  503 -0.00000000000E+00 -0.00000000000E+00 -0.10760981702E+04  0.10760981702E+04  0.00000000000E+00 0.  1.
         24    1    1    2    0    0 -0.52587499868E+02  0.29011200140E+02 -0.81522389412E+03  0.82137951543E+03  0.80419002446E+02 0.  1.
          1    1    1    2  501    0  0.23669264584E+02  0.35401300810E+01 -0.21353424931E+03  0.21487122245E+03  0.00000000000E+00 0. -1.
         -2    1    1    2    0  502  0.28918235284E+02 -0.32551330221E+02 -0.32721446726E+02  0.54466012402E+02  0.00000000000E+00 0.  1.
<mgrwt>
<rscale>  2 0.83922404E+02</rscale>
<asrwt>0</asrwt>
<pdfrwt beam="1">  1       21 0.22490114E-02 0.83922404E+02</pdfrwt>
<pdfrwt beam="2">  1       21 0.16555363E+00 0.83922404E+02</pdfrwt>
<totfact> 0.24468252E+05</totfact>
</mgrwt>
</event>
<event>
 5    1  0.1595802E+000  0.9675700E+02  0.7546771E-02  0.1287267E+00
         21   -1    0    0  501  502  0.00000000000E+00  0.00000000000E+00  0.24589221928E+03  0.24589221928E+03  0.00000000000E+00 0. -1.
         21   -1    0    0  502  503 -0.00000000000E+00 -0.00000000000E+00 -0.17422803227E+03  0.17422803227E+03  0.00000000000E+00 0.  1.
         24    1    1    2    0    0 -0.11004917898E+02  0.46803288709E+02  0.81357500803E+02  0.12408833524E+03  0.80419002446E+02 0. -1.
          1    1    1    2  501    0  0.29772386189E+02 -0.66348152727E+02  0.13257270049E+03  0.15120844310E+03  0.00000000000E+00 0. -1.
         -2    1    1    2    0  503 -0.18767468290E+02  0.19544864017E+02 -0.14226601428E+03  0.14482347321E+03  0.00000000000E+00 0.  1.
<mgrwt>
<rscale>  2 0.96757002E+02</rscale>
<asrwt>0</asrwt>
<pdfrwt beam="1">  1       21 0.37829572E-01 0.96757002E+02</pdfrwt>
<pdfrwt beam="2">  1       21 0.26804313E-01 0.96757002E+02</pdfrwt>
<totfact> 0.93017784E+04</totfact>
</mgrwt>
</event>
<event>
 5    1  0.1595802E+000  0.8823828E+02  0.7546771E-02  0.1307175E+00
         21   -1    0    0  501  502  0.00000000000E+00  0.00000000000E+00  0.16536557943E+04  0.16536557943E+04  0.00000000000E+00 0. -1.
         21   -1    0    0  502  503 -0.00000000000E+00 -0.00000000000E+00 -0.93165064876E+01  0.93165064876E+01  0.00000000000E+00 0. -1.
         24    1    1    2    0    0 -0.11268183214E+02 -0.53249287211E+02  0.42680376462E+03  0.43771123814E+03  0.80419002446E+02 0. -1.
          1    1    1    2  501    0  0.25519753925E+02  0.13564281906E+01  0.10257563258E+04  0.10260746257E+04  0.00000000000E+00 0. -1.
         -2    1    1    2    0  503 -0.14251570711E+02  0.51892859021E+02  0.19177919746E+03  0.19918643695E+03  0.00000000000E+00 0.  1.
<mgrwt>
<rscale>  2 0.88238281E+02</rscale>
<asrwt>0</asrwt>
<pdfrwt beam="1">  1       21 0.25440835E+00 0.88238281E+02</pdfrwt>
<pdfrwt beam="2">  1       21 0.14333100E-02 0.88238281E+02</pdfrwt>
<totfact> 0.14435839E+05</totfact>
</mgrwt>
</event>
<event>
 5    1  0.1595802E+000  0.1003861E+03  0.7546771E-02  0.1279486E+00
         21   -1    0    0  501  502  0.00000000000E+00  0.00000000000E+00  0.20568706884E+04  0.20568706884E+04  0.00000000000E+00 0. -1.
         21   -1    0    0  502  503 -0.00000000000E+00 -0.00000000000E+00 -0.19255025223E+02  0.19255025223E+02  0.00000000000E+00 0.  1.
         24    1    1    2    0    0 -0.98017396290E+01  0.30110131786E+01  0.21630962112E+03  0.23100261566E+03  0.80419002446E+02 0.  0.
          1    1    1    2  501    0 -0.41690082321E+02 -0.38834060279E+02  0.17467951096E+04  0.17477240349E+04  0.00000000000E+00 0. -1.
         -2    1    1    2    0  503  0.51491821950E+02  0.35823047100E+02  0.74510932453E+02  0.97399063067E+02  0.00000000000E+00 0.  1.
<mgrwt>
<rscale>  2 0.10038611E+03</rscale>
<asrwt>0</asrwt>
<pdfrwt beam="1">  1       21 0.31644147E+00 0.10038611E+03</pdfrwt>
<pdfrwt beam="2">  1       21 0.29623132E-02 0.10038611E+03</pdfrwt>
<totfact> 0.20100339E+04</totfact>
</mgrwt>
</event>
<event>
 5    1  0.1595802E+000  0.6972952E+02  0.7546771E-02  0.1361015E+00
         21   -1    0    0  501  502  0.00000000000E+00  0.00000000000E+00  0.77089520972E+03  0.77089520972E+03  0.00000000000E+00 0.  1.
         21   -1    0    0  502  503 -0.00000000000E+00 -0.00000000000E+00 -0.92776760430E+01  0.92776760430E+01  0.00000000000E+00 0.  1.
         24    1    1    2    0    0  0.16823325596E+00 -0.30080696034E+02  0.59096667333E+03  0.59717141720E+03  0.80419002446E+02 0.  0.
          1    1    1    2  501    0 -0.21970305388E+02  0.19448356537E+02  0.14402410518E+03  0.14698256959E+03  0.00000000000E+00 0. -1.
         -2    1    1    2    0  503  0.21802072132E+02  0.10632339497E+02  0.26626755160E+02  0.36018898967E+02  0.00000000000E+00 0.  1.
<mgrwt>
<rscale>  2 0.69729516E+02</rscale>
<asrwt>0</asrwt>
<pdfrwt beam="1">  1       21 0.11859921E+00 0.69729516E+02</pdfrwt>
<pdfrwt beam="2">  1       21 0.14273354E-02 0.69729516E+02</pdfrwt>
<totfact> 0.11582953E+06</totfact>
</mgrwt>
</event>
<event>
 5    1  0.1595802E+000  0.1294670E+03  0.7546771E-02  0.1228249E+00
         21   -1    0    0  501  502  0.00000000000E+00  0.00000000000E+00  0.57001620748E+02  0.57001620748E+02  0.00000000000E+00 0. -1.
         21   -1    0    0  502  503 -0.00000000000E+00 -0.00000000000E+00 -0.54273303152E+03  0.54273303152E+03  0.00000000000E+00 0.  1.
         24    1    1    2    0    0  0.10911050882E+03  0.41421289653E+02 -0.11514229236E+03  0.18260829613E+03  0.80419002446E+02 0. -1.
          1    1    1    2  501    0 -0.62801248530E+02 -0.18134719374E+02 -0.28802304730E+02  0.71431349011E+02  0.00000000000E+00 0. -1.
         -2    1    1    2    0  503 -0.46309260292E+02 -0.23286570278E+02 -0.34178681369E+03  0.34569500713E+03  0.00000000000E+00 0.  1.
<mgrwt>
<rscale>  2 0.12946696E+03</rscale>
<asrwt>0</asrwt>
<pdfrwt beam="1">  1       21 0.87694805E-02 0.12946696E+03</pdfrwt>
<pdfrwt beam="2">  1       21 0.83497386E-01 0.12946696E+03</pdfrwt>
<totfact> 0.13058528E+05</totfact>
</mgrwt>
</event>
<event>
 5    1  0.1595802E+000  0.1001573E+03  0.7546771E-02  0.1279965E+00
         21   -1    0    0  501  502  0.00000000000E+00  0.00000000000E+00  0.10591951585E+03  0.10591951585E+03  0.00000000000E+00 0. -1.
         21   -1    0    0  502  503 -0.00000000000E+00 -0.00000000000E+00 -0.44568453243E+03  0.44568453243E+03  0.00000000000E+00 0.  1.
         24    1    1    2    0    0  0.33346966027E+02  0.74275301268E+02  0.46665021377E+02  0.12358673350E+03  0.80419002446E+02 0. -1.
          1    1    1    2  501    0 -0.36341426689E+02 -0.52231501791E+02 -0.29054309957E+02  0.69949853468E+02  0.00000000000E+00 0. -1.
         -2    1    1    2    0  503  0.29944606618E+01 -0.22043799477E+02 -0.35737572800E+03  0.35806746132E+03  0.00000000000E+00 0.  1.
<mgrwt>
<rscale>  2 0.10015733E+03</rscale>
<asrwt>0</asrwt>
<pdfrwt beam="1">  1       21 0.16295310E-01 0.10015733E+03</pdfrwt>
<pdfrwt beam="2">  1       21 0.68566850E-01 0.10015733E+03</pdfrwt>
<totfact> 0.68417822E+04</totfact>
</mgrwt>
</event>
<event>
 5    1  0.1595802E+000  0.6484903E+02  0.7546771E-02  0.1378540E+00
         21   -1    0    0  503  502  0.00000000000E+00  0.00000000000E+00  0.96574245478E+02  0.96574245478E+02  0.00000000000E+00 0.  1.
         21   -1    0    0  501  503 -0.00000000000E+00 -0.00000000000E+00 -0.13288377639E+03  0.13288377639E+03  0.00000000000E+00 0.  1.
         24    1    1    2    0    0 -0.79016445755E+01 -0.15750346576E+02 -0.34714550655E+02  0.89346658504E+02  0.80419002446E+02 0.  1.
          1    1    1    2  501    0  0.24603076976E+02  0.27862990828E+00 -0.66725013430E+02  0.71116920972E+02  0.00000000000E+00 0. -1.
         -2    1    1    2    0  502 -0.16701432401E+02  0.15471716667E+02  0.65130033170E+02  0.68994442396E+02  0.00000000000E+00 0.  1.
<mgrwt>
<rscale>  2 0.64849030E+02</rscale>
<asrwt>0</asrwt>
<pdfrwt beam="1">  1       21 0.14857576E-01 0.64849030E+02</pdfrwt>
<pdfrwt beam="2">  1       21 0.20443658E-01 0.64849030E+02</pdfrwt>
<totfact> 0.87661666E+05</totfact>
</mgrwt>
</event>
<event>
 5    1  0.1595802E+000  0.2119637E+03  0.7546771E-02  0.1140020E+00
         21   -1    0    0  503  502  0.00000000000E+00  0.00000000000E+00  0.11117321181E+04  0.11117321181E+04  0.00000000000E+00 0. -1.
         21   -1    0    0  501  503 -0.00000000000E+00 -0.00000000000E+00 -0.53187439770E+02  0.53187439770E+02  0.00000000000E+00 0. -1.
         24    1    1    2    0    0  0.13548218950E+03 -0.12107452098E+03  0.55174953704E+03  0.58643774681E+03  0.80419002446E+02 0. -1.
          1    1    1    2  501    0  0.23054835701E+02 -0.38647592081E+01 -0.86478800615E+01  0.24924839869E+02  0.00000000000E+00 0. -1.
         -2    1    1    2    0  502 -0.15853702521E+03  0.12493928018E+03  0.51544302132E+03  0.55355697116E+03  0.00000000000E+00 0.  1.
<mgrwt>
<rscale>  2 0.21196373E+03</rscale>
<asrwt>0</asrwt>
<pdfrwt beam="1">  1       21 0.17103569E+00 0.21196373E+03</pdfrwt>
<pdfrwt beam="2">  1       21 0.81826839E-02 0.21196373E+03</pdfrwt>
<totfact> 0.23896901E+04</totfact>
</mgrwt>
</event>
<event>
 5    1  0.1595802E+000  0.1504274E+03  0.7546771E-02  0.1199949E+00
         21   -1    0    0  501  502  0.00000000000E+00  0.00000000000E+00  0.55619828205E+03  0.55619828205E+03  0.00000000000E+00 0.  1.
         21   -1    0    0  502  503 -0.00000000000E+00 -0.00000000000E+00 -0.69715685334E+02  0.69715685334E+02  0.00000000000E+00 0. -1.
         24    1    1    2    0    0  0.11420390475E+03 -0.73016527942E+02  0.48314963705E+02  0.16484992231E+03  0.80419002446E+02 0. -1.
          1    1    1    2  501    0 -0.89774800463E+02  0.31626899443E+02  0.30363204145E+03  0.31820149617E+03  0.00000000000E+00 0. -1.
         -2    1    1    2    0  503 -0.24429104291E+02  0.41389628499E+02  0.13453559156E+03  0.14286254891E+03  0.00000000000E+00 0.  1.
<mgrwt>
<rscale>  2 0.15042744E+03</rscale>
<asrwt>0</asrwt>
<pdfrwt beam="1">  1       21 0.85568964E-01 0.15042744E+03</pdfrwt>
<pdfrwt beam="2">  1       21 0.10725490E-01 0.15042744E+03</pdfrwt>
<totfact> 0.86137894E+04</totfact>
</mgrwt>
</event>
<event>
 5    1  0.1679658E+000  0.1476999E+03  0.7546771E-02  0.1203328E+00
         21   -1    0    0  501  502  0.00000000000E+00  0.00000000000E+00  0.30908564431E+03  0.30908564431E+03  0.00000000000E+00 0. -1.
         21   -1    0    0  502  503 -0.00000000000E+00 -0.00000000000E+00 -0.12141300863E+03  0.12141300863E+03  0.00000000000E+00 0.  1.
         24    1    1    2    0    0  0.42248653320E+02 -0.33589394021E+01  0.19885974172E+02  0.93053205772E+02  0.80419002446E+02 0.  1.
          1    1    1    2  501    0  0.73324980489E+02  0.39650066519E+02  0.19606616467E+03  0.21305074857E+03  0.00000000000E+00 0. -1.
         -2    1    1    2    0  503 -0.11557363381E+03 -0.36291127117E+02 -0.28279503165E+02  0.12439469860E+03  0.00000000000E+00 0.  1.
<mgrwt>
<rscale>  2 0.14769991E+03</rscale>
<asrwt>0</asrwt>
<pdfrwt beam="1">  1       21 0.47551637E-01 0.14769991E+03</pdfrwt>
<pdfrwt beam="2">  1       21 0.18678924E-01 0.14769991E+03</pdfrwt>
<totfact> 0.11272358E+05</totfact>
</mgrwt>
</event>
<event>
 5    1  0.1595802E+000  0.7432525E+02  0.7546771E-02  0.1345973E+00
         21   -1    0    0  501  502  0.00000000000E+00  0.00000000000E+00  0.43507747541E+02  0.43507747541E+02  0.00000000000E+00 0. -1.
         21   -1    0    0  502  503 -0.00000000000E+00 -0.00000000000E+00 -0.20626630450E+03  0.20626630450E+03  0.00000000000E+00 0.  1.
         24    1    1    2    0    0  0.18149273286E+02  0.15552962953E+02 -0.92414285136E+02  0.12481549114E+03  0.80419002446E+02 0. -1.
          1    1    1    2  501    0 -0.16322116152E+02  0.21868782628E+02  0.15437044123E+02  0.31352152407E+02  0.00000000000E+00 0. -1.
         -2    1    1    2    0  503 -0.18271571341E+01 -0.37421745581E+02 -0.85781315943E+02  0.93606408490E+02  0.00000000000E+00 0.  1.
<mgrwt>
<rscale>  2 0.74325252E+02</rscale>
<asrwt>0</asrwt>
<pdfrwt beam="1">  1       21 0.66934996E-02 0.74325252E+02</pdfrwt>
<pdfrwt beam="2">  1       21 0.31733278E-01 0.74325252E+02</pdfrwt>
<totfact> 0.15319976E+06</totfact>
</mgrwt>
</event>
<event>
 5    1  0.1595802E+000  0.7982660E+02  0.7546771E-02  0.1329544E+00
         21   -1    0    0  501  502  0.00000000000E+00  0.00000000000E+00  0.22774115171E+02  0.22774115171E+02  0.00000000000E+00 0. -1.
         21   -1    0    0  502  503 -0.00000000000E+00 -0.00000000000E+00 -0.35902001963E+03  0.35902001963E+03  0.00000000000E+00 0.  1.
         24    1    1    2    0    0 -0.82227351774E+01  0.41111313300E+01 -0.17449997127E+03  0.19235896315E+03  0.80419002446E+02 0.  1.
          1    1    1    2  501    0 -0.22066897546E+02  0.27280600162E+02 -0.18443110663E+02  0.39639972798E+02  0.00000000000E+00 0. -1.
         -2    1    1    2    0  503  0.30289632724E+02 -0.31391731492E+02 -0.14330282252E+03  0.14979519885E+03  0.00000000000E+00 0.  1.
<mgrwt>
<rscale>  2 0.79826598E+02</rscale>
<asrwt>0</asrwt>
<pdfrwt beam="1">  1       21 0.35037104E-02 0.79826598E+02</pdfrwt>
<pdfrwt beam="2">  1       21 0.55233844E-01 0.79826598E+02</pdfrwt>
<totfact> 0.14932745E+06</totfact>
</mgrwt>
</event>
<event>
 5    1  0.1595802E+000  0.1014084E+03  0.7546771E-02  0.1277362E+00
         21   -1    0    0  503  502  0.00000000000E+00  0.00000000000E+00  0.28993271899E+02  0.28993271899E+02  0.00000000000E+00 0. -1.
         21   -1    0    0  501  503 -0.00000000000E+00 -0.00000000000E+00 -0.45695117774E+03  0.45695117774E+03  0.00000000000E+00 0. -1.
         24    1    1    2    0    0 -0.95112361339E+01  0.61447855632E+02 -0.10133681962E+03  0.14353630043E+03  0.80419002446E+02 0. -1.
          1    1    1    2  501    0  0.37237998745E+02 -0.63228275963E+02 -0.26167143199E+03  0.27176537997E+03  0.00000000000E+00 0. -1.
         -2    1    1    2    0  502 -0.27726762611E+02  0.17804203311E+01 -0.64949654233E+02  0.70642769244E+02  0.00000000000E+00 0.  1.
<mgrwt>
<rscale>  2 0.10140841E+03</rscale>
<asrwt>0</asrwt>
<pdfrwt beam="1">  1       21 0.44605034E-02 0.10140841E+03</pdfrwt>
<pdfrwt beam="2">  1       21 0.70300181E-01 0.10140841E+03</pdfrwt>
<totfact> 0.60460786E+05</totfact>
</mgrwt>
</event>
<event>
 5    1  0.1595802E+000  0.6356556E+02  0.7546771E-02  0.1383450E+00
         21   -1    0    0  501  502  0.00000000000E+00  0.00000000000E+00  0.93015085357E+01  0.93015085357E+01  0.00000000000E+00 0.  1.
         21   -1    0    0  502  503 -0.00000000000E+00 -0.00000000000E+00 -0.67854036566E+03  0.67854036566E+03  0.00000000000E+00 0. -1.
         24    1    1    2    0    0  0.12953051938E+01 -0.47036978812E-02 -0.28319049123E+03  0.29439046879E+03  0.80419002446E+02 0.  1.
          1    1    1    2  501    0  0.20783219930E+02 -0.92666617385E+01 -0.36025927269E+02  0.42610804803E+02  0.00000000000E+00 0. -1.
         -2    1    1    2    0  503 -0.22078525124E+02  0.92713654364E+01 -0.35002243862E+03  0.35084060059E+03  0.00000000000E+00 0.  1.
<mgrwt>
<rscale>  2 0.63565561E+02</rscale>
<asrwt>0</asrwt>
<pdfrwt beam="1">  1       21 0.14310016E-02 0.63565561E+02</pdfrwt>
<pdfrwt beam="2">  1       21 0.10439081E+00 0.63565561E+02</pdfrwt>
<totfact> 0.15510021E+06</totfact>
</mgrwt>
</event>
<event>
 5    1  0.1595802E+000  0.6576921E+02  0.7546771E-02  0.1375101E+00
         21   -1    0    0  501  502  0.00000000000E+00  0.00000000000E+00  0.92479664858E+01  0.92479664858E+01  0.00000000000E+00 0. -1.
         21   -1    0    0  502  503 -0.00000000000E+00 -0.00000000000E+00 -0.54469635408E+03  0.54469635408E+03  0.00000000000E+00 0. -1.
         24    1    1    2    0    0 -0.17084170360E+01  0.62873721619E+01 -0.23355948478E+03  0.24710260748E+03  0.80419002446E+02 0.  0.
          1    1    1    2  501    0 -0.24372032773E+02 -0.24544055597E+01 -0.88382474251E+02  0.91714131097E+02  0.00000000000E+00 0. -1.
         -2    1    1    2    0  503  0.26080449809E+02 -0.38329666022E+01 -0.21350642856E+03  0.21512758199E+03  0.00000000000E+00 0.  1.
<mgrwt>
<rscale>  2 0.65769206E+02</rscale>
<asrwt>0</asrwt>
<pdfrwt beam="1">  1       21 0.14227642E-02 0.65769206E+02</pdfrwt>
<pdfrwt beam="2">  1       21 0.83799430E-01 0.65769206E+02</pdfrwt>
<totfact> 0.25712421E+06</totfact>
</mgrwt>
</event>
<event>
 5    1  0.1595802E+000  0.8060397E+02  0.7546771E-02  0.1327346E+00
         21   -1    0    0  503  502  0.00000000000E+00  0.00000000000E+00  0.55236816784E+03  0.55236816784E+03  0.00000000000E+00 0.  1.
         21   -1    0    0  501  503 -0.00000000000E+00 -0.00000000000E+00 -0.22471534930E+02  0.22471534930E+02  0.00000000000E+00 0. -1.
         24    1    1    2    0    0 -0.75248066908E+01 -0.27645632944E+02  0.12294884535E+03  0.14968145598E+03  0.80419002446E+02 0. -1.
          1    1    1    2  501    0  0.38406653561E+02  0.22552072517E+02  0.50481439649E+02  0.67320448317E+02  0.00000000000E+00 0. -1.
         -2    1    1    2    0  502 -0.30881846870E+02  0.50935604273E+01  0.35646634791E+03  0.35783779847E+03  0.00000000000E+00 0.  1.
<mgrwt>
<rscale>  2 0.80603974E+02</rscale>
<asrwt>0</asrwt>
<pdfrwt beam="1">  1       21 0.84979708E-01 0.80603974E+02</pdfrwt>
<pdfrwt beam="2">  1       21 0.34571596E-02 0.80603974E+02</pdfrwt>
<totfact> 0.60642880E+05</totfact>
</mgrwt>
</event>
<event>
 5    1  0.1595802E+000  0.7910289E+02  0.7546771E-02  0.1331617E+00
         21   -1    0    0  503  502  0.00000000000E+00  0.00000000000E+00  0.22505142311E+03  0.22505142311E+03  0.00000000000E+00 0.  1.
         21   -1    0    0  501  503 -0.00000000000E+00 -0.00000000000E+00 -0.61967880959E+02  0.61967880959E+02  0.00000000000E+00 0.  1.
         24    1    1    2    0    0 -0.20017932443E+02 -0.54168719660E+02  0.53071807915E+01  0.99148121168E+02  0.80419002446E+02 0.  1.
          1    1    1    2  501    0  0.18710966094E+02  0.32573350601E+02  0.10486901942E+02  0.39001263235E+02  0.00000000000E+00 0. -1.
         -2    1    1    2    0  502  0.13069663489E+01  0.21595369059E+02  0.14728945941E+03  0.14886991966E+03  0.00000000000E+00 0.  1.
<mgrwt>
<rscale>  2 0.79102892E+02</rscale>
<asrwt>0</asrwt>
<pdfrwt beam="1">  1       21 0.34623295E-01 0.79102892E+02</pdfrwt>
<pdfrwt beam="2">  1       21 0.95335203E-02 0.79102892E+02</pdfrwt>
<totfact> 0.71113928E+05</totfact>
</mgrwt>
</event>
<event>
 5    1  0.1595802E+000  0.7663480E+02  0.7546771E-02  0.1338882E+00
         21   -1    0    0  501  502  0.00000000000E+00  0.00000000000E+00  0.69932659391E+01  0.69932659391E+01  0.00000000000E+00 0. -1.
         21   -1    0    0  502  503 -0.00000000000E+00 -0.00000000000E+00 -0.23521059319E+04  0.23521059319E+04  0.00000000000E+00 0.  1.
         24    1    1    2    0    0  0.26866758025E+02  0.48572187753E+01 -0.12080883866E+04  0.12110698497E+04  0.80419002446E+02 0.  0.
          1    1    1    2  501    0 -0.32914558756E+02 -0.28745900501E+02 -0.83739387953E+02  0.94456233613E+02  0.00000000000E+00 0. -1.
         -2    1    1    2    0  503  0.60478007313E+01  0.23888681725E+02 -0.10532848915E+04  0.10535731145E+04  0.00000000000E+00 0.  1.
<mgrwt>
<rscale>  2 0.76634805E+02</rscale>
<asrwt>0</asrwt>
<pdfrwt beam="1">  1       21 0.10758860E-02 0.76634805E+02</pdfrwt>
<pdfrwt beam="2">  1       21 0.36186283E+00 0.76634805E+02</pdfrwt>
<totfact> 0.59240935E+04</totfact>
</mgrwt>
</event>
<event>
 5    1  0.1595802E+000  0.9767944E+02  0.7546771E-02  0.1285253E+00
         21   -1    0    0  503  502  0.00000000000E+00  0.00000000000E+00  0.88374903084E+02  0.88374903084E+02  0.00000000000E+00 0. -1.
         21   -1    0    0  501  503 -0.00000000000E+00 -0.00000000000E+00 -0.19843291790E+03  0.19843291790E+03  0.00000000000E+00 0.  1.
         24    1    1    2    0    0  0.76384226010E+02 -0.24186123527E+02  0.28984115325E+02  0.11716148450E+03  0.80419002446E+02 0. -1.
          1    1    1    2  501    0 -0.27018463763E+02  0.17080299159E+02 -0.10371188729E+03  0.10852598568E+03  0.00000000000E+00 0. -1.
         -2    1    1    2    0  502 -0.49365762246E+02  0.71058243679E+01 -0.35330242850E+02  0.61120350801E+02  0.00000000000E+00 0.  1.
<mgrwt>
<rscale>  2 0.97679441E+02</rscale>
<asrwt>0</asrwt>
<pdfrwt beam="1">  1       21 0.13596139E-01 0.97679441E+02</pdfrwt>
<pdfrwt beam="2">  1       21 0.30528141E-01 0.97679441E+02</pdfrwt>
<totfact> 0.48786996E+05</totfact>
</mgrwt>
</event>
<event>
 5    1  0.1595802E+000  0.7559411E+02  0.7546771E-02  0.1342041E+00
         21   -1    0    0  503  502  0.00000000000E+00  0.00000000000E+00  0.60695574714E+02  0.60695574714E+02  0.00000000000E+00 0. -1.
         21   -1    0    0  501  503 -0.00000000000E+00 -0.00000000000E+00 -0.13037710896E+03  0.13037710896E+03  0.00000000000E+00 0. -1.
         24    1    1    2    0    0 -0.21372658738E+02 -0.30865299655E+02 -0.10064130384E+02  0.89319426437E+02  0.80419002446E+02 0. -1.
          1    1    1    2  501    0  0.33377423103E+01  0.41411289786E+02 -0.67634806399E+02  0.79375704609E+02  0.00000000000E+00 0. -1.
         -2    1    1    2    0  502  0.18034916427E+02 -0.10545990131E+02  0.80174025344E+01  0.22377552632E+02  0.00000000000E+00 0.  1.
<mgrwt>
<rscale>  2 0.75594109E+02</rscale>
<asrwt>0</asrwt>
<pdfrwt beam="1">  1       21 0.93377807E-02 0.75594109E+02</pdfrwt>
<pdfrwt beam="2">  1       21 0.20058017E-01 0.75594109E+02</pdfrwt>
<totfact> 0.20483499E+06</totfact>
</mgrwt>
</event>
<event>
 5    1  0.1595802E+000  0.1059268E+03  0.7546771E-02  0.1268304E+00
         21   -1    0    0  503  502  0.00000000000E+00  0.00000000000E+00  0.65987780317E+02  0.65987780317E+02  0.00000000000E+00 0.  1.
         21   -1    0    0  501  503 -0.00000000000E+00 -0.00000000000E+00 -0.27394622886E+03  0.27394622886E+03  0.00000000000E+00 0.  1.
         24    1    1    2    0    0  0.90521977563E+02  0.67842218120E+00 -0.17921396749E+03  0.21628580808E+03  0.80419002446E+02 0.  1.
          1    1    1    2  501    0 -0.33194250060E+02 -0.34469157673E+01 -0.51945218972E+02  0.61741762523E+02  0.00000000000E+00 0. -1.
         -2    1    1    2    0  502 -0.57327727503E+02  0.27684935861E+01  0.23200737917E+02  0.61906438577E+02  0.00000000000E+00 0.  1.
<mgrwt>
<rscale>  2 0.10592681E+03</rscale>
<asrwt>0</asrwt>
<pdfrwt beam="1">  1       21 0.10151966E-01 0.10592681E+03</pdfrwt>
<pdfrwt beam="2">  1       21 0.42145574E-01 0.10592681E+03</pdfrwt>
<totfact> 0.43337082E+05</totfact>
</mgrwt>
</event>
<event>
 5    1  0.1595802E+000  0.9125280E+02  0.7546771E-02  0.1299846E+00
         21   -1    0    0  503  502  0.00000000000E+00  0.00000000000E+00  0.13201446216E+03  0.13201446216E+03  0.00000000000E+00 0.  1.
         21   -1    0    0  501  503 -0.00000000000E+00 -0.00000000000E+00 -0.66491146213E+02  0.66491146213E+02  0.00000000000E+00 0.  1.
         24    1    1    2    0    0 -0.69699389124E+02  0.16336067268E+01  0.58643145746E+02  0.12151916726E+03  0.80419002446E+02 0.  1.
          1    1    1    2  501    0  0.47130840680E+02  0.13347982565E+02 -0.21163363727E+00  0.48984993320E+02  0.00000000000E+00 0. -1.
         -2    1    1    2    0  502  0.22568548444E+02 -0.14981589292E+02  0.70918038374E+01  0.28001447788E+02  0.00000000000E+00 0.  1.
<mgrwt>
<rscale>  2 0.91252802E+02</rscale>
<asrwt>0</asrwt>
<pdfrwt beam="1">  1       21 0.20309917E-01 0.91252802E+02</pdfrwt>
<pdfrwt beam="2">  1       21 0.10229407E-01 0.91252802E+02</pdfrwt>
<totfact> 0.17235844E+06</totfact>
</mgrwt>
</event>
<event>
 5    1  0.1595802E+000  0.6488680E+02  0.7546771E-02  0.1378398E+00
         21   -1    0    0  503  502  0.00000000000E+00  0.00000000000E+00  0.55292139365E+03  0.55292139365E+03  0.00000000000E+00 0. -1.
         21   -1    0    0  501  503 -0.00000000000E+00 -0.00000000000E+00 -0.14040288503E+02  0.14040288503E+02  0.00000000000E+00 0. -1.
         24    1    1    2    0    0 -0.57733280497E+01  0.13287892939E+02  0.40602819760E+03  0.41416906285E+03  0.80419002446E+02 0. -1.
          1    1    1    2  501    0  0.20429469773E+02  0.82300567574E+01  0.53588795529E+01  0.22667480219E+02  0.00000000000E+00 0. -1.
         -2    1    1    2    0  502 -0.14656141723E+02 -0.21517949697E+02  0.12749402799E+03  0.13012513909E+03  0.00000000000E+00 0.  1.
<mgrwt>
<rscale>  2 0.64886802E+02</rscale>
<asrwt>0</asrwt>
<pdfrwt beam="1">  1       21 0.85064813E-01 0.64886802E+02</pdfrwt>
<pdfrwt beam="2">  1       21 0.21600448E-02 0.64886802E+02</pdfrwt>
<totfact> 0.12860240E+06</totfact>
</mgrwt>
</event>
<event>
 5    1  0.1595802E+000  0.9286778E+02  0.7546771E-02  0.1296052E+00
         21   -1    0    0  503  502  0.00000000000E+00  0.00000000000E+00  0.31953871151E+02  0.31953871151E+02  0.00000000000E+00 0.  1.
         21   -1    0    0  501  503 -0.00000000000E+00 -0.00000000000E+00 -0.40309054606E+03  0.40309054606E+03  0.00000000000E+00 0. -1.
         24    1    1    2    0    0 -0.18086782714E+02 -0.32364917307E+02 -0.14908742451E+03  0.17340385141E+03  0.80419002446E+02 0.  0.
          1    1    1    2  501    0  0.52716902796E+02  0.48281128207E+01 -0.20887214081E+03  0.21547610940E+03  0.00000000000E+00 0. -1.
         -2    1    1    2    0  502 -0.34630120082E+02  0.27536804486E+02 -0.13177109587E+02  0.46164456406E+02  0.00000000000E+00 0.  1.
<mgrwt>
<rscale>  2 0.92867776E+02</rscale>
<asrwt>0</asrwt>
<pdfrwt beam="1">  1       21 0.49159805E-02 0.92867776E+02</pdfrwt>
<pdfrwt beam="2">  1       21 0.62013926E-01 0.92867776E+02</pdfrwt>
<totfact> 0.67280631E+05</totfact>
</mgrwt>
</event>
<event>
 5    1  0.1595802E+000  0.8532290E+02  0.7546771E-02  0.1314590E+00
         21   -1    0    0  503  502  0.00000000000E+00  0.00000000000E+00  0.53629884485E+02  0.53629884485E+02  0.00000000000E+00 0. -1.
         21   -1    0    0  501  503 -0.00000000000E+00 -0.00000000000E+00 -0.21707248885E+03  0.21707248885E+03  0.00000000000E+00 0. -1.
         24    1    1    2    0    0  0.26811105370E+02  0.45314145386E+02 -0.15094204546E+02  0.97299836117E+02  0.80419002446E+02 0. -1.
          1    1    1    2  501    0 -0.30533408361E+01 -0.50180118553E+02 -0.13829705497E+03  0.14715108766E+03  0.00000000000E+00 0. -1.
         -2    1    1    2    0  502 -0.23757764533E+02  0.48659731675E+01 -0.10051344858E+02  0.26251449559E+02  0.00000000000E+00 0.  1.
<mgrwt>
<rscale>  2 0.85322903E+02</rscale>
<asrwt>0</asrwt>
<pdfrwt beam="1">  1       21 0.82507515E-02 0.85322903E+02</pdfrwt>
<pdfrwt beam="2">  1       21 0.33395768E-01 0.85322903E+02</pdfrwt>
<totfact> 0.97810596E+05</totfact>
</mgrwt>
</event>
<event>
 5    1  0.1595802E+000  0.1362855E+03  0.7546771E-02  0.1218416E+00
         21   -1    0    0  503  502  0.00000000000E+00  0.00000000000E+00  0.85292584486E+02  0.85292584486E+02  0.00000000000E+00 0.  1.
         21   -1    0    0  501  503 -0.00000000000E+00 -0.00000000000E+00 -0.32867837906E+03  0.32867837906E+03  0.00000000000E+00 0. -1.
         24    1    1    2    0    0 -0.14438353097E+02 -0.70116816255E+02 -0.11342404404E+03  0.15638754325E+03  0.80419002446E+02 0.  1.
          1    1    1    2  501    0 -0.44749353594E+02 -0.26200319167E+02 -0.13480059350E+03  0.14443047248E+03  0.00000000000E+00 0. -1.
         -2    1    1    2    0  502  0.59187706691E+02  0.96317135423E+02  0.48388429698E+01  0.11315294782E+03  0.00000000000E+00 0.  1.
<mgrwt>
<rscale>  2 0.13628551E+03</rscale>
<asrwt>0</asrwt>
<pdfrwt beam="1">  1       21 0.13121936E-01 0.13628551E+03</pdfrwt>
<pdfrwt beam="2">  1       21 0.50565903E-01 0.13628551E+03</pdfrwt>
<totfact> 0.18909773E+05</totfact>
</mgrwt>
</event>
<event>
 5    1  0.1595802E+000  0.1038273E+03  0.7546771E-02  0.1272447E+00
         21   -1    0    0  503  502  0.00000000000E+00  0.00000000000E+00  0.46858783115E+02  0.46858783115E+02  0.00000000000E+00 0. -1.
         21   -1    0    0  501  503 -0.00000000000E+00 -0.00000000000E+00 -0.30852983102E+03  0.30852983102E+03  0.00000000000E+00 0.  1.
         24    1    1    2    0    0  0.11042928554E+02  0.13156305345E+02 -0.55591933608E+02  0.99260836577E+02  0.80419002446E+02 0. -1.
          1    1    1    2  501    0  0.51733322388E+02  0.18719897243E+02 -0.16651278083E+03  0.17536612380E+03  0.00000000000E+00 0. -1.
         -2    1    1    2    0  502 -0.62776250942E+02 -0.31876202588E+02 -0.39566333475E+02  0.80761653762E+02  0.00000000000E+00 0.  1.
<mgrwt>
<rscale>  2 0.10382731E+03</rscale>
<asrwt>0</asrwt>
<pdfrwt beam="1">  1       21 0.72090435E-02 0.10382731E+03</pdfrwt>
<pdfrwt beam="2">  1       21 0.47466128E-01 0.10382731E+03</pdfrwt>
<totfact> 0.61482871E+05</totfact>
</mgrwt>
</event>
<event>
 5    1  0.1595802E+000  0.1527462E+03  0.7546771E-02  0.1197139E+00
         21   -1    0    0  503  502  0.00000000000E+00  0.00000000000E+00  0.12570880703E+03  0.12570880703E+03  0.00000000000E+00 0.  1.
         21   -1    0    0  501  503 -0.00000000000E+00 -0.00000000000E+00 -0.24363559416E+03  0.24363559416E+03  0.00000000000E+00 0. -1.
         24    1    1    2    0    0  0.11827253081E+02  0.47955997895E+02 -0.24254233825E+02  0.97443037013E+02  0.80419002446E+02 0.  1.
          1    1    1    2  501    0 -0.58107904104E+02  0.66110885090E+02 -0.11720420836E+03  0.14657422728E+03  0.00000000000E+00 0. -1.
         -2    1    1    2    0  502  0.46280651023E+02 -0.11406688299E+03  0.23531655043E+02  0.12532713689E+03  0.00000000000E+00 0.  1.
<mgrwt>
<rscale>  2 0.15274623E+03</rscale>
<asrwt>0</asrwt>
<pdfrwt beam="1">  1       21 0.19339817E-01 0.15274623E+03</pdfrwt>
<pdfrwt beam="2">  1       21 0.37482399E-01 0.15274623E+03</pdfrwt>
<totfact> 0.17078269E+05</totfact>
</mgrwt>
</event>
<event>
 5    1  0.1595802E+000  0.7102920E+02  0.7546771E-02  0.1356628E+00
         21   -1    0    0  501  502  0.00000000000E+00  0.00000000000E+00  0.28198702637E+03  0.28198702637E+03  0.00000000000E+00 0. -1.
         21   -1    0    0  502  503 -0.00000000000E+00 -0.00000000000E+00 -0.21925786571E+02  0.21925786571E+02  0.00000000000E+00 0.  1.
         24    1    1    2    0    0  0.24620412391E+01  0.39490892674E+01  0.10225691126E+03  0.13017430164E+03  0.80419002446E+02 0.  1.
          1    1    1    2  501    0 -0.31706573146E+02 -0.56707919059E+01  0.12783139223E+03  0.13182689218E+03  0.00000000000E+00 0. -1.
         -2    1    1    2    0  503  0.29244531907E+02  0.17217026385E+01  0.29972936312E+02  0.41911619124E+02  0.00000000000E+00 0.  1.
<mgrwt>
<rscale>  2 0.71029204E+02</rscale>
<asrwt>0</asrwt>
<pdfrwt beam="1">  1       21 0.43382617E-01 0.71029204E+02</pdfrwt>
<pdfrwt beam="2">  1       21 0.33731981E-02 0.71029204E+02</pdfrwt>
<totfact> 0.25776777E+06</totfact>
</mgrwt>
</event>
<event>
 5    1  0.1595802E+000  0.7377539E+02  0.7546771E-02  0.1347706E+00
         21   -1    0    0  501  502  0.00000000000E+00  0.00000000000E+00  0.39094318107E+02  0.39094318107E+02  0.00000000000E+00 0.  1.
         21   -1    0    0  502  503 -0.00000000000E+00 -0.00000000000E+00 -0.18079638324E+03  0.18079638324E+03  0.00000000000E+00 0. -1.
         24    1    1    2    0    0 -0.17795013844E+02  0.16106972842E+02 -0.30608010349E+02  0.89331759995E+02  0.80419002446E+02 0.  1.
          1    1    1    2  501    0  0.15130474521E+02  0.21298655858E+02 -0.22970029583E+02  0.34787731453E+02  0.00000000000E+00 0. -1.
         -2    1    1    2    0  503  0.26645393235E+01 -0.37405628699E+02 -0.88124025201E+02  0.95771209900E+02  0.00000000000E+00 0.  1.
<mgrwt>
<rscale>  2 0.73775393E+02</rscale>
<asrwt>0</asrwt>
<pdfrwt beam="1">  1       21 0.60145106E-02 0.73775393E+02</pdfrwt>
<pdfrwt beam="2">  1       21 0.27814828E-01 0.73775393E+02</pdfrwt>
<totfact> 0.23524231E+06</totfact>
</mgrwt>
</event>
<event>
 5    1  0.1595802E+000  0.1299398E+03  0.7546771E-02  0.1227545E+00
         21   -1    0    0  503  502  0.00000000000E+00  0.00000000000E+00  0.23343736723E+03  0.23343736723E+03  0.00000000000E+00 0. -1.
         21   -1    0    0  501  503 -0.00000000000E+00 -0.00000000000E+00 -0.72402955800E+02  0.72402955800E+02  0.00000000000E+00 0.  1.
         24    1    1    2    0    0  0.67303627052E+01 -0.98065496994E+02  0.75958111929E+02  0.14798307405E+03  0.80419002446E+02 0. -1.
          1    1    1    2  501    0 -0.20031380612E+02 -0.11102739258E+02  0.12488463816E+02  0.26086179420E+02  0.00000000000E+00 0. -1.
         -2    1    1    2    0  502  0.13301017906E+02  0.10916823625E+03  0.72587835687E+02  0.13177106956E+03  0.00000000000E+00 0.  1.
<mgrwt>
<rscale>  2 0.12993975E+03</rscale>
<asrwt>0</asrwt>
<pdfrwt beam="1">  1       21 0.35913441E-01 0.12993975E+03</pdfrwt>
<pdfrwt beam="2">  1       21 0.11138916E-01 0.12993975E+03</pdfrwt>
<totfact> 0.50514427E+05</totfact>
</mgrwt>
</event>
<event>
 5    1  0.1595802E+000  0.1008071E+03  0.7546771E-02  0.1278608E+00
         21   -1    0    0  501  502  0.00000000000E+00  0.00000000000E+00  0.52964550465E+02  0.52964550465E+02  0.00000000000E+00 0. -1.
         21   -1    0    0  502  503 -0.00000000000E+00 -0.00000000000E+00 -0.33257012177E+03  0.33257012177E+03  0.00000000000E+00 0. -1.
         24    1    1    2    0    0 -0.40803792860E+02 -0.55104247409E+02 -0.12793922597E+03  0.16594302965E+03  0.80419002446E+02 0. -1.
          1    1    1    2  501    0  0.53332238840E+02  0.17240214972E+02  0.65453253585E+01  0.56430435015E+02  0.00000000000E+00 0. -1.
         -2    1    1    2    0  503 -0.12528445980E+02  0.37864032437E+02 -0.15821167069E+03  0.16316120756E+03  0.00000000000E+00 0.  1.
<mgrwt>
<rscale>  2 0.10080714E+03</rscale>
<asrwt>0</asrwt>
<pdfrwt beam="1">  1       21 0.81483925E-02 0.10080714E+03</pdfrwt>
<pdfrwt beam="2">  1       21 0.51164633E-01 0.10080714E+03</pdfrwt>
<totfact> 0.42779975E+05</totfact>
</mgrwt>
</event>
<event>
 5    1  0.1595802E+000  0.8396276E+02  0.7546771E-02  0.1318168E+00
         21   -1    0    0  503  502  0.00000000000E+00  0.00000000000E+00  0.39936791185E+02  0.39936791185E+02  0.00000000000E+00 0.  1.
         21   -1    0    0  501  503 -0.00000000000E+00 -0.00000000000E+00 -0.19316852568E+03  0.19316852568E+03  0.00000000000E+00 0. -1.
         24    1    1    2    0    0  0.28827683011E+02 -0.28304068869E+02 -0.48408439390E+02  0.10218976750E+03  0.80419002446E+02 0.  0.
          1    1    1    2  501    0  0.21870407640E+02  0.73681556190E+01 -0.38054259394E+02  0.44505405353E+02  0.00000000000E+00 0. -1.
         -2    1    1    2    0  502 -0.50698090651E+02  0.20935913250E+02 -0.66769035714E+02  0.86410144019E+02  0.00000000000E+00 0.  1.
<mgrwt>
<rscale>  2 0.83962760E+02</rscale>
<asrwt>0</asrwt>
<pdfrwt beam="1">  1       21 0.61441216E-02 0.83962760E+02</pdfrwt>
<pdfrwt beam="2">  1       21 0.29718235E-01 0.83962760E+02</pdfrwt>
<totfact> 0.20143105E+06</totfact>
</mgrwt>
</event>
<event>
 5    1  0.1595802E+000  0.1009300E+03  0.7546771E-02  0.1278352E+00
         21   -1    0    0  503  502  0.00000000000E+00  0.00000000000E+00  0.34662077023E+02  0.34662077023E+02  0.00000000000E+00 0.  1.
         21   -1    0    0  501  503 -0.00000000000E+00 -0.00000000000E+00 -0.31734236377E+03  0.31734236377E+03  0.00000000000E+00 0. -1.
         24    1    1    2    0    0 -0.81548022215E+01 -0.13540966352E+02 -0.69716776436E+02  0.10759880780E+03  0.80419002446E+02 0.  1.
          1    1    1    2  501    0  0.19665755510E+02 -0.50834488133E+02 -0.98864275898E+02  0.11289389785E+03  0.00000000000E+00 0. -1.
         -2    1    1    2    0  502 -0.11510953288E+02  0.64375454485E+02 -0.11409923441E+03  0.13151173514E+03  0.00000000000E+00 0.  1.
<mgrwt>
<rscale>  2 0.10093005E+03</rscale>
<asrwt>0</asrwt>
<pdfrwt beam="1">  1       21 0.53326269E-02 0.10093005E+03</pdfrwt>
<pdfrwt beam="2">  1       21 0.48821905E-01 0.10093005E+03</pdfrwt>
<totfact> 0.96582572E+05</totfact>
</mgrwt>
</event>
<event>
 5    1  0.1595802E+000  0.7086747E+02  0.7546771E-02  0.1357168E+00
         21   -1    0    0  503  502  0.00000000000E+00  0.00000000000E+00  0.36840734586E+03  0.36840734586E+03  0.00000000000E+00 0.  1.
         21   -1    0    0  501  503 -0.00000000000E+00 -0.00000000000E+00 -0.33316664898E+02  0.33316664898E+02  0.00000000000E+00 0. -1.
         24    1    1    2    0    0  0.10843025401E+02 -0.37289570405E+02  0.10272544630E+03  0.13611692228E+03  0.80419002446E+02 0. -1.
          1    1    1    2  501    0  0.84057700581E+01  0.31092400139E+02 -0.15520722522E+00  0.32208980207E+02  0.00000000000E+00 0. -1.
         -2    1    1    2    0  502 -0.19248795459E+02  0.61971702660E+01  0.23252044189E+03  0.23339810827E+03  0.00000000000E+00 0.  1.
<mgrwt>
<rscale>  2 0.70867467E+02</rscale>
<asrwt>0</asrwt>
<pdfrwt beam="1">  1       21 0.56678050E-01 0.70867467E+02</pdfrwt>
<pdfrwt beam="2">  1       21 0.51256410E-02 0.70867467E+02</pdfrwt>
<totfact> 0.75567268E+05</totfact>
</mgrwt>
</event>
<event>
 5    1  0.1595802E+000  0.8390142E+02  0.7546771E-02  0.1318331E+00
         21   -1    0    0  503  502  0.00000000000E+00  0.00000000000E+00  0.69367774692E+02  0.69367774692E+02  0.00000000000E+00 0. -1.
         21   -1    0    0  501  503 -0.00000000000E+00 -0.00000000000E+00 -0.12492190244E+03  0.12492190244E+03  0.00000000000E+00 0. -1.
         24    1    1    2    0    0  0.86669056135E+01  0.50886534185E+02  0.68218982880E+01  0.95803490881E+02  0.80419002446E+02 0. -1.
          1    1    1    2  501    0  0.16343122827E+02 -0.43027522769E+02 -0.54023827797E+02  0.70972102613E+02  0.00000000000E+00 0. -1.
         -2    1    1    2    0  502 -0.25010028441E+02 -0.78590114157E+01 -0.83521982388E+01  0.27514083638E+02  0.00000000000E+00 0.  1.
<mgrwt>
<rscale>  2 0.83901419E+02</rscale>
<asrwt>0</asrwt>
<pdfrwt beam="1">  1       21 0.10671965E-01 0.83901419E+02</pdfrwt>
<pdfrwt beam="2">  1       21 0.19218754E-01 0.83901419E+02</pdfrwt>
<totfact> 0.17657340E+06</totfact>
</mgrwt>
</event>
<event>
 5    1  0.1595802E+000  0.9590403E+02  0.7546771E-02  0.1289153E+00
         21   -1    0    0  503  502  0.00000000000E+00  0.00000000000E+00  0.94399502239E+03  0.94399502239E+03  0.00000000000E+00 0. -1.
         21   -1    0    0  501  503 -0.00000000000E+00 -0.00000000000E+00 -0.20072563241E+02  0.20072563241E+02  0.00000000000E+00 0.  1.
         24    1    1    2    0    0  0.75471010853E+02  0.19074162422E+02  0.78601883907E+03  0.79394743433E+03  0.80419002446E+02 0. -1.
          1    1    1    2  501    0 -0.45847958914E+02 -0.20510206061E+02  0.30646125493E+02  0.58837818594E+02  0.00000000000E+00 0. -1.
         -2    1    1    2    0  502 -0.29623051940E+02  0.14360436388E+01  0.10725749458E+03  0.11128233270E+03  0.00000000000E+00 0.  1.
<mgrwt>
<rscale>  2 0.95904029E+02</rscale>
<asrwt>0</asrwt>
<pdfrwt beam="1">  1       21 0.14522997E+00 0.95904029E+02</pdfrwt>
<pdfrwt beam="2">  1       21 0.30880874E-02 0.95904029E+02</pdfrwt>
<totfact> 0.20413286E+05</totfact>
</mgrwt>
</event>
<event>
 5    1  0.1595802E+000  0.7869071E+02  0.7546771E-02  0.1332809E+00
         21   -1    0    0  501  502  0.00000000000E+00  0.00000000000E+00  0.19229104137E+02  0.19229104137E+02  0.00000000000E+00 0. -1.
         21   -1    0    0  502  503 -0.00000000000E+00 -0.00000000000E+00 -0.88612905496E+03  0.88612905496E+03  0.00000000000E+00 0. -1.
         24    1    1    2    0    0  0.34016165320E+02  0.30089734554E+02 -0.66293955721E+03  0.66934188879E+03  0.80419002446E+02 0. -1.
          1    1    1    2  501    0 -0.41521997139E+02 -0.87910001477E+01 -0.13961096666E+02  0.44679639100E+02  0.00000000000E+00 0. -1.
         -2    1    1    2    0  503  0.75058318196E+01 -0.21298734406E+02 -0.18999929694E+03  0.19133663120E+03  0.00000000000E+00 0.  1.
<mgrwt>
<rscale>  2 0.78690709E+02</rscale>
<asrwt>0</asrwt>
<pdfrwt beam="1">  1       21 0.29583237E-02 0.78690709E+02</pdfrwt>
<pdfrwt beam="2">  1       21 0.13632755E+00 0.78690709E+02</pdfrwt>
<totfact> 0.25848591E+05</totfact>
</mgrwt>
</event>
<event>
 5    1  0.1595802E+000  0.2284465E+03  0.7546771E-02  0.1127738E+00
         21   -1    0    0  503  502  0.00000000000E+00  0.00000000000E+00  0.10953639644E+04  0.10953639644E+04  0.00000000000E+00 0.  1.
         21   -1    0    0  501  503 -0.00000000000E+00 -0.00000000000E+00 -0.68298941726E+02  0.68298941726E+02  0.00000000000E+00 0.  1.
         24    1    1    2    0    0 -0.18864717505E+03 -0.39414559198E+02  0.39051376153E+03  0.44284249799E+03  0.80419002446E+02 0.  1.
          1    1    1    2  501    0 -0.49709143126E+01 -0.38895242491E+02 -0.10750562089E+02  0.40658633312E+02  0.00000000000E+00 0. -1.
         -2    1    1    2    0  502  0.19361808936E+03  0.78309801690E+02  0.64730182325E+03  0.68016177484E+03  0.00000000000E+00 0.  1.
<mgrwt>
<rscale>  2 0.22844649E+03</rscale>
<asrwt>0</asrwt>
<pdfrwt beam="1">  1       21 0.16851752E+00 0.22844649E+03</pdfrwt>
<pdfrwt beam="2">  1       21 0.10507530E-01 0.22844649E+03</pdfrwt>
<totfact> 0.15850152E+04</totfact>
</mgrwt>
</event>
<event>
 5    1  0.1595802E+000  0.8005887E+02  0.7546771E-02  0.1328884E+00
         21   -1    0    0  501  502  0.00000000000E+00  0.00000000000E+00  0.72301936328E+03  0.72301936328E+03  0.00000000000E+00 0. -1.
         21   -1    0    0  502  503 -0.00000000000E+00 -0.00000000000E+00 -0.11122199387E+04  0.11122199387E+04  0.00000000000E+00 0.  1.
         24    1    1    2    0    0  0.16891604057E+02  0.46464061054E+02 -0.66931709924E+02  0.11572080627E+03  0.80419002446E+02 0. -1.
          1    1    1    2  501    0 -0.27860459293E+02 -0.13466467618E+02  0.69798581210E+03  0.69867141406E+03  0.00000000000E+00 0. -1.
         -2    1    1    2    0  503  0.10968855236E+02 -0.32997593436E+02 -0.10202546776E+04  0.10208470817E+04  0.00000000000E+00 0.  1.
<mgrwt>
<rscale>  2 0.80058869E+02</rscale>
<asrwt>0</asrwt>
<pdfrwt beam="1">  1       21 0.11123375E+00 0.80058869E+02</pdfrwt>
<pdfrwt beam="2">  1       21 0.17111076E+00 0.80058869E+02</pdfrwt>
<totfact> 0.16717078E+02</totfact>
</mgrwt>
</event>
<event>
 5    1  0.1595802E+000  0.1226178E+03  0.7546771E-02  0.1238840E+00
         21   -1    0    0  503  502  0.00000000000E+00  0.00000000000E+00  0.35475116198E+03  0.35475116198E+03  0.00000000000E+00 0.  1.
         21   -1    0    0  501  503 -0.00000000000E+00 -0.00000000000E+00 -0.50503579791E+02  0.50503579791E+02  0.00000000000E+00 0.  1.
         24    1    1    2    0    0 -0.24869945135E+02 -0.10359263473E+03  0.14133333595E+03  0.19440235581E+03  0.80419002446E+02 0.  1.
          1    1    1    2  501    0  0.33203939398E+02  0.76143787155E+02  0.56061718073E+02  0.10021623694E+03  0.00000000000E+00 0. -1.
         -2    1    1    2    0  502 -0.83339942630E+01  0.27448847571E+02  0.10685252817E+03  0.11063614902E+03  0.00000000000E+00 0.  1.
<mgrwt>
<rscale>  2 0.12261780E+03</rscale>
<asrwt>0</asrwt>
<pdfrwt beam="1">  1       21 0.54577100E-01 0.12261780E+03</pdfrwt>
<pdfrwt beam="2">  1       21 0.77697817E-02 0.12261780E+03</pdfrwt>
<totfact> 0.40505962E+05</totfact>
</mgrwt>
</event>
<event>
 5    1  0.1595802E+000  0.1844845E+03  0.7546771E-02  0.1163532E+00
         21   -1    0    0  503  502  0.00000000000E+00  0.00000000000E+00  0.93951126975E+02  0.93951126975E+02  0.00000000000E+00 0.  1.
         21   -1    0    0  501  503 -0.00000000000E+00 -0.00000000000E+00 -0.13033400072E+04  0.13033400072E+04  0.00000000000E+00 0. -1.
         24    1    1    2    0    0 -0.11536309868E+03  0.10114402789E+03 -0.88917911111E+03  0.90589484296E+03  0.80419002446E+02 0. -1.
          1    1    1    2  501    0  0.85144809550E+02 -0.12905417124E+03 -0.38486769896E+03  0.41476229747E+03  0.00000000000E+00 0. -1.
         -2    1    1    2    0  502  0.30218289128E+02  0.27910143346E+02  0.64657929861E+02  0.76633993719E+02  0.00000000000E+00 0.  1.
<mgrwt>
<rscale>  2 0.18448445E+03</rscale>
<asrwt>0</asrwt>
<pdfrwt beam="1">  1       21 0.14454020E-01 0.18448445E+03</pdfrwt>
<pdfrwt beam="2">  1       21 0.20051384E+00 0.18448445E+03</pdfrwt>
<totfact> 0.56343562E+03</totfact>
</mgrwt>
</event>
<event>
 5    1  0.1595802E+000  0.8164786E+02  0.7546771E-02  0.1324439E+00
         21   -1    0    0  503  502  0.00000000000E+00  0.00000000000E+00  0.68145006960E+01  0.68145006960E+01  0.00000000000E+00 0. -1.
         21   -1    0    0  501  503 -0.00000000000E+00 -0.00000000000E+00 -0.13235612085E+04  0.13235612085E+04  0.00000000000E+00 0.  1.
         24    1    1    2    0    0 -0.31175600805E+02  0.44335560687E+02 -0.10845603213E+04  0.10888874444E+04  0.80419002446E+02 0.  1.
          1    1    1    2  501    0  0.28269660353E+02 -0.73387025439E+01 -0.10740760598E+03  0.11130778982E+03  0.00000000000E+00 0. -1.
         -2    1    1    2    0  502  0.29059404526E+01 -0.36996858143E+02 -0.12477878046E+03  0.13018047494E+03  0.00000000000E+00 0.  1.
<mgrwt>
<rscale>  2 0.81647856E+02</rscale>
<asrwt>0</asrwt>
<pdfrwt beam="1">  1       21 0.10483847E-02 0.81647856E+02</pdfrwt>
<pdfrwt beam="2">  1       21 0.20362481E+00 0.81647856E+02</pdfrwt>
<totfact> 0.46597731E+05</totfact>
</mgrwt>
</event>
<event>
 5    1  0.1595802E+000  0.8822869E+02  0.7546771E-02  0.1307199E+00
         21   -1    0    0  503  502  0.00000000000E+00  0.00000000000E+00  0.27977106316E+03  0.27977106316E+03  0.00000000000E+00 0.  1.
         21   -1    0    0  501  503 -0.00000000000E+00 -0.00000000000E+00 -0.48248348371E+02  0.48248348371E+02  0.00000000000E+00 0. -1.
         24    1    1    2    0    0  0.23932185318E+02 -0.35430493197E+02  0.24892470264E+02  0.94418856022E+02  0.80419002446E+02 0.  0.
          1    1    1    2  501    0 -0.45092087478E+02  0.11657371059E+01  0.34407798014E+02  0.56732282347E+02  0.00000000000E+00 0. -1.
         -2    1    1    2    0  502  0.21159902160E+02  0.34264756091E+02  0.17222244651E+03  0.17686827316E+03  0.00000000000E+00 0.  1.
<mgrwt>
<rscale>  2 0.88228687E+02</rscale>
<asrwt>0</asrwt>
<pdfrwt beam="1">  1       21 0.43041701E-01 0.88228687E+02</pdfrwt>
<pdfrwt beam="2">  1       21 0.74228230E-02 0.88228687E+02</pdfrwt>
<totfact> 0.71213314E+05</totfact>
</mgrwt>
</event>
<event>
 5    1  0.1595802E+000  0.9314504E+02  0.7546771E-02  0.1295409E+00
         21   -1    0    0  503  502  0.00000000000E+00  0.00000000000E+00  0.17770257462E+03  0.17770257462E+03  0.00000000000E+00 0.  1.
         21   -1    0    0  501  503 -0.00000000000E+00 -0.00000000000E+00 -0.64353765024E+02  0.64353765024E+02  0.00000000000E+00 0.  1.
         24    1    1    2    0    0 -0.19034172754E+02  0.19783729946E+02  0.45435257138E+02  0.96360127898E+02  0.80419002446E+02 0.  1.
          1    1    1    2  501    0 -0.33073916206E+02  0.17330872255E+02 -0.15623615092E+02  0.40476418009E+02  0.00000000000E+00 0. -1.
         -2    1    1    2    0  502  0.52108088960E+02 -0.37114602201E+02  0.83537167546E+02  0.10521979373E+03  0.00000000000E+00 0.  1.
<mgrwt>
<rscale>  2 0.93145045E+02</rscale>
<asrwt>0</asrwt>
<pdfrwt beam="1">  1       21 0.27338857E-01 0.93145045E+02</pdfrwt>
<pdfrwt beam="2">  1       21 0.99005793E-02 0.93145045E+02</pdfrwt>
<totfact> 0.10495343E+06</totfact>
</mgrwt>
</event>
<event>
 5    1  0.1595802E+000  0.8289297E+02  0.7546771E-02  0.1321036E+00
         21   -1    0    0  501  502  0.00000000000E+00  0.00000000000E+00  0.10161310755E+03  0.10161310755E+03  0.00000000000E+00 0. -1.
         21   -1    0    0  502  503 -0.00000000000E+00 -0.00000000000E+00 -0.79283809105E+03  0.79283809105E+03  0.00000000000E+00 0.  1.
         24    1    1    2    0    0  0.40615600597E+02  0.19565665703E+02 -0.89472943948E+01  0.92626736516E+02  0.80419002446E+02 0.  0.
          1    1    1    2  501    0 -0.30326493339E+02 -0.40305605247E+02  0.48916266430E+02  0.70264067161E+02  0.00000000000E+00 0. -1.
         -2    1    1    2    0  503 -0.10289107258E+02  0.20739939544E+02 -0.73119395553E+03  0.73156039493E+03  0.00000000000E+00 0.  1.
<mgrwt>
<rscale>  2 0.82892969E+02</rscale>
<asrwt>0</asrwt>
<pdfrwt beam="1">  1       21 0.15632785E-01 0.82892969E+02</pdfrwt>
<pdfrwt beam="2">  1       21 0.12197510E+00 0.82892969E+02</pdfrwt>
<totfact> 0.20202018E+04</totfact>
</mgrwt>
</event>
<event>
 5    1  0.1595802E+000  0.6204961E+02  0.7546771E-02  0.1389426E+00
         21   -1    0    0  501  502  0.00000000000E+00  0.00000000000E+00  0.29275398324E+02  0.29275398324E+02  0.00000000000E+00 0. -1.
         21   -1    0    0  502  503 -0.00000000000E+00 -0.00000000000E+00 -0.48525614262E+03  0.48525614262E+03  0.00000000000E+00 0.  1.
         24    1    1    2    0    0 -0.39314919640E+01 -0.48053351146E+00 -0.34069259092E+03  0.35007762711E+03  0.80419002446E+02 0.  0.
          1    1    1    2  501    0  0.12175439019E+02  0.19423243781E+02  0.18266077434E+02  0.29311316912E+02  0.00000000000E+00 0. -1.
         -2    1    1    2    0  503 -0.82439470552E+01 -0.18942710270E+02 -0.13355423081E+03  0.13514259692E+03  0.00000000000E+00 0.  1.
<mgrwt>
<rscale>  2 0.62049609E+02</rscale>
<asrwt>0</asrwt>
<pdfrwt beam="1">  1       21 0.45039076E-02 0.62049609E+02</pdfrwt>
<pdfrwt beam="2">  1       21 0.74654789E-01 0.62049609E+02</pdfrwt>
<totfact> 0.52211056E+05</totfact>
</mgrwt>
</event>
<event>
 5    1  0.1595802E+000  0.1849572E+03  0.7546771E-02  0.1163090E+00
         21   -1    0    0  501  502  0.00000000000E+00  0.00000000000E+00  0.25074026401E+02  0.25074026401E+02  0.00000000000E+00 0. -1.
         21   -1    0    0  502  503 -0.00000000000E+00 -0.00000000000E+00 -0.21439256349E+04  0.21439256349E+04  0.00000000000E+00 0.  1.
         24    1    1    2    0    0 -0.14582276324E+03  0.52559934649E+02 -0.15443464241E+04  0.15541878647E+04  0.80419002446E+02 0.  1.
          1    1    1    2  501    0  0.15715507201E+03 -0.71940385658E+02 -0.36222596247E+03  0.40134870579E+03  0.00000000000E+00 0. -1.
         -2    1    1    2    0  503 -0.11332308769E+02  0.19380451008E+02 -0.21227922191E+03  0.21346309086E+03  0.00000000000E+00 0.  1.
<mgrwt>
<rscale>  2 0.18495718E+03</rscale>
<asrwt>0</asrwt>
<pdfrwt beam="1">  1       21 0.38575402E-02 0.18495718E+03</pdfrwt>
<pdfrwt beam="2">  1       21 0.32983491E+00 0.18495718E+03</pdfrwt>
<totfact> 0.96438156E+03</totfact>
</mgrwt>
</event>
<event>
 5    1  0.1595802E+000  0.1058490E+03  0.7546771E-02  0.1268456E+00
         21   -1    0    0  501  502  0.00000000000E+00  0.00000000000E+00  0.70018553774E+02  0.70018553774E+02  0.00000000000E+00 0. -1.
         21   -1    0    0  502  503 -0.00000000000E+00 -0.00000000000E+00 -0.31395679238E+03  0.31395679238E+03  0.00000000000E+00 0.  1.
         24    1    1    2    0    0  0.25179018730E+02  0.55126666921E+02 -0.21234282236E+03  0.23500983501E+03  0.80419002446E+02 0.  1.
          1    1    1    2  501    0  0.22733710030E+02  0.14143293086E+02  0.33235256308E+02  0.42678291589E+02  0.00000000000E+00 0. -1.
         -2    1    1    2    0  503 -0.47912728760E+02 -0.69269960007E+02 -0.64830672551E+02  0.10628721955E+03  0.00000000000E+00 0.  1.
<mgrwt>
<rscale>  2 0.10584903E+03</rscale>
<asrwt>0</asrwt>
<pdfrwt beam="1">  1       21 0.10772085E-01 0.10584903E+03</pdfrwt>
<pdfrwt beam="2">  1       21 0.48301045E-01 0.10584903E+03</pdfrwt>
<totfact> 0.29663977E+05</totfact>
</mgrwt>
</event>
<event>
 5    1  0.1595802E+000  0.7965809E+02  0.7546771E-02  0.1330025E+00
         21   -1    0    0  503  502  0.00000000000E+00  0.00000000000E+00  0.39745898617E+02  0.39745898617E+02  0.00000000000E+00 0.  1.
         21   -1    0    0  501  503 -0.00000000000E+00 -0.00000000000E+00 -0.35109125592E+03  0.35109125592E+03  0.00000000000E+00 0.  1.
         24    1    1    2    0    0  0.56314276022E+01  0.53586395714E+02 -0.29516927869E+03  0.31063698076E+03  0.80419002446E+02 0.  1.
          1    1    1    2  501    0 -0.16017359583E+02 -0.13023620670E+02 -0.29725797901E+02  0.36191070228E+02  0.00000000000E+00 0. -1.
         -2    1    1    2    0  502  0.10385931981E+02 -0.40562775044E+02  0.13549719284E+02  0.44009103547E+02  0.00000000000E+00 0.  1.
<mgrwt>
<rscale>  2 0.79658095E+02</rscale>
<asrwt>0</asrwt>
<pdfrwt beam="1">  1       21 0.61147538E-02 0.79658095E+02</pdfrwt>
<pdfrwt beam="2">  1       21 0.54014038E-01 0.79658095E+02</pdfrwt>
<totfact> 0.62288020E+05</totfact>
</mgrwt>
</event>
<event>
 5    1  0.1595802E+000  0.8981522E+02  0.7546771E-02  0.1303300E+00
         21   -1    0    0  503  502  0.00000000000E+00  0.00000000000E+00  0.43753549555E+02  0.43753549555E+02  0.00000000000E+00 0. -1.
         21   -1    0    0  501  503 -0.00000000000E+00 -0.00000000000E+00 -0.19007264101E+03  0.19007264101E+03  0.00000000000E+00 0. -1.
         24    1    1    2    0    0 -0.70744577445E+02  0.86422525702E+01 -0.71652657362E+02  0.12915418316E+03  0.80419002446E+02 0. -1.
          1    1    1    2  501    0  0.48715414625E+02 -0.58644823984E+00 -0.58766186343E+02  0.76334790240E+02  0.00000000000E+00 0. -1.
         -2    1    1    2    0  502  0.22029162820E+02 -0.80558043304E+01 -0.15900247749E+02  0.28337217161E+02  0.00000000000E+00 0.  1.
<mgrwt>
<rscale>  2 0.89815216E+02</rscale>
<asrwt>0</asrwt>
<pdfrwt beam="1">  1       21 0.67313153E-02 0.89815216E+02</pdfrwt>
<pdfrwt beam="2">  1       21 0.29241945E-01 0.89815216E+02</pdfrwt>
<totfact> 0.17858357E+06</totfact>
</mgrwt>
</event>
<event>
 5    1  0.1595802E+000  0.6871550E+02  0.7546771E-02  0.1364516E+00
         21   -1    0    0  501  502  0.00000000000E+00  0.00000000000E+00  0.16209896400E+03  0.16209896400E+03  0.00000000000E+00 0.  1.
         21   -1    0    0  502  503 -0.00000000000E+00 -0.00000000000E+00 -0.41763020273E+02  0.41763020273E+02  0.00000000000E+00 0. -1.
         24    1    1    2    0    0 -0.90904152723E+01 -0.37324117372E+02  0.10173376388E+03  0.13525050852E+03  0.80419002446E+02 0. -1.
          1    1    1    2  501    0  0.19045197587E+02  0.16387537779E+02  0.32883048273E+02  0.41383158523E+02  0.00000000000E+00 0. -1.
         -2    1    1    2    0  503 -0.99547823147E+01  0.20936579593E+02 -0.14280868428E+02  0.27228317228E+02  0.00000000000E+00 0.  1.
<mgrwt>
<rscale>  2 0.68715498E+02</rscale>
<asrwt>0</asrwt>
<pdfrwt beam="1">  1       21 0.24938302E-01 0.68715498E+02</pdfrwt>
<pdfrwt beam="2">  1       21 0.64250801E-02 0.68715498E+02</pdfrwt>
<totfact> 0.25728563E+06</totfact>
</mgrwt>
</event>
<event>
 5    1  0.1595802E+000  0.7570691E+02  0.7546771E-02  0.1341696E+00
         21   -1    0    0  503  502  0.00000000000E+00  0.00000000000E+00  0.31836923231E+02  0.31836923231E+02  0.00000000000E+00 0.  1.
         21   -1    0    0  501  503 -0.00000000000E+00 -0.00000000000E+00 -0.20516498440E+03  0.20516498440E+03  0.00000000000E+00 0.  1.
         24    1    1    2    0    0  0.19951815537E+02 -0.82678241025E+01 -0.67722436614E+02  0.10733115221E+03  0.80419002446E+02 0.  0.
          1    1    1    2  501    0  0.20375695481E+02  0.17402903495E+02 -0.70529062908E+02  0.75447854383E+02  0.00000000000E+00 0. -1.
         -2    1    1    2    0  502 -0.40327511018E+02 -0.91350793924E+01 -0.35076561650E+02  0.54222901043E+02  0.00000000000E+00 0.  1.
<mgrwt>
<rscale>  2 0.75706914E+02</rscale>
<asrwt>0</asrwt>
<pdfrwt beam="1">  1       21 0.48979881E-02 0.75706914E+02</pdfrwt>
<pdfrwt beam="2">  1       21 0.31563844E-01 0.75706914E+02</pdfrwt>
<totfact> 0.26077011E+06</totfact>
</mgrwt>
</event>
<event>
 5    1  0.1595802E+000  0.7828586E+02  0.7546771E-02  0.1333988E+00
         21   -1    0    0  503  502  0.00000000000E+00  0.00000000000E+00  0.49362884262E+03  0.49362884262E+03  0.00000000000E+00 0.  1.
         21   -1    0    0  501  503 -0.00000000000E+00 -0.00000000000E+00 -0.14743489457E+02  0.14743489457E+02  0.00000000000E+00 0.  1.
         24    1    1    2    0    0 -0.51532396834E+02  0.25679650900E+02  0.37720052234E+03  0.38995189754E+03  0.80419002446E+02 0.  1.
          1    1    1    2  501    0  0.21447968992E+02 -0.12470930389E+02  0.26137827371E+02  0.36037834262E+02  0.00000000000E+00 0. -1.
         -2    1    1    2    0  502  0.30084427842E+02 -0.13208720511E+02  0.75547003460E+02  0.82382600274E+02  0.00000000000E+00 0.  1.
<mgrwt>
<rscale>  2 0.78285859E+02</rscale>
<asrwt>0</asrwt>
<pdfrwt beam="1">  1       21 0.75942886E-01 0.78285859E+02</pdfrwt>
<pdfrwt beam="2">  1       21 0.22682295E-02 0.78285859E+02</pdfrwt>
<totfact> 0.15340623E+06</totfact>
</mgrwt>
</event>
<event>
 5    1  0.1595802E+000  0.7619144E+02  0.7546771E-02  0.1340221E+00
         21   -1    0    0  503  502  0.00000000000E+00  0.00000000000E+00  0.25315729697E+03  0.25315729697E+03  0.00000000000E+00 0.  1.
         21   -1    0    0  501  503 -0.00000000000E+00 -0.00000000000E+00 -0.42162579173E+02  0.42162579173E+02  0.00000000000E+00 0. -1.
         24    1    1    2    0    0 -0.22129078534E+02  0.94897180248E+01  0.46120235959E+02  0.95781224591E+02  0.80419002446E+02 0.  0.
          1    1    1    2  501    0  0.43633091187E+02 -0.15170180130E+02  0.15812391589E+02  0.48826352920E+02  0.00000000000E+00 0. -1.
         -2    1    1    2    0  502 -0.21504012653E+02  0.56804621047E+01  0.14906209025E+03  0.15071229863E+03  0.00000000000E+00 0.  1.
<mgrwt>
<rscale>  2 0.76191439E+02</rscale>
<asrwt>0</asrwt>
<pdfrwt beam="1">  1       21 0.38947276E-01 0.76191439E+02</pdfrwt>
<pdfrwt beam="2">  1       21 0.64865508E-02 0.76191439E+02</pdfrwt>
<totfact> 0.10873070E+06</totfact>
</mgrwt>
</event>
<event>
 5    1  0.1595802E+000  0.1508349E+03  0.7546771E-02  0.1199451E+00
         21   -1    0    0  501  502  0.00000000000E+00  0.00000000000E+00  0.19287672919E+03  0.19287672919E+03  0.00000000000E+00 0.  1.
         21   -1    0    0  502  503 -0.00000000000E+00 -0.00000000000E+00 -0.29202241852E+03  0.29202241852E+03  0.00000000000E+00 0.  1.
         24    1    1    2    0    0 -0.70210257573E+02 -0.96587219003E+02  0.27575300755E+02  0.14658166430E+03  0.80419002446E+02 0.  1.
          1    1    1    2  501    0  0.31878250278E+00 -0.20953021852E+02  0.84297471489E+02  0.86863078730E+02  0.00000000000E+00 0. -1.
         -2    1    1    2    0  503  0.69891475071E+02  0.11754024086E+03 -0.21101846157E+03  0.25145440468E+03  0.00000000000E+00 0.  1.
<mgrwt>
<rscale>  2 0.15083492E+03</rscale>
<asrwt>0</asrwt>
<pdfrwt beam="1">  1       21 0.29673343E-01 0.15083492E+03</pdfrwt>
<pdfrwt beam="2">  1       21 0.44926525E-01 0.15083492E+03</pdfrwt>
<totfact> 0.52809278E+04</totfact>
</mgrwt>
</event>
<event>
 5    1  0.1595802E+000  0.1037392E+03  0.7546771E-02  0.1272624E+00
         21   -1    0    0  501  502  0.00000000000E+00  0.00000000000E+00  0.64414628951E+02  0.64414628951E+02  0.00000000000E+00 0. -1.
         21   -1    0    0  502  503 -0.00000000000E+00 -0.00000000000E+00 -0.22593222539E+03  0.22593222539E+03  0.00000000000E+00 0. -1.
         24    1    1    2    0    0  0.42265067688E+02 -0.90294126366E+01 -0.97589220933E+02  0.13363659018E+03  0.80419002446E+02 0. -1.
          1    1    1    2  501    0 -0.62654272337E+02 -0.32009146125E+02  0.86387420487E+01  0.70885620135E+02  0.00000000000E+00 0. -1.
         -2    1    1    2    0  503  0.20389204649E+02  0.41038558762E+02 -0.72567117554E+02  0.85824644022E+02  0.00000000000E+00 0.  1.
<mgrwt>
<rscale>  2 0.10373920E+03</rscale>
<asrwt>0</asrwt>
<pdfrwt beam="1">  1       21 0.99099429E-02 0.10373920E+03</pdfrwt>
<pdfrwt beam="2">  1       21 0.34758804E-01 0.10373920E+03</pdfrwt>
<totfact> 0.66141637E+05</totfact>
</mgrwt>
</event>
<event>
 5    1  0.1834917E+000  0.1377560E+03  0.7546771E-02  0.1216381E+00
         21   -1    0    0  501  502  0.00000000000E+00  0.00000000000E+00  0.28837421972E+03  0.28837421972E+03  0.00000000000E+00 0. -1.
         21   -1    0    0  502  503 -0.00000000000E+00 -0.00000000000E+00 -0.56888721541E+03  0.56888721541E+03  0.00000000000E+00 0.  1.
         24    1    1    2    0    0 -0.15098026951E+02  0.49110042666E+02 -0.20332986269E+02  0.97572501216E+02  0.80419002446E+02 0.  1.
          1    1    1    2  501    0 -0.59084862960E+02  0.34409253778E+02  0.23878035234E+03  0.24837687984E+03  0.00000000000E+00 0. -1.
         -2    1    1    2    0  503  0.74182889910E+02 -0.83519296444E+02 -0.49896036176E+03  0.51131205407E+03  0.00000000000E+00 0.  1.
<mgrwt>
<rscale>  2 0.13775602E+03</rscale>
<asrwt>0</asrwt>
<pdfrwt beam="1">  1       21 0.44365266E-01 0.13775602E+03</pdfrwt>
<pdfrwt beam="2">  1       21 0.87521108E-01 0.13775602E+03</pdfrwt>
<totfact> 0.57282700E+03</totfact>
</mgrwt>
</event>
<event>
 5    1  0.1595802E+000  0.1023788E+03  0.7546771E-02  0.1275372E+00
         21   -1    0    0  501  502  0.00000000000E+00  0.00000000000E+00  0.21567584320E+03  0.21567584320E+03  0.00000000000E+00 0. -1.
         21   -1    0    0  502  503 -0.00000000000E+00 -0.00000000000E+00 -0.61970213564E+02  0.61970213564E+02  0.00000000000E+00 0.  1.
         24    1    1    2    0    0  0.34654852114E+02 -0.73676115431E+02  0.25273103285E+02  0.11719673402E+03  0.80419002446E+02 0.  1.
          1    1    1    2  501    0 -0.36877570322E+02  0.32716216649E+02  0.96866607921E+02  0.10868967640E+03  0.00000000000E+00 0. -1.
         -2    1    1    2    0  503  0.22227182082E+01  0.40959898782E+02  0.31565918434E+02  0.51759646357E+02  0.00000000000E+00 0.  1.
<mgrwt>
<rscale>  2 0.10237878E+03</rscale>
<asrwt>0</asrwt>
<pdfrwt beam="1">  1       21 0.33180899E-01 0.10237878E+03</pdfrwt>
<pdfrwt beam="2">  1       21 0.95338791E-02 0.10237878E+03</pdfrwt>
<totfact> 0.77419481E+05</totfact>
</mgrwt>
</event>
<event>
 5    1  0.1595802E+000  0.1072113E+03  0.7546771E-02  0.1265823E+00
         21   -1    0    0  501  502  0.00000000000E+00  0.00000000000E+00  0.11257178956E+04  0.11257178956E+04  0.00000000000E+00 0.  1.
         21   -1    0    0  502  503 -0.00000000000E+00 -0.00000000000E+00 -0.20856584400E+02  0.20856584400E+02  0.00000000000E+00 0.  1.
         24    1    1    2    0    0 -0.89339616802E+02  0.22157484570E+02  0.80949718666E+03  0.81867297037E+03  0.80419002446E+02 0.  1.
          1    1    1    2  501    0  0.64890855622E+02 -0.18477144946E+02  0.29557352059E+03  0.30317640757E+03  0.00000000000E+00 0. -1.
         -2    1    1    2    0  503  0.24448761181E+02 -0.36803396231E+01 -0.20939609910E+00  0.24725102017E+02  0.00000000000E+00 0.  1.
<mgrwt>
<rscale>  2 0.10721132E+03</rscale>
<asrwt>0</asrwt>
<pdfrwt beam="1">  1       21 0.17318732E+00 0.10721132E+03</pdfrwt>
<pdfrwt beam="2">  1       21 0.32087062E-02 0.10721132E+03</pdfrwt>
<totfact> 0.12026767E+05</totfact>
</mgrwt>
</event>
<event>
 5    1  0.1595802E+000  0.6810502E+02  0.7546771E-02  0.1366658E+00
         21   -1    0    0  503  502  0.00000000000E+00  0.00000000000E+00  0.47321677001E+03  0.47321677001E+03  0.00000000000E+00 0.  1.
         21   -1    0    0  501  503 -0.00000000000E+00 -0.00000000000E+00 -0.15607606952E+02  0.15607606952E+02  0.00000000000E+00 0. -1.
         24    1    1    2    0    0  0.55725395663E+01  0.23732399338E+02  0.26358628941E+03  0.27665723900E+03  0.80419002446E+02 0.  1.
          1    1    1    2  501    0 -0.21050860114E+02  0.30234991714E+01  0.66799237859E+01  0.22291290688E+02  0.00000000000E+00 0. -1.
         -2    1    1    2    0  502  0.15478320548E+02 -0.26755898509E+02  0.18734294987E+03  0.18987584727E+03  0.00000000000E+00 0.  1.
<mgrwt>
<rscale>  2 0.68105024E+02</rscale>
<asrwt>0</asrwt>
<pdfrwt beam="1">  1       21 0.72802569E-01 0.68105024E+02</pdfrwt>
<pdfrwt beam="2">  1       21 0.24011707E-02 0.68105024E+02</pdfrwt>
<totfact> 0.15277031E+06</totfact>
</mgrwt>
</event>
<event>
 5    1  0.1595802E+000  0.8797417E+02  0.7546771E-02  0.1307833E+00
         21   -1    0    0  503  502  0.00000000000E+00  0.00000000000E+00  0.28036442285E+03  0.28036442285E+03  0.00000000000E+00 0.  1.
         21   -1    0    0  501  503 -0.00000000000E+00 -0.00000000000E+00 -0.10886131358E+03  0.10886131358E+03  0.00000000000E+00 0.  1.
         24    1    1    2    0    0  0.26726457128E+02 -0.46245627297E+02 -0.30163015446E+02  0.10114338836E+03  0.80419002446E+02 0.  1.
          1    1    1    2  501    0  0.14975959795E+02  0.32013401936E+02 -0.33575810038E+02  0.48749074812E+02  0.00000000000E+00 0. -1.
         -2    1    1    2    0  502 -0.41702416922E+02  0.14232225361E+02  0.23524193475E+03  0.23933327325E+03  0.00000000000E+00 0.  1.
<mgrwt>
<rscale>  2 0.87974168E+02</rscale>
<asrwt>0</asrwt>
<pdfrwt beam="1">  1       21 0.43132988E-01 0.87974168E+02</pdfrwt>
<pdfrwt beam="2">  1       21 0.16747895E-01 0.87974168E+02</pdfrwt>
<totfact> 0.17124975E+05</totfact>
</mgrwt>
</event>
<event>
 5    1  0.1595802E+000  0.7526379E+02  0.7546771E-02  0.1343056E+00
         21   -1    0    0  501  502  0.00000000000E+00  0.00000000000E+00  0.11096511247E+02  0.11096511247E+02  0.00000000000E+00 0.  1.
         21   -1    0    0  502  503 -0.00000000000E+00 -0.00000000000E+00 -0.62130288561E+03  0.62130288561E+03  0.00000000000E+00 0.  1.
         24    1    1    2    0    0 -0.10487138329E+02 -0.38028526807E+02 -0.38895733205E+03  0.39913803506E+03  0.80419002446E+02 0.  0.
          1    1    1    2  501    0  0.22244223502E+02  0.11798573746E+01 -0.26087452315E+02  0.34303829391E+02  0.00000000000E+00 0. -1.
         -2    1    1    2    0  503 -0.11757085172E+02  0.36848669433E+02 -0.19516159000E+03  0.19895753241E+03  0.00000000000E+00 0.  1.
<mgrwt>
<rscale>  2 0.75263790E+02</rscale>
<asrwt>0</asrwt>
<pdfrwt beam="1">  1       21 0.17071552E-02 0.75263790E+02</pdfrwt>
<pdfrwt beam="2">  1       21 0.95585079E-01 0.75263790E+02</pdfrwt>
<totfact> 0.14443241E+06</totfact>
</mgrwt>
</event>
<event>
 5    1  0.1595802E+000  0.9376588E+02  0.7546771E-02  0.1293980E+00
         21   -1    0    0  503  502  0.00000000000E+00  0.00000000000E+00  0.12037032154E+03  0.12037032154E+03  0.00000000000E+00 0.  1.
         21   -1    0    0  501  503 -0.00000000000E+00 -0.00000000000E+00 -0.14375159359E+03  0.14375159359E+03  0.00000000000E+00 0.  1.
         24    1    1    2    0    0 -0.14623608763E+02 -0.48187656859E+02 -0.86700456016E+01  0.95280039105E+02  0.80419002446E+02 0. -1.
          1    1    1    2  501    0  0.27746564889E+02 -0.12589585465E+02 -0.75788454521E+02  0.81683899050E+02  0.00000000000E+00 0. -1.
         -2    1    1    2    0  502 -0.13122956126E+02  0.60777242324E+02  0.61077228067E+02  0.87157976975E+02  0.00000000000E+00 0.  1.
<mgrwt>
<rscale>  2 0.93765880E+02</rscale>
<asrwt>0</asrwt>
<pdfrwt beam="1">  1       21 0.18518511E-01 0.93765880E+02</pdfrwt>
<pdfrwt beam="2">  1       21 0.22115630E-01 0.93765880E+02</pdfrwt>
<totfact> 0.51387128E+05</totfact>
</mgrwt>
</event>
<event>
 5    1  0.1595802E+000  0.9635177E+02  0.7546771E-02  0.1288160E+00
         21   -1    0    0  503  502  0.00000000000E+00  0.00000000000E+00  0.21866828554E+03  0.21866828554E+03  0.00000000000E+00 0.  1.
         21   -1    0    0  501  503 -0.00000000000E+00 -0.00000000000E+00 -0.50051463113E+02  0.50051463113E+02  0.00000000000E+00 0. -1.
         24    1    1    2    0    0  0.36899615068E+01 -0.36209620683E+02  0.59590720287E+02  0.10650362597E+03  0.80419002446E+02 0.  0.
          1    1    1    2  501    0  0.73375957697E+01  0.69230273372E+02  0.29894541410E+02  0.75765128317E+02  0.00000000000E+00 0. -1.
         -2    1    1    2    0  502 -0.11027557277E+02 -0.33020652689E+02  0.79131560732E+02  0.86450994369E+02  0.00000000000E+00 0.  1.
<mgrwt>
<rscale>  2 0.96351765E+02</rscale>
<asrwt>0</asrwt>
<pdfrwt beam="1">  1       21 0.33641274E-01 0.96351765E+02</pdfrwt>
<pdfrwt beam="2">  1       21 0.77002252E-02 0.96351765E+02</pdfrwt>
<totfact> 0.10875706E+06</totfact>
</mgrwt>
</event>
<event>
 5    1  0.1595802E+000  0.6381606E+02  0.7546771E-02  0.1382481E+00
         21   -1    0    0  503  502  0.00000000000E+00  0.00000000000E+00  0.88761042392E+03  0.88761042392E+03  0.00000000000E+00 0.  1.
         21   -1    0    0  501  503 -0.00000000000E+00 -0.00000000000E+00 -0.51930795878E+01  0.51930795878E+01  0.00000000000E+00 0. -1.
         24    1    1    2    0    0  0.13506103866E+02 -0.22165473145E+00  0.42150131959E+03  0.42931694858E+03  0.80419002446E+02 0.  0.
          1    1    1    2  501    0 -0.10289728658E+01  0.21443708747E+02  0.29172502238E+03  0.29251389729E+03  0.00000000000E+00 0. -1.
         -2    1    1    2    0  502 -0.12477131000E+02 -0.21222054015E+02  0.16919100236E+03  0.17097265763E+03  0.00000000000E+00 0.  1.
<mgrwt>
<rscale>  2 0.63816062E+02</rscale>
<asrwt>0</asrwt>
<pdfrwt beam="1">  1       21 0.13655533E+00 0.63816062E+02</pdfrwt>
<pdfrwt beam="2">  1       21 0.79893603E-03 0.63816062E+02</pdfrwt>
<totfact> 0.20278698E+06</totfact>
</mgrwt>
</event>
<event>
 5    1  0.1595802E+000  0.7815742E+02  0.7546771E-02  0.1334363E+00
         21   -1    0    0  503  502  0.00000000000E+00  0.00000000000E+00  0.26806857428E+02  0.26806857428E+02  0.00000000000E+00 0. -1.
         21   -1    0    0  501  503 -0.00000000000E+00 -0.00000000000E+00 -0.24764483769E+03  0.24764483769E+03  0.00000000000E+00 0.  1.
         24    1    1    2    0    0  0.31983699418E+02 -0.83419276789E+01 -0.12752252522E+03  0.15434297904E+03  0.80419002446E+02 0.  0.
          1    1    1    2  501    0 -0.18582799082E+01  0.31385063848E+02 -0.66807141545E+02  0.73835422383E+02  0.00000000000E+00 0. -1.
         -2    1    1    2    0  502 -0.30125419510E+02 -0.23043136169E+02 -0.26508313496E+02  0.46273293697E+02  0.00000000000E+00 0.  1.
<mgrwt>
<rscale>  2 0.78157416E+02</rscale>
<asrwt>0</asrwt>
<pdfrwt beam="1">  1       21 0.41241320E-02 0.78157416E+02</pdfrwt>
<pdfrwt beam="2">  1       21 0.38099205E-01 0.78157416E+02</pdfrwt>
<totfact> 0.24099920E+06</totfact>
</mgrwt>
</event>
<event>
 5    1  0.1595802E+000  0.6536762E+02  0.7546771E-02  0.1376594E+00
         21   -1    0    0  501  502  0.00000000000E+00  0.00000000000E+00  0.11000235167E+02  0.11000235167E+02  0.00000000000E+00 0. -1.
         21   -1    0    0  502  503 -0.00000000000E+00 -0.00000000000E+00 -0.13425474719E+04  0.13425474719E+04  0.00000000000E+00 0. -1.
         24    1    1    2    0    0  0.12178533171E+02 -0.53233760417E+01 -0.12347128042E+04  0.12374003313E+04  0.80419002446E+02 0. -1.
          1    1    1    2  501    0  0.22297831522E+01  0.24854685942E+02 -0.11589198209E+02  0.27514302850E+02  0.00000000000E+00 0. -1.
         -2    1    1    2    0  503 -0.14408316323E+02 -0.19531309901E+02 -0.85245234283E+02  0.88633072911E+02  0.00000000000E+00 0.  1.
<mgrwt>
<rscale>  2 0.65367624E+02</rscale>
<asrwt>0</asrwt>
<pdfrwt beam="1">  1       21 0.16923452E-02 0.65367624E+02</pdfrwt>
<pdfrwt beam="2">  1       21 0.20654560E+00 0.65367624E+02</pdfrwt>
<totfact> 0.21371140E+05</totfact>
</mgrwt>
</event>
<event>
 5    1  0.1595802E+000  0.7781756E+02  0.7546771E-02  0.1335361E+00
         21   -1    0    0  503  502  0.00000000000E+00  0.00000000000E+00  0.18053073993E+03  0.18053073993E+03  0.00000000000E+00 0. -1.
         21   -1    0    0  501  503 -0.00000000000E+00 -0.00000000000E+00 -0.34815966138E+02  0.34815966138E+02  0.00000000000E+00 0.  1.
         24    1    1    2    0    0  0.10080220135E+02 -0.17840492767E+02  0.79168466088E+02  0.11469418467E+03  0.80419002446E+02 0.  1.
          1    1    1    2  501    0 -0.39833187259E+02  0.46602534501E+01  0.22809042489E+02  0.46137329666E+02  0.00000000000E+00 0. -1.
         -2    1    1    2    0  502  0.29752967124E+02  0.13180239317E+02  0.43737265215E+02  0.54515191732E+02  0.00000000000E+00 0.  1.
<mgrwt>
<rscale>  2 0.77817558E+02</rscale>
<asrwt>0</asrwt>
<pdfrwt beam="1">  1       21 0.27773959E-01 0.77817558E+02</pdfrwt>
<pdfrwt beam="2">  1       21 0.53563026E-02 0.77817558E+02</pdfrwt>
<totfact> 0.28696730E+06</totfact>
</mgrwt>
</event>
