<event>
 5    1  0.1624116E+000  0.1333831E+03  0.7546771E-02  0.1222520E+00
         21   -1    0    0  501  502  0.00000000000E+00  0.00000000000E+00  0.80452430583E+02  0.80452430583E+02  0.00000000000E+00 0. -1.
         21   -1    0    0  502  503 -0.00000000000E+00 -0.00000000000E+00 -0.51555011755E+03  0.51555011755E+03  0.00000000000E+00 0.  1.
         24    1    1    2    0    0 -0.67146681582E+02 -0.78205627192E+02 -0.14771124224E+03  0.19725776033E+03  0.80419002446E+02 0.  1.
          1    1    1    2  501    0  0.55162759115E+02 -0.17407871062E+01  0.35679030309E+02  0.65718745702E+02  0.00000000000E+00 0. -1.
         -2    1    1    2    0  503  0.11983922467E+02  0.79946414298E+02 -0.32306547504E+03  0.33302604211E+03  0.00000000000E+00 0.  1.
<mgrwt>
<rscale>  2 0.13338313E+03</rscale>
<asrwt>0</asrwt>
<pdfrwt beam="1">  1       21 0.12377297E-01 0.13338313E+03</pdfrwt>
<pdfrwt beam="2">  1       21 0.79315404E-01 0.13338313E+03</pdfrwt>
<totfact> 0.79900609E+04</totfact>
</mgrwt>
</event>
<event>
 5    1  0.1624116E+000  0.1026142E+03  0.7546771E-02  0.1274893E+00
         21   -1    0    0  503  502  0.00000000000E+00  0.00000000000E+00  0.10549874536E+04  0.10549874536E+04  0.00000000000E+00 0. -1.
         21   -1    0    0  501  503 -0.00000000000E+00 -0.00000000000E+00 -0.13850226098E+02  0.13850226098E+02  0.00000000000E+00 0. -1.
         24    1    1    2    0    0  0.25976564940E+02  0.55339974360E+02  0.23304306834E+03  0.25399524079E+03  0.80419002446E+02 0. -1.
          1    1    1    2  501    0 -0.66541431335E+01 -0.75787040988E+02  0.55517558334E+03  0.56036406161E+03  0.00000000000E+00 0. -1.
         -2    1    1    2    0  502 -0.19322421806E+02  0.20447066627E+02  0.25291857584E+03  0.25447837732E+03  0.00000000000E+00 0.  1.
<mgrwt>
<rscale>  2 0.10261425E+03</rscale>
<asrwt>0</asrwt>
<pdfrwt beam="1">  1       21 0.16230570E+00 0.10261425E+03</pdfrwt>
<pdfrwt beam="2">  1       21 0.21308048E-02 0.10261425E+03</pdfrwt>
<totfact> 0.27850983E+05</totfact>
</mgrwt>
</event>
<event>
 5    1  0.1624116E+000  0.1527236E+03  0.7546771E-02  0.1197166E+00
         21   -1    0    0  503  502  0.00000000000E+00  0.00000000000E+00  0.65486889695E+03  0.65486889695E+03  0.00000000000E+00 0.  1.
         21   -1    0    0  501  503 -0.00000000000E+00 -0.00000000000E+00 -0.34173054550E+03  0.34173054550E+03  0.00000000000E+00 0. -1.
         24    1    1    2    0    0 -0.81358813328E+02 -0.10382560193E+03 -0.18154926514E+03  0.23838280926E+03  0.80419002446E+02 0. -1.
          1    1    1    2  501    0  0.81969716529E+02  0.47714495401E+02 -0.11323553297E+03  0.14770915146E+03  0.00000000000E+00 0. -1.
         -2    1    1    2    0  502 -0.61090320064E+00  0.56111106534E+02  0.60792314956E+03  0.61050748173E+03  0.00000000000E+00 0.  1.
<mgrwt>
<rscale>  2 0.15272356E+03</rscale>
<asrwt>0</asrwt>
<pdfrwt beam="1">  1       21 0.10074906E+00 0.15272356E+03</pdfrwt>
<pdfrwt beam="2">  1       21 0.52573930E-01 0.15272356E+03</pdfrwt>
<totfact> 0.28725187E+03</totfact>
</mgrwt>
</event>
<event>
 5    1  0.1624116E+000  0.6733056E+02  0.7546771E-02  0.1369413E+00
         21   -1    0    0  501  502  0.00000000000E+00  0.00000000000E+00  0.25338887787E+02  0.25338887787E+02  0.00000000000E+00 0. -1.
         21   -1    0    0  502  503 -0.00000000000E+00 -0.00000000000E+00 -0.21238738503E+03  0.21238738503E+03  0.00000000000E+00 0.  1.
         24    1    1    2    0    0  0.20903225707E+02  0.23954659243E+01 -0.66345191918E+02  0.10635592859E+03  0.80419002446E+02 0. -1.
          1    1    1    2  501    0  0.45146032388E+01 -0.20073161897E+02 -0.41209634561E+02  0.46060258918E+02  0.00000000000E+00 0. -1.
         -2    1    1    2    0  503 -0.25417828946E+02  0.17677695973E+02 -0.79493670761E+02  0.85310085303E+02  0.00000000000E+00 0.  1.
<mgrwt>
<rscale>  2 0.67330559E+02</rscale>
<asrwt>0</asrwt>
<pdfrwt beam="1">  1       21 0.38982905E-02 0.67330559E+02</pdfrwt>
<pdfrwt beam="2">  1       21 0.32674982E-01 0.67330559E+02</pdfrwt>
<totfact> 0.35265891E+06</totfact>
</mgrwt>
</event>
<event>
 5    1  0.1624116E+000  0.9362584E+02  0.7546771E-02  0.1294301E+00
         21   -1    0    0  501  502  0.00000000000E+00  0.00000000000E+00  0.88657732668E+03  0.88657732668E+03  0.00000000000E+00 0. -1.
         21   -1    0    0  502  503 -0.00000000000E+00 -0.00000000000E+00 -0.69535749048E+02  0.69535749048E+02  0.00000000000E+00 0.  1.
         24    1    1    2    0    0  0.48295342880E+02  0.16003743543E+02  0.32492643783E+02  0.10055619228E+03  0.80419002446E+02 0.  0.
          1    1    1    2  501    0  0.14579709562E+02 -0.24634054208E+02  0.79122452840E+03  0.79174216693E+03  0.00000000000E+00 0. -1.
         -2    1    1    2    0  503 -0.62875052442E+02  0.86303106651E+01 -0.66755945486E+01  0.63814716518E+02  0.00000000000E+00 0.  1.
<mgrwt>
<rscale>  2 0.93625838E+02</rscale>
<asrwt>0</asrwt>
<pdfrwt beam="1">  1       21 0.13639650E+00 0.93625838E+02</pdfrwt>
<pdfrwt beam="2">  1       21 0.10697808E-01 0.93625838E+02</pdfrwt>
<totfact> 0.29652577E+04</totfact>
</mgrwt>
</event>
<event>
 5    1  0.1624116E+000  0.9011882E+02  0.7546771E-02  0.1302564E+00
         21   -1    0    0  501  502  0.00000000000E+00  0.00000000000E+00  0.13716212522E+02  0.13716212522E+02  0.00000000000E+00 0.  1.
         21   -1    0    0  502  503 -0.00000000000E+00 -0.00000000000E+00 -0.65379963370E+03  0.65379963370E+03  0.00000000000E+00 0. -1.
         24    1    1    2    0    0 -0.17978709904E+02 -0.48921620714E+02 -0.24660761582E+03  0.26457341348E+03  0.80419002446E+02 0.  1.
          1    1    1    2  501    0  0.42415343333E+02  0.21092542066E+02 -0.17256465628E+03  0.17894836483E+03  0.00000000000E+00 0. -1.
         -2    1    1    2    0  503 -0.24436633429E+02  0.27829078649E+02 -0.22091114908E+03  0.22399406791E+03  0.00000000000E+00 0.  1.
<mgrwt>
<rscale>  2 0.90118821E+02</rscale>
<asrwt>0</asrwt>
<pdfrwt beam="1">  1       21 0.21101868E-02 0.90118821E+02</pdfrwt>
<pdfrwt beam="2">  1       21 0.10058455E+00 0.90118821E+02</pdfrwt>
<totfact> 0.91915545E+05</totfact>
</mgrwt>
</event>
<event>
 5    1  0.1624116E+000  0.9375320E+02  0.7546771E-02  0.1294009E+00
         21   -1    0    0  503  502  0.00000000000E+00  0.00000000000E+00  0.23560198073E+03  0.23560198073E+03  0.00000000000E+00 0.  1.
         21   -1    0    0  501  503 -0.00000000000E+00 -0.00000000000E+00 -0.66303285293E+02  0.66303285293E+02  0.00000000000E+00 0.  1.
         24    1    1    2    0    0  0.40410530983E+02  0.67822314574E+01  0.68732869173E+02  0.11344793051E+03  0.80419002446E+02 0.  0.
          1    1    1    2  501    0 -0.15767851864E+01  0.37967169193E+02 -0.27795937288E+02  0.47080848737E+02  0.00000000000E+00 0. -1.
         -2    1    1    2    0  502 -0.38833745797E+02 -0.44749400651E+02  0.12836176355E+03  0.14137648678E+03  0.00000000000E+00 0.  1.
<mgrwt>
<rscale>  2 0.93753197E+02</rscale>
<asrwt>0</asrwt>
<pdfrwt beam="1">  1       21 0.36246458E-01 0.93753197E+02</pdfrwt>
<pdfrwt beam="2">  1       21 0.10200506E-01 0.93753197E+02</pdfrwt>
<totfact> 0.57947947E+05</totfact>
</mgrwt>
</event>
<event>
 5    1  0.1624116E+000  0.7536806E+02  0.7546771E-02  0.1342735E+00
         21   -1    0    0  501  502  0.00000000000E+00  0.00000000000E+00  0.14179032953E+03  0.14179032953E+03  0.00000000000E+00 0.  1.
         21   -1    0    0  502  503 -0.00000000000E+00 -0.00000000000E+00 -0.70683161091E+02  0.70683161091E+02  0.00000000000E+00 0. -1.
         24    1    1    2    0    0 -0.41549257974E+01  0.23257445040E+02  0.21416923061E+02  0.86510535231E+02  0.80419002446E+02 0. -1.
          1    1    1    2  501    0  0.26036231483E+02  0.93376294670E+01  0.74536043766E+02  0.79502820668E+02  0.00000000000E+00 0. -1.
         -2    1    1    2    0  503 -0.21881305686E+02 -0.32595074507E+02 -0.24845798390E+02  0.46460134721E+02  0.00000000000E+00 0.  1.
<mgrwt>
<rscale>  2 0.75368058E+02</rscale>
<asrwt>0</asrwt>
<pdfrwt beam="1">  1       21 0.21813897E-01 0.75368058E+02</pdfrwt>
<pdfrwt beam="2">  1       21 0.10874332E-01 0.75368058E+02</pdfrwt>
<totfact> 0.13507639E+06</totfact>
</mgrwt>
</event>
<event>
 5    1  0.1624116E+000  0.7670580E+02  0.7546771E-02  0.1338669E+00
         21   -1    0    0  501  502  0.00000000000E+00  0.00000000000E+00  0.17497529954E+03  0.17497529954E+03  0.00000000000E+00 0. -1.
         21   -1    0    0  502  503 -0.00000000000E+00 -0.00000000000E+00 -0.11176686162E+03  0.11176686162E+03  0.00000000000E+00 0.  1.
         24    1    1    2    0    0  0.30219503816E+02 -0.24298762093E+02  0.14915358788E+03  0.17383226681E+03  0.80419002446E+02 0. -1.
          1    1    1    2  501    0  0.33628472799E+01  0.29897517166E+02 -0.13728466947E+02  0.33070244620E+02  0.00000000000E+00 0. -1.
         -2    1    1    2    0  503 -0.33582351096E+02 -0.55987550724E+01 -0.72216683020E+02  0.79839649736E+02  0.00000000000E+00 0.  1.
<mgrwt>
<rscale>  2 0.76705801E+02</rscale>
<asrwt>0</asrwt>
<pdfrwt beam="1">  1       21 0.26919277E-01 0.76705801E+02</pdfrwt>
<pdfrwt beam="2">  1       21 0.17194902E-01 0.76705801E+02</pdfrwt>
<totfact> 0.40752153E+05</totfact>
</mgrwt>
</event>
<event>
 5    1  0.1624116E+000  0.8893736E+02  0.7546771E-02  0.1305446E+00
         21   -1    0    0  503  502  0.00000000000E+00  0.00000000000E+00  0.16208037769E+02  0.16208037769E+02  0.00000000000E+00 0.  1.
         21   -1    0    0  501  503 -0.00000000000E+00 -0.00000000000E+00 -0.55121655056E+03  0.55121655056E+03  0.00000000000E+00 0. -1.
         24    1    1    2    0    0  0.37181038736E+02  0.18240221302E+01 -0.23474509939E+03  0.25091479498E+03  0.80419002446E+02 0.  1.
          1    1    1    2  501    0  0.18343854381E+02 -0.23360841390E+02 -0.17858789658E+03  0.18104105255E+03  0.00000000000E+00 0. -1.
         -2    1    1    2    0  502 -0.55524893118E+02  0.21536819260E+02 -0.12167551682E+03  0.13546874080E+03  0.00000000000E+00 0.  1.
<mgrwt>
<rscale>  2 0.88937355E+02</rscale>
<asrwt>0</asrwt>
<pdfrwt beam="1">  1       21 0.24935440E-02 0.88937355E+02</pdfrwt>
<pdfrwt beam="2">  1       21 0.84802556E-01 0.88937355E+02</pdfrwt>
<totfact> 0.10355950E+06</totfact>
</mgrwt>
</event>
<event>
 5    1  0.1624116E+000  0.7022177E+02  0.7546771E-02  0.1359341E+00
         21   -1    0    0  501  502  0.00000000000E+00  0.00000000000E+00  0.21619254853E+02  0.21619254853E+02  0.00000000000E+00 0.  1.
         21   -1    0    0  502  503 -0.00000000000E+00 -0.00000000000E+00 -0.40643200743E+03  0.40643200743E+03  0.00000000000E+00 0.  1.
         24    1    1    2    0    0  0.14632622059E+02 -0.18867990289E+02 -0.13900374696E+03  0.16235569688E+03  0.80419002446E+02 0.  1.
          1    1    1    2  501    0 -0.19637016884E+02 -0.13482180429E+02 -0.72465429770E+01  0.24897670701E+02  0.00000000000E+00 0. -1.
         -2    1    1    2    0  503  0.50043948248E+01  0.32350170718E+02 -0.23856246263E+03  0.24079789470E+03  0.00000000000E+00 0.  1.
<mgrwt>
<rscale>  2 0.70221766E+02</rscale>
<asrwt>0</asrwt>
<pdfrwt beam="1">  1       21 0.33260396E-02 0.70221766E+02</pdfrwt>
<pdfrwt beam="2">  1       21 0.62527994E-01 0.70221766E+02</pdfrwt>
<totfact> 0.12503957E+06</totfact>
</mgrwt>
</event>
<event>
 5    1  0.1624116E+000  0.8234700E+02  0.7546771E-02  0.1322520E+00
         21   -1    0    0  503  502  0.00000000000E+00  0.00000000000E+00  0.25697498553E+03  0.25697498553E+03  0.00000000000E+00 0.  1.
         21   -1    0    0  501  503 -0.00000000000E+00 -0.00000000000E+00 -0.36980573111E+02  0.36980573111E+02  0.00000000000E+00 0.  1.
         24    1    1    2    0    0 -0.19788111639E+02  0.18415261191E+02  0.51400378104E+02  0.99196300488E+02  0.80419002446E+02 0.  1.
          1    1    1    2  501    0 -0.74837547467E+00  0.28568125446E+02  0.13881313555E+02  0.31770878542E+02  0.00000000000E+00 0. -1.
         -2    1    1    2    0  502  0.20536487113E+02 -0.46983386637E+02  0.15471272076E+03  0.16298837961E+03  0.00000000000E+00 0.  1.
<mgrwt>
<rscale>  2 0.82346997E+02</rscale>
<asrwt>0</asrwt>
<pdfrwt beam="1">  1       21 0.39534612E-01 0.82346997E+02</pdfrwt>
<pdfrwt beam="2">  1       21 0.56893191E-02 0.82346997E+02</pdfrwt>
<totfact> 0.13178288E+06</totfact>
</mgrwt>
</event>
<event>
 5    1  0.1624116E+000  0.1135699E+03  0.7546771E-02  0.1254098E+00
         21   -1    0    0  501  502  0.00000000000E+00  0.00000000000E+00  0.13497720165E+03  0.13497720165E+03  0.00000000000E+00 0. -1.
         21   -1    0    0  502  503 -0.00000000000E+00 -0.00000000000E+00 -0.12484489791E+03  0.12484489791E+03  0.00000000000E+00 0. -1.
         24    1    1    2    0    0 -0.76114847889E+02  0.58248395056E+02  0.67631401046E+02  0.14222365470E+03  0.80419002446E+02 0. -1.
          1    1    1    2  501    0  0.56025556592E+02 -0.59715478605E+02 -0.41070833053E+02  0.91605756938E+02  0.00000000000E+00 0. -1.
         -2    1    1    2    0  503  0.20089291297E+02  0.14670835494E+01 -0.16428264248E+02  0.25992687917E+02  0.00000000000E+00 0.  1.
<mgrwt>
<rscale>  2 0.11356992E+03</rscale>
<asrwt>0</asrwt>
<pdfrwt beam="1">  1       21 0.20765723E-01 0.11356992E+03</pdfrwt>
<pdfrwt beam="2">  1       21 0.19206907E-01 0.11356992E+03</pdfrwt>
<totfact> 0.53983469E+05</totfact>
</mgrwt>
</event>
<event>
 5    1  0.1624116E+000  0.1894327E+03  0.7546771E-02  0.1158974E+00
         21   -1    0    0  501  502  0.00000000000E+00  0.00000000000E+00  0.94536467636E+02  0.94536467636E+02  0.00000000000E+00 0.  1.
         21   -1    0    0  502  503 -0.00000000000E+00 -0.00000000000E+00 -0.38391187677E+03  0.38391187677E+03  0.00000000000E+00 0. -1.
         24    1    1    2    0    0  0.22807655195E+02  0.13174078917E+03 -0.12543791799E+03  0.20019418545E+03  0.80419002446E+02 0. -1.
          1    1    1    2  501    0 -0.79974995009E+02 -0.14368350758E+03 -0.10399893680E+03  0.19456805759E+03  0.00000000000E+00 0. -1.
         -2    1    1    2    0  503  0.57167339813E+02  0.11942718417E+02 -0.59938554346E+02  0.83686101365E+02  0.00000000000E+00 0.  1.
<mgrwt>
<rscale>  2 0.18943269E+03</rscale>
<asrwt>0</asrwt>
<pdfrwt beam="1">  1       21 0.14544072E-01 0.18943269E+03</pdfrwt>
<pdfrwt beam="2">  1       21 0.59063365E-01 0.18943269E+03</pdfrwt>
<totfact> 0.11134116E+05</totfact>
</mgrwt>
</event>
<event>
 5    1  0.1624116E+000  0.1192032E+03  0.7546771E-02  0.1244417E+00
         21   -1    0    0  501  502  0.00000000000E+00  0.00000000000E+00  0.35058303640E+02  0.35058303640E+02  0.00000000000E+00 0. -1.
         21   -1    0    0  502  503 -0.00000000000E+00 -0.00000000000E+00 -0.58656693706E+03  0.58656693706E+03  0.00000000000E+00 0. -1.
         24    1    1    2    0    0  0.59739138729E+02 -0.70413367235E+02 -0.27517615498E+03  0.30119086839E+03  0.80419002446E+02 0. -1.
          1    1    1    2  501    0 -0.41344914548E+02  0.83639614130E+02 -0.80302264279E+02  0.12309931218E+03  0.00000000000E+00 0. -1.
         -2    1    1    2    0  503 -0.18394224182E+02 -0.13226246895E+02 -0.19603021416E+03  0.19733506013E+03  0.00000000000E+00 0.  1.
<mgrwt>
<rscale>  2 0.11920316E+03</rscale>
<asrwt>0</asrwt>
<pdfrwt beam="1">  1       21 0.53935855E-02 0.11920316E+03</pdfrwt>
<pdfrwt beam="2">  1       21 0.90241062E-01 0.11920316E+03</pdfrwt>
<totfact> 0.25196254E+05</totfact>
</mgrwt>
</event>
<event>
 5    1  0.1624116E+000  0.1747863E+03  0.7546771E-02  0.1172946E+00
         21   -1    0    0  501  502  0.00000000000E+00  0.00000000000E+00  0.87915429681E+03  0.87915429681E+03  0.00000000000E+00 0.  1.
         21   -1    0    0  502  503 -0.00000000000E+00 -0.00000000000E+00 -0.66531773606E+02  0.66531773606E+02  0.00000000000E+00 0.  1.
         24    1    1    2    0    0 -0.10279986031E+03  0.12851143543E+03  0.70033629536E+03  0.72389304656E+03  0.80419002446E+02 0.  1.
          1    1    1    2  501    0  0.13524228885E+02 -0.33015912068E+02  0.79318028562E+02  0.86973012317E+02  0.00000000000E+00 0. -1.
         -2    1    1    2    0  503  0.89275631423E+02 -0.95495523359E+02  0.32968199291E+02  0.13482001154E+03  0.00000000000E+00 0.  1.
<mgrwt>
<rscale>  2 0.17478631E+03</rscale>
<asrwt>0</asrwt>
<pdfrwt beam="1">  1       21 0.13525450E+00 0.17478631E+03</pdfrwt>
<pdfrwt beam="2">  1       21 0.10235658E-01 0.17478631E+03</pdfrwt>
<totfact> 0.30776819E+04</totfact>
</mgrwt>
</event>
<event>
 5    1  0.1624116E+000  0.8077187E+02  0.7546771E-02  0.1326875E+00
         21   -1    0    0  503  502  0.00000000000E+00  0.00000000000E+00  0.26207731327E+03  0.26207731327E+03  0.00000000000E+00 0.  1.
         21   -1    0    0  501  503 -0.00000000000E+00 -0.00000000000E+00 -0.81102107140E+02  0.81102107140E+02  0.00000000000E+00 0. -1.
         24    1    1    2    0    0  0.16795076140E+02 -0.19471665190E+02  0.12938195921E+03  0.15449313141E+03  0.80419002446E+02 0.  1.
          1    1    1    2  501    0 -0.44882573825E+02  0.19723321762E+02 -0.57773051340E+02  0.75770576847E+02  0.00000000000E+00 0. -1.
         -2    1    1    2    0  502  0.28087497684E+02 -0.25165657161E+00  0.10936629826E+03  0.11291571216E+03  0.00000000000E+00 0.  1.
<mgrwt>
<rscale>  2 0.80771868E+02</rscale>
<asrwt>0</asrwt>
<pdfrwt beam="1">  1       21 0.40319586E-01 0.80771868E+02</pdfrwt>
<pdfrwt beam="2">  1       21 0.12477247E-01 0.80771868E+02</pdfrwt>
<totfact> 0.33091518E+05</totfact>
</mgrwt>
</event>
<event>
 5    1  0.1624116E+000  0.1212644E+03  0.7546771E-02  0.1241026E+00
         21   -1    0    0  503  502  0.00000000000E+00  0.00000000000E+00  0.45913572362E+03  0.45913572362E+03  0.00000000000E+00 0.  1.
         21   -1    0    0  501  503 -0.00000000000E+00 -0.00000000000E+00 -0.22524856342E+03  0.22524856342E+03  0.00000000000E+00 0. -1.
         24    1    1    2    0    0 -0.10688879558E+02  0.39609662628E+02 -0.48429152382E+02  0.10244889592E+03  0.80419002446E+02 0.  0.
          1    1    1    2  501    0 -0.67798918943E+01  0.55315856272E+02 -0.13897307985E+03  0.14973085124E+03  0.00000000000E+00 0. -1.
         -2    1    1    2    0  502  0.17468771453E+02 -0.94925518900E+02  0.42128939243E+03  0.43220453988E+03  0.00000000000E+00 0.  1.
<mgrwt>
<rscale>  2 0.12126441E+03</rscale>
<asrwt>0</asrwt>
<pdfrwt beam="1">  1       21 0.70636265E-01 0.12126441E+03</pdfrwt>
<pdfrwt beam="2">  1       21 0.34653625E-01 0.12126441E+03</pdfrwt>
<totfact> 0.15342164E+04</totfact>
</mgrwt>
</event>
<event>
 5    1  0.1624116E+000  0.6759918E+02  0.7546771E-02  0.1368453E+00
         21   -1    0    0  501  502  0.00000000000E+00  0.00000000000E+00  0.55597677715E+03  0.55597677715E+03  0.00000000000E+00 0.  1.
         21   -1    0    0  502  503 -0.00000000000E+00 -0.00000000000E+00 -0.98970901109E+01  0.98970901109E+01  0.00000000000E+00 0. -1.
         24    1    1    2    0    0  0.63859412565E+01 -0.12891296802E+02  0.22879849270E+03  0.24294635621E+03  0.80419002446E+02 0. -1.
          1    1    1    2  501    0 -0.29068489382E+02  0.94157382667E+01  0.24957100422E+03  0.25143452299E+03  0.00000000000E+00 0. -1.
         -2    1    1    2    0  503  0.22682548125E+02  0.34755585353E+01  0.67710190117E+02  0.71492988064E+02  0.00000000000E+00 0.  1.
<mgrwt>
<rscale>  2 0.67599177E+02</rscale>
<asrwt>0</asrwt>
<pdfrwt beam="1">  1       21 0.85534864E-01 0.67599177E+02</pdfrwt>
<pdfrwt beam="2">  1       21 0.15226297E-02 0.67599177E+02</pdfrwt>
<totfact> 0.22117514E+06</totfact>
</mgrwt>
</event>
<event>
 5    1  0.1624116E+000  0.6612903E+02  0.7546771E-02  0.1373774E+00
         21   -1    0    0  501  502  0.00000000000E+00  0.00000000000E+00  0.47743206457E+03  0.47743206457E+03  0.00000000000E+00 0.  1.
         21   -1    0    0  502  503 -0.00000000000E+00 -0.00000000000E+00 -0.12325758830E+02  0.12325758830E+02  0.00000000000E+00 0. -1.
         24    1    1    2    0    0 -0.13049421044E+01 -0.51413220743E+00  0.16067095307E+03  0.17967843032E+03  0.80419002446E+02 0. -1.
          1    1    1    2  501    0 -0.25257356666E+02 -0.95190943163E-01  0.22284930173E+03  0.22427606740E+03  0.00000000000E+00 0. -1.
         -2    1    1    2    0  503  0.26562298770E+02  0.60932315060E+00  0.81586050941E+02  0.85803325687E+02  0.00000000000E+00 0.  1.
<mgrwt>
<rscale>  2 0.66129028E+02</rscale>
<asrwt>0</asrwt>
<pdfrwt beam="1">  1       21 0.73451072E-01 0.66129028E+02</pdfrwt>
<pdfrwt beam="2">  1       21 0.18962710E-02 0.66129028E+02</pdfrwt>
<totfact> 0.21796268E+06</totfact>
</mgrwt>
</event>
<event>
 5    1  0.1624116E+000  0.6801887E+02  0.7546771E-02  0.1366963E+00
         21   -1    0    0  501  502  0.00000000000E+00  0.00000000000E+00  0.19258120930E+03  0.19258120930E+03  0.00000000000E+00 0. -1.
         21   -1    0    0  502  503 -0.00000000000E+00 -0.00000000000E+00 -0.11653336699E+03  0.11653336699E+03  0.00000000000E+00 0. -1.
         24    1    1    2    0    0 -0.11933614274E+01  0.32087371787E+02 -0.47403947673E+02  0.98718659579E+02  0.80419002446E+02 0. -1.
          1    1    1    2  501    0  0.19071395727E+02 -0.21187398309E+02  0.16309242072E+03  0.16556497721E+03  0.00000000000E+00 0. -1.
         -2    1    1    2    0  503 -0.17878034299E+02 -0.10899973478E+02 -0.39640630737E+02  0.44830939511E+02  0.00000000000E+00 0.  1.
<mgrwt>
<rscale>  2 0.68018870E+02</rscale>
<asrwt>0</asrwt>
<pdfrwt beam="1">  1       21 0.29627878E-01 0.68018870E+02</pdfrwt>
<pdfrwt beam="2">  1       21 0.17928210E-01 0.68018870E+02</pdfrwt>
<totfact> 0.31569916E+05</totfact>
</mgrwt>
</event>
<event>
 5    1  0.1624116E+000  0.9051354E+02  0.7546771E-02  0.1301613E+00
         21   -1    0    0  503  502  0.00000000000E+00  0.00000000000E+00  0.23981658547E+02  0.23981658547E+02  0.00000000000E+00 0.  1.
         21   -1    0    0  501  503 -0.00000000000E+00 -0.00000000000E+00 -0.16187988720E+04  0.16187988720E+04  0.00000000000E+00 0. -1.
         24    1    1    2    0    0 -0.14917056771E+02 -0.69150127725E+02 -0.17350717972E+03  0.20390246717E+03  0.80419002446E+02 0. -1.
          1    1    1    2  501    0  0.19856060283E+02  0.43732892092E+02 -0.14096722978E+04  0.14104902752E+04  0.00000000000E+00 0. -1.
         -2    1    1    2    0  502 -0.49390035127E+01  0.25417235633E+02 -0.11637735853E+02  0.28387788197E+02  0.00000000000E+00 0.  1.
<mgrwt>
<rscale>  2 0.90513543E+02</rscale>
<asrwt>0</asrwt>
<pdfrwt beam="1">  1       21 0.36894854E-02 0.90513543E+02</pdfrwt>
<pdfrwt beam="2">  1       21 0.24904602E+00 0.90513543E+02</pdfrwt>
<totfact> 0.33689279E+04</totfact>
</mgrwt>
</event>
<event>
 5    1  0.1624116E+000  0.1013240E+03  0.7546771E-02  0.1277536E+00
         21   -1    0    0  503  502  0.00000000000E+00  0.00000000000E+00  0.12202247948E+03  0.12202247948E+03  0.00000000000E+00 0.  1.
         21   -1    0    0  501  503 -0.00000000000E+00 -0.00000000000E+00 -0.20144386306E+03  0.20144386306E+03  0.00000000000E+00 0.  1.
         24    1    1    2    0    0  0.45931418507E+02  0.59364054295E+02 -0.78343728633E+02  0.13505088641E+03  0.80419002446E+02 0.  0.
          1    1    1    2  501    0 -0.31017698974E+02  0.42684978347E+00 -0.81438981971E+02  0.87146931299E+02  0.00000000000E+00 0. -1.
         -2    1    1    2    0  502 -0.14913719533E+02 -0.59790904079E+02  0.80361327021E+02  0.10126852483E+03  0.00000000000E+00 0.  1.
<mgrwt>
<rscale>  2 0.10132400E+03</rscale>
<asrwt>0</asrwt>
<pdfrwt beam="1">  1       21 0.18772689E-01 0.10132400E+03</pdfrwt>
<pdfrwt beam="2">  1       21 0.30991363E-01 0.10132400E+03</pdfrwt>
<totfact> 0.26508568E+05</totfact>
</mgrwt>
</event>
<event>
 5    1  0.1624116E+000  0.8622243E+02  0.7546771E-02  0.1312266E+00
         21   -1    0    0  501  502  0.00000000000E+00  0.00000000000E+00  0.85414714821E+02  0.85414714821E+02  0.00000000000E+00 0. -1.
         21   -1    0    0  502  503 -0.00000000000E+00 -0.00000000000E+00 -0.72958229501E+03  0.72958229501E+03  0.00000000000E+00 0.  1.
         24    1    1    2    0    0  0.37818223436E+02  0.24180390318E+02 -0.63823656593E+03  0.64484729925E+03  0.80419002446E+02 0.  1.
          1    1    1    2  501    0 -0.23023899428E+02 -0.47467842204E+02  0.70980557856E+02  0.88439445848E+02  0.00000000000E+00 0. -1.
         -2    1    1    2    0  503 -0.14794324008E+02  0.23287451887E+02 -0.76911572110E+02  0.81710264733E+02  0.00000000000E+00 0.  1.
<mgrwt>
<rscale>  2 0.86222425E+02</rscale>
<asrwt>0</asrwt>
<pdfrwt beam="1">  1       21 0.13140725E-01 0.86222425E+02</pdfrwt>
<pdfrwt beam="2">  1       21 0.11224343E+00 0.86222425E+02</pdfrwt>
<totfact> 0.33403695E+04</totfact>
</mgrwt>
</event>
<event>
 5    1  0.1624116E+000  0.7244871E+02  0.7546771E-02  0.1351959E+00
         21   -1    0    0  503  502  0.00000000000E+00  0.00000000000E+00  0.96271704437E+01  0.96271704437E+01  0.00000000000E+00 0. -1.
         21   -1    0    0  501  503 -0.00000000000E+00 -0.00000000000E+00 -0.55812440276E+03  0.55812440276E+03  0.00000000000E+00 0.  1.
         24    1    1    2    0    0 -0.23603515634E+02 -0.42513794835E+02 -0.33061531941E+03  0.34371245843E+03  0.80419002446E+02 0. -1.
          1    1    1    2  501    0  0.17473660547E+02  0.15951938831E+02 -0.12585444918E+03  0.12805910957E+03  0.00000000000E+00 0. -1.
         -2    1    1    2    0  502  0.61298550872E+01  0.26561856004E+02 -0.92027463723E+02  0.95980005194E+02  0.00000000000E+00 0.  1.
<mgrwt>
<rscale>  2 0.72448706E+02</rscale>
<asrwt>0</asrwt>
<pdfrwt beam="1">  1       21 0.14811028E-02 0.72448706E+02</pdfrwt>
<pdfrwt beam="2">  1       21 0.85865310E-01 0.72448706E+02</pdfrwt>
<totfact> 0.22970572E+06</totfact>
</mgrwt>
</event>
<event>
 5    1  0.1624116E+000  0.1005168E+03  0.7546771E-02  0.1279213E+00
         21   -1    0    0  503  502  0.00000000000E+00  0.00000000000E+00  0.10343840126E+04  0.10343840126E+04  0.00000000000E+00 0. -1.
         21   -1    0    0  501  503 -0.00000000000E+00 -0.00000000000E+00 -0.10017532354E+02  0.10017532354E+02  0.00000000000E+00 0. -1.
         24    1    1    2    0    0  0.45775949617E+02 -0.22127122115E+02  0.50391388296E+03  0.51281718428E+03  0.80419002446E+02 0. -1.
          1    1    1    2  501    0 -0.54172667369E+02  0.51860136506E+02  0.41405451100E+03  0.42079126622E+03  0.00000000000E+00 0. -1.
         -2    1    1    2    0  502  0.83967177512E+01 -0.29733014391E+02  0.10639808631E+03  0.11079309448E+03  0.00000000000E+00 0.  1.
<mgrwt>
<rscale>  2 0.10051682E+03</rscale>
<asrwt>0</asrwt>
<pdfrwt beam="1">  1       21 0.15913592E+00 0.10051682E+03</pdfrwt>
<pdfrwt beam="2">  1       21 0.15411596E-02 0.10051682E+03</pdfrwt>
<totfact> 0.49272031E+05</totfact>
</mgrwt>
</event>
<event>
 5    1  0.1624116E+000  0.6793512E+02  0.7546771E-02  0.1367259E+00
         21   -1    0    0  503  502  0.00000000000E+00  0.00000000000E+00  0.11225916218E+04  0.11225916218E+04  0.00000000000E+00 0.  1.
         21   -1    0    0  501  503 -0.00000000000E+00 -0.00000000000E+00 -0.75118889477E+01  0.75118889477E+01  0.00000000000E+00 0.  1.
         24    1    1    2    0    0  0.17729465938E+02  0.55910030851E+01  0.29884528324E+03  0.31003437317E+03  0.80419002446E+02 0.  1.
          1    1    1    2  501    0  0.28153786736E+01  0.20178290128E+02  0.65135871155E+02  0.68247867810E+02  0.00000000000E+00 0. -1.
         -2    1    1    2    0  502 -0.20544844612E+02 -0.25769293213E+02  0.75109857843E+03  0.75182126973E+03  0.00000000000E+00 0.  1.
<mgrwt>
<rscale>  2 0.67935120E+02</rscale>
<asrwt>0</asrwt>
<pdfrwt beam="1">  1       21 0.17270627E+00 0.67935120E+02</pdfrwt>
<pdfrwt beam="2">  1       21 0.11556761E-02 0.67935120E+02</pdfrwt>
<totfact> 0.63152075E+05</totfact>
</mgrwt>
</event>
<event>
 5    1  0.1624116E+000  0.1037111E+03  0.7546771E-02  0.1272680E+00
         21   -1    0    0  503  502  0.00000000000E+00  0.00000000000E+00  0.80391661266E+02  0.80391661266E+02  0.00000000000E+00 0. -1.
         21   -1    0    0  501  503 -0.00000000000E+00 -0.00000000000E+00 -0.19011890991E+03  0.19011890991E+03  0.00000000000E+00 0. -1.
         24    1    1    2    0    0 -0.16940892756E+02  0.80423810782E+02 -0.98065708969E+02  0.15112604811E+03  0.80419002446E+02 0. -1.
          1    1    1    2  501    0 -0.39419534304E+01 -0.68043403940E+02 -0.42358726175E+02  0.80247775668E+02  0.00000000000E+00 0. -1.
         -2    1    1    2    0  502  0.20882846186E+02 -0.12380406842E+02  0.30697186495E+02  0.39136747401E+02  0.00000000000E+00 0.  1.
<mgrwt>
<rscale>  2 0.10371111E+03</rscale>
<asrwt>0</asrwt>
<pdfrwt beam="1">  1       21 0.12367948E-01 0.10371111E+03</pdfrwt>
<pdfrwt beam="2">  1       21 0.29249063E-01 0.10371111E+03</pdfrwt>
<totfact> 0.62613612E+05</totfact>
</mgrwt>
</event>
<event>
 5    1  0.1624116E+000  0.1388897E+03  0.7546771E-02  0.1214831E+00
         21   -1    0    0  501  502  0.00000000000E+00  0.00000000000E+00  0.21241046056E+03  0.21241046056E+03  0.00000000000E+00 0. -1.
         21   -1    0    0  502  503 -0.00000000000E+00 -0.00000000000E+00 -0.14502735124E+03  0.14502735124E+03  0.00000000000E+00 0. -1.
         24    1    1    2    0    0  0.11417725813E+03  0.47735961216E+02 -0.53931217884E+02  0.15713357529E+03  0.80419002446E+02 0. -1.
          1    1    1    2  501    0 -0.81767835525E+02 -0.52878166793E+02  0.13355159574E+03  0.16528190516E+03  0.00000000000E+00 0. -1.
         -2    1    1    2    0  503 -0.32409422606E+02  0.51422055762E+01 -0.12237268538E+02  0.35022331349E+02  0.00000000000E+00 0.  1.
<mgrwt>
<rscale>  2 0.13888968E+03</rscale>
<asrwt>0</asrwt>
<pdfrwt beam="1">  1       21 0.32678532E-01 0.13888968E+03</pdfrwt>
<pdfrwt beam="2">  1       21 0.22311900E-01 0.13888968E+03</pdfrwt>
<totfact> 0.17215386E+05</totfact>
</mgrwt>
</event>
<event>
 5    1  0.1624116E+000  0.2346182E+03  0.7546771E-02  0.1123431E+00
         21   -1    0    0  501  502  0.00000000000E+00  0.00000000000E+00  0.27725788166E+03  0.27725788166E+03  0.00000000000E+00 0. -1.
         21   -1    0    0  502  503 -0.00000000000E+00 -0.00000000000E+00 -0.14959897904E+04  0.14959897904E+04  0.00000000000E+00 0.  1.
         24    1    1    2    0    0 -0.66494624774E+02  0.65827493184E+02 -0.42359271569E+02  0.13044660910E+03  0.80419002446E+02 0. -1.
          1    1    1    2  501    0  0.12765495614E+03 -0.17743987233E+03  0.17834832916E+03  0.28211491034E+03  0.00000000000E+00 0. -1.
         -2    1    1    2    0  503 -0.61160331364E+02  0.11161237915E+03 -0.13547209663E+04  0.13606861526E+04  0.00000000000E+00 0.  1.
<mgrwt>
<rscale>  2 0.23461824E+03</rscale>
<asrwt>0</asrwt>
<pdfrwt beam="1">  1       21 0.42655058E-01 0.23461824E+03</pdfrwt>
<pdfrwt beam="2">  1       21 0.23015228E+00 0.23461824E+03</pdfrwt>
<totfact> 0.43892303E+02</totfact>
</mgrwt>
</event>
<event>
 5    1  0.1624116E+000  0.1357611E+03  0.7546771E-02  0.1219149E+00
         21   -1    0    0  503  502  0.00000000000E+00  0.00000000000E+00  0.49881084170E+02  0.49881084170E+02  0.00000000000E+00 0.  1.
         21   -1    0    0  501  503 -0.00000000000E+00 -0.00000000000E+00 -0.54603506667E+03  0.54603506667E+03  0.00000000000E+00 0. -1.
         24    1    1    2    0    0  0.56126445628E+02 -0.52457052894E+02 -0.73228802640E+02  0.13316003074E+03  0.80419002446E+02 0. -1.
          1    1    1    2  501    0 -0.99496747085E+02  0.10648544314E+02 -0.36756118111E+03  0.38093859877E+03  0.00000000000E+00 0. -1.
         -2    1    1    2    0  502  0.43370301457E+02  0.41808508580E+02 -0.55363998753E+02  0.81817521327E+02  0.00000000000E+00 0.  1.
<mgrwt>
<rscale>  2 0.13576110E+03</rscale>
<asrwt>0</asrwt>
<pdfrwt beam="1">  1       21 0.76740132E-02 0.13576110E+03</pdfrwt>
<pdfrwt beam="2">  1       21 0.84005392E-01 0.13576110E+03</pdfrwt>
<totfact> 0.16185049E+05</totfact>
</mgrwt>
</event>
<event>
 5    1  0.1624116E+000  0.9148873E+02  0.7546771E-02  0.1299286E+00
         21   -1    0    0  501  502  0.00000000000E+00  0.00000000000E+00  0.38343860730E+02  0.38343860730E+02  0.00000000000E+00 0. -1.
         21   -1    0    0  502  503 -0.00000000000E+00 -0.00000000000E+00 -0.34337122789E+03  0.34337122789E+03  0.00000000000E+00 0. -1.
         24    1    1    2    0    0 -0.45405290513E+02 -0.44425327052E+02 -0.53593577776E+02  0.11564920070E+03  0.80419002446E+02 0. -1.
          1    1    1    2  501    0  0.41198458518E+02  0.57562000023E+01 -0.78819746024E+02  0.89123505239E+02  0.00000000000E+00 0. -1.
         -2    1    1    2    0  503  0.42068319951E+01  0.38669127050E+02 -0.17261404336E+03  0.17694238268E+03  0.00000000000E+00 0.  1.
<mgrwt>
<rscale>  2 0.91488733E+02</rscale>
<asrwt>0</asrwt>
<pdfrwt beam="1">  1       21 0.58990551E-02 0.91488733E+02</pdfrwt>
<pdfrwt beam="2">  1       21 0.52826346E-01 0.91488733E+02</pdfrwt>
<totfact> 0.69319492E+05</totfact>
</mgrwt>
</event>
<event>
 5    1  0.1624116E+000  0.1143991E+03  0.7546771E-02  0.1252634E+00
         21   -1    0    0  501  502  0.00000000000E+00  0.00000000000E+00  0.23326094755E+02  0.23326094755E+02  0.00000000000E+00 0. -1.
         21   -1    0    0  502  503 -0.00000000000E+00 -0.00000000000E+00 -0.67248791684E+03  0.67248791684E+03  0.00000000000E+00 0.  1.
         24    1    1    2    0    0  0.77704949327E+02  0.52788267539E+01 -0.39364132705E+03  0.40925131090E+03  0.80419002446E+02 0.  1.
          1    1    1    2  501    0  0.56676011632E+01  0.26891825844E+02 -0.18168845751E+02  0.32945393549E+02  0.00000000000E+00 0. -1.
         -2    1    1    2    0  503 -0.83372550491E+02 -0.32170652598E+02 -0.23735164929E+03  0.25361730715E+03  0.00000000000E+00 0.  1.
<mgrwt>
<rscale>  2 0.11439907E+03</rscale>
<asrwt>0</asrwt>
<pdfrwt beam="1">  1       21 0.35886299E-02 0.11439907E+03</pdfrwt>
<pdfrwt beam="2">  1       21 0.10345968E+00 0.11439907E+03</pdfrwt>
<totfact> 0.36223628E+05</totfact>
</mgrwt>
</event>
<event>
 5    1  0.1624116E+000  0.6861121E+02  0.7546771E-02  0.1364880E+00
         21   -1    0    0  501  502  0.00000000000E+00  0.00000000000E+00  0.28460733851E+03  0.28460733851E+03  0.00000000000E+00 0. -1.
         21   -1    0    0  502  503 -0.00000000000E+00 -0.00000000000E+00 -0.68857757084E+02  0.68857757084E+02  0.00000000000E+00 0.  1.
         24    1    1    2    0    0 -0.11920586248E+01  0.15937437747E+02  0.44113259818E+02  0.93105416448E+02  0.80419002446E+02 0. -1.
          1    1    1    2  501    0 -0.73363688291E+01 -0.34251444309E+02  0.21218507128E+03  0.21505694180E+03  0.00000000000E+00 0. -1.
         -2    1    1    2    0  503  0.85284274539E+01  0.18314006562E+02 -0.40548749669E+02  0.45302737344E+02  0.00000000000E+00 0.  1.
<mgrwt>
<rscale>  2 0.68611213E+02</rscale>
<asrwt>0</asrwt>
<pdfrwt beam="1">  1       21 0.43785744E-01 0.68611213E+02</pdfrwt>
<pdfrwt beam="2">  1       21 0.10593501E-01 0.68611213E+02</pdfrwt>
<totfact> 0.37398254E+05</totfact>
</mgrwt>
</event>
<event>
 5    1  0.1624116E+000  0.7849769E+02  0.7546771E-02  0.1333370E+00
         21   -1    0    0  503  502  0.00000000000E+00  0.00000000000E+00  0.15681582872E+03  0.15681582872E+03  0.00000000000E+00 0.  1.
         21   -1    0    0  501  503 -0.00000000000E+00 -0.00000000000E+00 -0.69350655593E+02  0.69350655593E+02  0.00000000000E+00 0. -1.
         24    1    1    2    0    0  0.39952739453E+02 -0.39426078311E+02  0.12024598960E+03  0.15516749341E+03  0.80419002446E+02 0.  1.
          1    1    1    2  501    0 -0.26074709965E+02  0.13136364441E+02 -0.28790906332E+02  0.41004522408E+02  0.00000000000E+00 0. -1.
         -2    1    1    2    0  502 -0.13878029488E+02  0.26289713871E+02 -0.39899101368E+01  0.29994468503E+02  0.00000000000E+00 0.  1.
<mgrwt>
<rscale>  2 0.78497695E+02</rscale>
<asrwt>0</asrwt>
<pdfrwt beam="1">  1       21 0.24125512E-01 0.78497695E+02</pdfrwt>
<pdfrwt beam="2">  1       21 0.10669332E-01 0.78497695E+02</pdfrwt>
<totfact> 0.11605357E+06</totfact>
</mgrwt>
</event>
<event>
 5    1  0.1624116E+000  0.9012186E+02  0.7546771E-02  0.1302557E+00
         21   -1    0    0  501  502  0.00000000000E+00  0.00000000000E+00  0.71372470953E+02  0.71372470953E+02  0.00000000000E+00 0. -1.
         21   -1    0    0  502  503 -0.00000000000E+00 -0.00000000000E+00 -0.32476853012E+03  0.32476853012E+03  0.00000000000E+00 0.  1.
         24    1    1    2    0    0  0.28072811029E+02  0.34996792205E+02 -0.95629983872E+02  0.13275981302E+03  0.80419002446E+02 0.  1.
          1    1    1    2  501    0  0.24610725199E+02 -0.23922272411E+02  0.43288646286E+02  0.55243730951E+02  0.00000000000E+00 0. -1.
         -2    1    1    2    0  503 -0.52683536228E+02 -0.11074519794E+02 -0.20105472158E+03  0.20813745710E+03  0.00000000000E+00 0.  1.
<mgrwt>
<rscale>  2 0.90121858E+02</rscale>
<asrwt>0</asrwt>
<pdfrwt beam="1">  1       21 0.10980380E-01 0.90121858E+02</pdfrwt>
<pdfrwt beam="2">  1       21 0.49964389E-01 0.90121858E+02</pdfrwt>
<totfact> 0.26860378E+05</totfact>
</mgrwt>
</event>
<event>
 5    1  0.1624116E+000  0.9865493E+02  0.7546771E-02  0.1283150E+00
         21   -1    0    0  501  502  0.00000000000E+00  0.00000000000E+00  0.16070289703E+03  0.16070289703E+03  0.00000000000E+00 0. -1.
         21   -1    0    0  502  503 -0.00000000000E+00 -0.00000000000E+00 -0.59638902152E+03  0.59638902152E+03  0.00000000000E+00 0.  1.
         24    1    1    2    0    0  0.50803663439E+02  0.42940580936E+02 -0.80811356709E+02  0.13199468564E+03  0.80419002446E+02 0.  0.
          1    1    1    2  501    0 -0.39382550164E+02  0.84679101102E+01  0.13065295224E+03  0.13672192468E+03  0.00000000000E+00 0. -1.
         -2    1    1    2    0  503 -0.11421113275E+02 -0.51408491046E+02 -0.48552772002E+03  0.48837530823E+03  0.00000000000E+00 0.  1.
<mgrwt>
<rscale>  2 0.98654927E+02</rscale>
<asrwt>0</asrwt>
<pdfrwt beam="1">  1       21 0.24723522E-01 0.98654927E+02</pdfrwt>
<pdfrwt beam="2">  1       21 0.91752158E-01 0.98654927E+02</pdfrwt>
<totfact> 0.16715028E+04</totfact>
</mgrwt>
</event>
<event>
 5    1  0.1624116E+000  0.1068353E+03  0.7546771E-02  0.1266545E+00
         21   -1    0    0  503  502  0.00000000000E+00  0.00000000000E+00  0.14535959425E+03  0.14535959425E+03  0.00000000000E+00 0.  1.
         21   -1    0    0  501  503 -0.00000000000E+00 -0.00000000000E+00 -0.11679038567E+03  0.11679038567E+03  0.00000000000E+00 0. -1.
         24    1    1    2    0    0  0.22625630955E+02 -0.95398635586E-01 -0.80189598762E+01  0.83925252153E+02  0.80419002446E+02 0.  0.
          1    1    1    2  501    0  0.13360724482E+02  0.59332437531E+02 -0.41640886767E+02  0.73707601730E+02  0.00000000000E+00 0. -1.
         -2    1    1    2    0  502 -0.35986355438E+02 -0.59237038896E+02  0.78229055219E+02  0.10451712604E+03  0.00000000000E+00 0.  1.
<mgrwt>
<rscale>  2 0.10683532E+03</rscale>
<asrwt>0</asrwt>
<pdfrwt beam="1">  1       21 0.22363014E-01 0.10683532E+03</pdfrwt>
<pdfrwt beam="2">  1       21 0.17967752E-01 0.10683532E+03</pdfrwt>
<totfact> 0.53167140E+05</totfact>
</mgrwt>
</event>
<event>
 5    1  0.1624116E+000  0.8347441E+02  0.7546771E-02  0.1319471E+00
         21   -1    0    0  501  502  0.00000000000E+00  0.00000000000E+00  0.87786976266E+02  0.87786976266E+02  0.00000000000E+00 0. -1.
         21   -1    0    0  502  503 -0.00000000000E+00 -0.00000000000E+00 -0.63793437687E+03  0.63793437687E+03  0.00000000000E+00 0. -1.
         24    1    1    2    0    0 -0.51927933426E+02 -0.28204999007E+02 -0.34668820810E+03  0.36076579914E+03  0.80419002446E+02 0. -1.
          1    1    1    2  501    0  0.10408202156E+02  0.23079530624E+02  0.77174228767E+02  0.81221037864E+02  0.00000000000E+00 0. -1.
         -2    1    1    2    0  503  0.41519731270E+02  0.51254683828E+01 -0.28063342127E+03  0.28373451613E+03  0.00000000000E+00 0.  1.
<mgrwt>
<rscale>  2 0.83474408E+02</rscale>
<asrwt>0</asrwt>
<pdfrwt beam="1">  1       21 0.13505689E-01 0.83474408E+02</pdfrwt>
<pdfrwt beam="2">  1       21 0.98143750E-01 0.83474408E+02</pdfrwt>
<totfact> 0.43645313E+04</totfact>
</mgrwt>
</event>
<event>
 5    1  0.1624116E+000  0.7920417E+02  0.7546771E-02  0.1331325E+00
         21   -1    0    0  503  502  0.00000000000E+00  0.00000000000E+00  0.18330374093E+02  0.18330374093E+02  0.00000000000E+00 0.  1.
         21   -1    0    0  501  503 -0.00000000000E+00 -0.00000000000E+00 -0.85205685873E+03  0.85205685873E+03  0.00000000000E+00 0.  1.
         24    1    1    2    0    0 -0.38990241298E+02 -0.43592016098E+02 -0.58409835569E+03  0.59250198975E+03  0.80419002446E+02 0.  1.
          1    1    1    2  501    0  0.23705377523E+02  0.20849503206E+02 -0.24846117413E+03  0.25045878255E+03  0.00000000000E+00 0. -1.
         -2    1    1    2    0  502  0.15284863774E+02  0.22742512893E+02 -0.11669548206E+01  0.27426460523E+02  0.00000000000E+00 0.  1.
<mgrwt>
<rscale>  2 0.79204172E+02</rscale>
<asrwt>0</asrwt>
<pdfrwt beam="1">  1       21 0.28200575E-02 0.79204172E+02</pdfrwt>
<pdfrwt beam="2">  1       21 0.13108567E+00 0.79204172E+02</pdfrwt>
<totfact> 0.30741108E+05</totfact>
</mgrwt>
</event>
<event>
 5    1  0.1624116E+000  0.1034951E+03  0.7546771E-02  0.1273113E+00
         21   -1    0    0  501  502  0.00000000000E+00  0.00000000000E+00  0.69447261883E+02  0.69447261883E+02  0.00000000000E+00 0.  1.
         21   -1    0    0  502  503 -0.00000000000E+00 -0.00000000000E+00 -0.32031810866E+03  0.32031810866E+03  0.00000000000E+00 0.  1.
         24    1    1    2    0    0  0.21557626291E+02  0.69797559222E+02  0.65932307552E+01  0.10884446321E+03  0.80419002446E+02 0.  1.
          1    1    1    2  501    0 -0.19151056425E+01 -0.77296510773E+02 -0.12634321343E+03  0.14812503430E+03  0.00000000000E+00 0. -1.
         -2    1    1    2    0  503 -0.19642520649E+02  0.74989515504E+01 -0.13112086411E+03  0.13279587304E+03  0.00000000000E+00 0.  1.
<mgrwt>
<rscale>  2 0.10349506E+03</rscale>
<asrwt>0</asrwt>
<pdfrwt beam="1">  1       21 0.10684194E-01 0.10349506E+03</pdfrwt>
<pdfrwt beam="2">  1       21 0.49279709E-01 0.10349506E+03</pdfrwt>
<totfact> 0.28896197E+05</totfact>
</mgrwt>
</event>
<event>
 5    1  0.1624116E+000  0.1383618E+03  0.7546771E-02  0.1215550E+00
         21   -1    0    0  501  502  0.00000000000E+00  0.00000000000E+00  0.12049824305E+04  0.12049824305E+04  0.00000000000E+00 0. -1.
         21   -1    0    0  502  503 -0.00000000000E+00 -0.00000000000E+00 -0.55427659065E+02  0.55427659065E+02  0.00000000000E+00 0.  1.
         24    1    1    2    0    0 -0.61916196323E+02  0.81576114239E+02  0.42124754937E+02  0.13685754899E+03  0.80419002446E+02 0.  1.
          1    1    1    2  501    0  0.27027189456E+02  0.23486501645E+02  0.71252369697E+03  0.71342280835E+03  0.00000000000E+00 0. -1.
         -2    1    1    2    0  503  0.34889006867E+02 -0.10506261588E+03  0.39490631956E+03  0.41012973226E+03  0.00000000000E+00 0.  1.
<mgrwt>
<rscale>  2 0.13836178E+03</rscale>
<asrwt>0</asrwt>
<pdfrwt beam="1">  1       21 0.18538189E+00 0.13836178E+03</pdfrwt>
<pdfrwt beam="2">  1       21 0.85273331E-02 0.13836178E+03</pdfrwt>
<totfact> 0.18776426E+04</totfact>
</mgrwt>
</event>
<event>
 5    1  0.1624116E+000  0.7937036E+02  0.7546771E-02  0.1330848E+00
         21   -1    0    0  503  502  0.00000000000E+00  0.00000000000E+00  0.38168759404E+02  0.38168759404E+02  0.00000000000E+00 0. -1.
         21   -1    0    0  501  503 -0.00000000000E+00 -0.00000000000E+00 -0.52298713380E+03  0.52298713380E+03  0.00000000000E+00 0. -1.
         24    1    1    2    0    0  0.29298108148E+01 -0.30806175844E+02 -0.47350774019E+02  0.98320476077E+02  0.80419002446E+02 0. -1.
          1    1    1    2  501    0  0.41153088566E+01 -0.20437452397E+02 -0.39597705009E+03  0.39652547134E+03  0.00000000000E+00 0. -1.
         -2    1    1    2    0  502 -0.70451196714E+01  0.51243628241E+02 -0.41490550289E+02  0.66309945783E+02  0.00000000000E+00 0.  1.
<mgrwt>
<rscale>  2 0.79370358E+02</rscale>
<asrwt>0</asrwt>
<pdfrwt beam="1">  1       21 0.58721171E-02 0.79370358E+02</pdfrwt>
<pdfrwt beam="2">  1       21 0.80459556E-01 0.79370358E+02</pdfrwt>
<totfact> 0.28551380E+05</totfact>
</mgrwt>
</event>
<event>
 5    1  0.1624116E+000  0.7384866E+02  0.7546771E-02  0.1347474E+00
         21   -1    0    0  503  502  0.00000000000E+00  0.00000000000E+00  0.73336988513E+02  0.73336988513E+02  0.00000000000E+00 0. -1.
         21   -1    0    0  501  503 -0.00000000000E+00 -0.00000000000E+00 -0.20571680227E+03  0.20571680227E+03  0.00000000000E+00 0. -1.
         24    1    1    2    0    0  0.18273465672E+02  0.12653775788E+02  0.40968382277E+02  0.92949781550E+02  0.80419002446E+02 0. -1.
          1    1    1    2  501    0  0.21156405378E+02 -0.13000945383E+02 -0.97572833735E+02  0.10068304700E+03  0.00000000000E+00 0. -1.
         -2    1    1    2    0  502 -0.39429871051E+02  0.34716959448E+00 -0.75775362300E+02  0.85420962237E+02  0.00000000000E+00 0.  1.
<mgrwt>
<rscale>  2 0.73848661E+02</rscale>
<asrwt>0</asrwt>
<pdfrwt beam="1">  1       21 0.11282614E-01 0.73848661E+02</pdfrwt>
<pdfrwt beam="2">  1       21 0.31648739E-01 0.73848661E+02</pdfrwt>
<totfact> 0.63110993E+05</totfact>
</mgrwt>
</event>
<event>
 5    1  0.1624116E+000  0.7194631E+02  0.7546771E-02  0.1353597E+00
         21   -1    0    0  503  502  0.00000000000E+00  0.00000000000E+00  0.14359514846E+02  0.14359514846E+02  0.00000000000E+00 0.  1.
         21   -1    0    0  501  503 -0.00000000000E+00 -0.00000000000E+00 -0.16359022015E+04  0.16359022015E+04  0.00000000000E+00 0.  1.
         24    1    1    2    0    0  0.24191079459E+02  0.13986316593E+02 -0.64971376141E+03  0.65526789414E+03  0.80419002446E+02 0.  1.
          1    1    1    2  501    0 -0.13186318380E+02 -0.33695530291E+02 -0.97174685068E+03  0.97242028442E+03  0.00000000000E+00 0. -1.
         -2    1    1    2    0  502 -0.11004761079E+02  0.19709213698E+02 -0.82074551773E-01  0.22573537765E+02  0.00000000000E+00 0.  1.
<mgrwt>
<rscale>  2 0.71946312E+02</rscale>
<asrwt>0</asrwt>
<pdfrwt beam="1">  1       21 0.22091575E-02 0.71946312E+02</pdfrwt>
<pdfrwt beam="2">  1       21 0.25167711E+00 0.71946312E+02</pdfrwt>
<totfact> 0.76937847E+04</totfact>
</mgrwt>
</event>
<event>
 5    1  0.1624116E+000  0.1000242E+03  0.7546771E-02  0.1280245E+00
         21   -1    0    0  501  502  0.00000000000E+00  0.00000000000E+00  0.22092057339E+02  0.22092057339E+02  0.00000000000E+00 0. -1.
         21   -1    0    0  502  503 -0.00000000000E+00 -0.00000000000E+00 -0.99858556719E+03  0.99858556719E+03  0.00000000000E+00 0.  1.
         24    1    1    2    0    0 -0.18640616928E+02 -0.65487586290E+02 -0.70470280862E+03  0.71253726989E+03  0.80419002446E+02 0.  1.
          1    1    1    2  501    0 -0.23265111983E+02  0.38010832652E+02 -0.15788154714E+02  0.47279537474E+02  0.00000000000E+00 0. -1.
         -2    1    1    2    0  503  0.41905728910E+02  0.27476753637E+02 -0.25600254652E+03  0.26086081716E+03  0.00000000000E+00 0.  1.
<mgrwt>
<rscale>  2 0.10002416E+03</rscale>
<asrwt>0</asrwt>
<pdfrwt beam="1">  1       21 0.33987794E-02 0.10002416E+03</pdfrwt>
<pdfrwt beam="2">  1       21 0.15362849E+00 0.10002416E+03</pdfrwt>
<totfact> 0.15084076E+05</totfact>
</mgrwt>
</event>
<event>
 5    1  0.1624116E+000  0.1268545E+03  0.7546771E-02  0.1232199E+00
         21   -1    0    0  503  502  0.00000000000E+00  0.00000000000E+00  0.39761326216E+03  0.39761326216E+03  0.00000000000E+00 0.  1.
         21   -1    0    0  501  503 -0.00000000000E+00 -0.00000000000E+00 -0.15255161431E+03  0.15255161431E+03  0.00000000000E+00 0.  1.
         24    1    1    2    0    0 -0.63639868757E+02 -0.87906775401E+02 -0.45771520848E+02  0.14261795866E+03  0.80419002446E+02 0.  1.
          1    1    1    2  501    0  0.40280577534E+02  0.86280136065E+02 -0.18776276849E+02  0.97053260523E+02  0.00000000000E+00 0. -1.
         -2    1    1    2    0  502  0.23359291223E+02  0.16266393361E+01  0.30960944555E+03  0.31049365729E+03  0.00000000000E+00 0.  1.
<mgrwt>
<rscale>  2 0.12685452E+03</rscale>
<asrwt>0</asrwt>
<pdfrwt beam="1">  1       21 0.61171271E-01 0.12685452E+03</pdfrwt>
<pdfrwt beam="2">  1       21 0.23469479E-01 0.12685452E+03</pdfrwt>
<totfact> 0.43958970E+04</totfact>
</mgrwt>
</event>
<event>
 5    1  0.1624116E+000  0.6530993E+02  0.7546771E-02  0.1376809E+00
         21   -1    0    0  501  502  0.00000000000E+00  0.00000000000E+00  0.29632221049E+03  0.29632221049E+03  0.00000000000E+00 0.  1.
         21   -1    0    0  502  503 -0.00000000000E+00 -0.00000000000E+00 -0.16585486739E+02  0.16585486739E+02  0.00000000000E+00 0. -1.
         24    1    1    2    0    0 -0.37092398115E+01  0.52811585651E+01  0.11312673702E+03  0.13894791714E+03  0.80419002446E+02 0. -1.
          1    1    1    2  501    0  0.23702612740E+02 -0.14647990161E+02  0.98066113437E+02  0.10194773206E+03  0.00000000000E+00 0. -1.
         -2    1    1    2    0  503 -0.19993372929E+02  0.93668315957E+01  0.68543873294E+02  0.72012048029E+02  0.00000000000E+00 0.  1.
<mgrwt>
<rscale>  2 0.65309934E+02</rscale>
<asrwt>0</asrwt>
<pdfrwt beam="1">  1       21 0.45588028E-01 0.65309934E+02</pdfrwt>
<pdfrwt beam="2">  1       21 0.25516136E-02 0.65309934E+02</pdfrwt>
<totfact> 0.36443923E+06</totfact>
</mgrwt>
</event>
<event>
 5    1  0.1624116E+000  0.8046149E+02  0.7546771E-02  0.1327747E+00
         21   -1    0    0  503  502  0.00000000000E+00  0.00000000000E+00  0.18869142556E+02  0.18869142556E+02  0.00000000000E+00 0.  1.
         21   -1    0    0  501  503 -0.00000000000E+00 -0.00000000000E+00 -0.35404857875E+03  0.35404857875E+03  0.00000000000E+00 0. -1.
         24    1    1    2    0    0  0.32767021164E+02 -0.29460002314E+01 -0.14874011460E+03  0.17225909044E+03  0.80419002446E+02 0.  1.
          1    1    1    2  501    0 -0.83648121659E+01  0.33730211569E+02 -0.94030135259E+02  0.10024651411E+03  0.00000000000E+00 0. -1.
         -2    1    1    2    0  502 -0.24402208998E+02 -0.30784211338E+02 -0.92409186341E+02  0.10041211676E+03  0.00000000000E+00 0.  1.
<mgrwt>
<rscale>  2 0.80461489E+02</rscale>
<asrwt>0</asrwt>
<pdfrwt beam="1">  1       21 0.29029452E-02 0.80461489E+02</pdfrwt>
<pdfrwt beam="2">  1       21 0.54469009E-01 0.80461489E+02</pdfrwt>
<totfact> 0.20868026E+06</totfact>
</mgrwt>
</event>
<event>
 5    1  0.1624116E+000  0.7365378E+02  0.7546771E-02  0.1348091E+00
         21   -1    0    0  503  502  0.00000000000E+00  0.00000000000E+00  0.10497754917E+03  0.10497754917E+03  0.00000000000E+00 0.  1.
         21   -1    0    0  501  503 -0.00000000000E+00 -0.00000000000E+00 -0.54622877682E+02  0.54622877682E+02  0.00000000000E+00 0.  1.
         24    1    1    2    0    0  0.22323081842E+02  0.22433112857E+02  0.44371623777E+02  0.97147421409E+02  0.80419002446E+02 0.  1.
          1    1    1    2  501    0 -0.37406117489E+02 -0.48496516856E+01 -0.24521941011E+01  0.37798809544E+02  0.00000000000E+00 0. -1.
         -2    1    1    2    0  502  0.15083035647E+02 -0.17583461171E+02  0.84352418136E+01  0.24654195901E+02  0.00000000000E+00 0.  1.
<mgrwt>
<rscale>  2 0.73653780E+02</rscale>
<asrwt>0</asrwt>
<pdfrwt beam="1">  1       21 0.16150392E-01 0.73653780E+02</pdfrwt>
<pdfrwt beam="2">  1       21 0.84035197E-02 0.73653780E+02</pdfrwt>
<totfact> 0.36198077E+06</totfact>
</mgrwt>
</event>
<event>
 5    1  0.1624116E+000  0.9353537E+02  0.7546771E-02  0.1294509E+00
         21   -1    0    0  501  502  0.00000000000E+00  0.00000000000E+00  0.88878094990E+03  0.88878094990E+03  0.00000000000E+00 0.  1.
         21   -1    0    0  502  503 -0.00000000000E+00 -0.00000000000E+00 -0.17337246058E+02  0.17337246058E+02  0.00000000000E+00 0.  1.
         24    1    1    2    0    0 -0.26344208657E+02  0.71517152340E+02  0.28857731490E+03  0.30911616431E+03  0.80419002446E+02 0.  0.
          1    1    1    2  501    0  0.90189718326E+01 -0.20532759148E+02  0.48319352263E+03  0.48371367187E+03  0.00000000000E+00 0. -1.
         -2    1    1    2    0  503  0.17325236824E+02 -0.50984393192E+02  0.99672866315E+02  0.11328835977E+03  0.00000000000E+00 0.  1.
<mgrwt>
<rscale>  2 0.93535368E+02</rscale>
<asrwt>0</asrwt>
<pdfrwt beam="1">  1       21 0.13673550E+00 0.93535368E+02</pdfrwt>
<pdfrwt beam="2">  1       21 0.26672693E-02 0.93535368E+02</pdfrwt>
<totfact> 0.30168116E+05</totfact>
</mgrwt>
</event>
<event>
 5    1  0.1624116E+000  0.6492920E+02  0.7546771E-02  0.1378238E+00
         21   -1    0    0  503  502  0.00000000000E+00  0.00000000000E+00  0.21065924730E+03  0.21065924730E+03  0.00000000000E+00 0. -1.
         21   -1    0    0  501  503 -0.00000000000E+00 -0.00000000000E+00 -0.54767146886E+02  0.54767146886E+02  0.00000000000E+00 0. -1.
         24    1    1    2    0    0 -0.57600773606E+01  0.68735486764E+00  0.17381456094E+03  0.19160471940E+03  0.80419002446E+02 0. -1.
          1    1    1    2  501    0 -0.21498894402E+02  0.30582924392E+01 -0.35180043874E+02  0.41342364472E+02  0.00000000000E+00 0. -1.
         -2    1    1    2    0  502  0.27258971762E+02 -0.37456473068E+01  0.17257583343E+02  0.32479310308E+02  0.00000000000E+00 0.  1.
<mgrwt>
<rscale>  2 0.64929199E+02</rscale>
<asrwt>0</asrwt>
<pdfrwt beam="1">  1       21 0.32409114E-01 0.64929199E+02</pdfrwt>
<pdfrwt beam="2">  1       21 0.84257150E-02 0.64929199E+02</pdfrwt>
<totfact> 0.99293215E+05</totfact>
</mgrwt>
</event>
<event>
 5    1  0.1624116E+000  0.8278072E+02  0.7546771E-02  0.1321340E+00
         21   -1    0    0  503  502  0.00000000000E+00  0.00000000000E+00  0.53732602880E+02  0.53732602880E+02  0.00000000000E+00 0.  1.
         21   -1    0    0  501  503 -0.00000000000E+00 -0.00000000000E+00 -0.28945198047E+03  0.28945198047E+03  0.00000000000E+00 0.  1.
         24    1    1    2    0    0  0.54623959730E+02  0.85701419202E+01 -0.21459297746E+01  0.97616828867E+02  0.80419002446E+02 0.  1.
          1    1    1    2  501    0 -0.39583081632E+02  0.13007650417E+02 -0.19125788131E+03  0.19574370101E+03  0.00000000000E+00 0. -1.
         -2    1    1    2    0  502 -0.15040878098E+02 -0.21577792337E+02 -0.42315566506E+02  0.49824053477E+02  0.00000000000E+00 0.  1.
<mgrwt>
<rscale>  2 0.82780725E+02</rscale>
<asrwt>0</asrwt>
<pdfrwt beam="1">  1       21 0.82665545E-02 0.82780725E+02</pdfrwt>
<pdfrwt beam="2">  1       21 0.44531073E-01 0.82780725E+02</pdfrwt>
<totfact> 0.55358082E+05</totfact>
</mgrwt>
</event>
<event>
 5    1  0.1624116E+000  0.1002385E+03  0.7546771E-02  0.1279795E+00
         21   -1    0    0  503  502  0.00000000000E+00  0.00000000000E+00  0.51170290241E+02  0.51170290241E+02  0.00000000000E+00 0.  1.
         21   -1    0    0  501  503 -0.00000000000E+00 -0.00000000000E+00 -0.61758670733E+03  0.61758670733E+03  0.00000000000E+00 0. -1.
         24    1    1    2    0    0 -0.17297981049E+02  0.82234168289E+02 -0.59571179727E+02  0.13068136819E+03  0.80419002446E+02 0.  1.
          1    1    1    2  501    0  0.11320347375E+02 -0.42492015018E+02 -0.49389893355E+03  0.49585267788E+03  0.00000000000E+00 0. -1.
         -2    1    1    2    0  502  0.59776336737E+01 -0.39742153271E+02 -0.12946303814E+02  0.42222951500E+02  0.00000000000E+00 0.  1.
<mgrwt>
<rscale>  2 0.10023853E+03</rscale>
<asrwt>0</asrwt>
<pdfrwt beam="1">  1       21 0.78723531E-02 0.10023853E+03</pdfrwt>
<pdfrwt beam="2">  1       21 0.95013331E-01 0.10023853E+03</pdfrwt>
<totfact> 0.11873735E+05</totfact>
</mgrwt>
</event>
<event>
 5    1  0.1624116E+000  0.6607845E+02  0.7546771E-02  0.1373960E+00
         21   -1    0    0  503  502  0.00000000000E+00  0.00000000000E+00  0.37994411999E+03  0.37994411999E+03  0.00000000000E+00 0.  1.
         21   -1    0    0  501  503 -0.00000000000E+00 -0.00000000000E+00 -0.13447315762E+03  0.13447315762E+03  0.00000000000E+00 0.  1.
         24    1    1    2    0    0 -0.83811700605E+01 -0.10346253873E+02 -0.84819833344E+02  0.11763889265E+03  0.80419002446E+02 0.  1.
          1    1    1    2  501    0  0.80666257488E+01 -0.19340147466E+02 -0.29267896142E+02  0.35996131731E+02  0.00000000000E+00 0. -1.
         -2    1    1    2    0  502  0.31454431170E+00  0.29686401339E+02  0.35955869185E+03  0.36078225324E+03  0.00000000000E+00 0.  1.
<mgrwt>
<rscale>  2 0.66078447E+02</rscale>
<asrwt>0</asrwt>
<pdfrwt beam="1">  1       21 0.58452941E-01 0.66078447E+02</pdfrwt>
<pdfrwt beam="2">  1       21 0.20688178E-01 0.66078447E+02</pdfrwt>
<totfact> 0.63765354E+04</totfact>
</mgrwt>
</event>
<event>
 5    1  0.1624116E+000  0.9803479E+02  0.7546771E-02  0.1284484E+00
         21   -1    0    0  503  502  0.00000000000E+00  0.00000000000E+00  0.62690252426E+02  0.62690252426E+02  0.00000000000E+00 0. -1.
         21   -1    0    0  501  503 -0.00000000000E+00 -0.00000000000E+00 -0.23119042024E+03  0.23119042024E+03  0.00000000000E+00 0.  1.
         24    1    1    2    0    0 -0.27926811778E+02  0.61036016973E+02 -0.12461897821E+03  0.16279560150E+03  0.80419002446E+02 0.  0.
          1    1    1    2  501    0 -0.19927830972E+02 -0.15295270820E+02 -0.58169262178E+02  0.63361871967E+02  0.00000000000E+00 0. -1.
         -2    1    1    2    0  502  0.47854642750E+02 -0.45740746152E+02  0.14288072576E+02  0.67723199195E+02  0.00000000000E+00 0.  1.
<mgrwt>
<rscale>  2 0.98034791E+02</rscale>
<asrwt>0</asrwt>
<pdfrwt beam="1">  1       21 0.96446543E-02 0.98034791E+02</pdfrwt>
<pdfrwt beam="2">  1       21 0.35567757E-01 0.98034791E+02</pdfrwt>
<totfact> 0.66272442E+05</totfact>
</mgrwt>
</event>
<event>
 5    1  0.1624116E+000  0.8424337E+02  0.7546771E-02  0.1317423E+00
         21   -1    0    0  501  502  0.00000000000E+00  0.00000000000E+00  0.27361438736E+02  0.27361438736E+02  0.00000000000E+00 0. -1.
         21   -1    0    0  502  503 -0.00000000000E+00 -0.00000000000E+00 -0.43707237529E+03  0.43707237529E+03  0.00000000000E+00 0.  1.
         24    1    1    2    0    0 -0.77593713424E+00  0.27657691867E+02 -0.12098892856E+03  0.14788876491E+03  0.80419002446E+02 0.  0.
          1    1    1    2  501    0 -0.36712356140E+02 -0.27638035561E+02 -0.29456716550E+02  0.54583479671E+02  0.00000000000E+00 0. -1.
         -2    1    1    2    0  503  0.37488293275E+02 -0.19656305914E-01 -0.25926529144E+03  0.26196156944E+03  0.00000000000E+00 0.  1.
<mgrwt>
<rscale>  2 0.84243375E+02</rscale>
<asrwt>0</asrwt>
<pdfrwt beam="1">  1       21 0.42094523E-02 0.84243375E+02</pdfrwt>
<pdfrwt beam="2">  1       21 0.67241902E-01 0.84243375E+02</pdfrwt>
<totfact> 0.73193841E+05</totfact>
</mgrwt>
</event>
<event>
 5    1  0.1624116E+000  0.7873451E+02  0.7546771E-02  0.1332682E+00
         21   -1    0    0  501  502  0.00000000000E+00  0.00000000000E+00  0.74462149538E+03  0.74462149538E+03  0.00000000000E+00 0. -1.
         21   -1    0    0  502  503 -0.00000000000E+00 -0.00000000000E+00 -0.10802323367E+02  0.10802323367E+02  0.00000000000E+00 0.  1.
         24    1    1    2    0    0 -0.15956778338E+02 -0.89951158118E+01  0.30246095948E+03  0.31350499015E+03  0.80419002446E+02 0. -1.
          1    1    1    2  501    0  0.26167623226E+02  0.36922357391E+02  0.37911157620E+03  0.38180308038E+03  0.00000000000E+00 0. -1.
         -2    1    1    2    0  503 -0.10210844888E+02 -0.27927241579E+02  0.52246636335E+02  0.60115748219E+02  0.00000000000E+00 0.  1.
<mgrwt>
<rscale>  2 0.78734512E+02</rscale>
<asrwt>0</asrwt>
<pdfrwt beam="1">  1       21 0.11455711E+00 0.78734512E+02</pdfrwt>
<pdfrwt beam="2">  1       21 0.16618965E-02 0.78734512E+02</pdfrwt>
<totfact> 0.99049773E+05</totfact>
</mgrwt>
</event>
<event>
 5    1  0.1624116E+000  0.8652002E+02  0.7546771E-02  0.1311505E+00
         21   -1    0    0  501  502  0.00000000000E+00  0.00000000000E+00  0.22098785529E+03  0.22098785529E+03  0.00000000000E+00 0. -1.
         21   -1    0    0  502  503 -0.00000000000E+00 -0.00000000000E+00 -0.11371311383E+03  0.11371311383E+03  0.00000000000E+00 0. -1.
         24    1    1    2    0    0 -0.66875535597E+02 -0.11064372717E+02  0.19524853596E+03  0.22177458005E+03  0.80419002446E+02 0. -1.
          1    1    1    2  501    0  0.44232312572E+02  0.88889133641E+01 -0.42034573789E+02  0.61663730425E+02  0.00000000000E+00 0. -1.
         -2    1    1    2    0  503  0.22643223025E+02  0.21754593526E+01 -0.45939220716E+02  0.51262658655E+02  0.00000000000E+00 0.  1.
<mgrwt>
<rscale>  2 0.86520017E+02</rscale>
<asrwt>0</asrwt>
<pdfrwt beam="1">  1       21 0.33998131E-01 0.86520017E+02</pdfrwt>
<pdfrwt beam="2">  1       21 0.17494325E-01 0.86520017E+02</pdfrwt>
<totfact> 0.25282645E+05</totfact>
</mgrwt>
</event>
<event>
 5    1  0.1624116E+000  0.9049275E+02  0.7546771E-02  0.1301663E+00
         21   -1    0    0  501  502  0.00000000000E+00  0.00000000000E+00  0.16594413330E+03  0.16594413330E+03  0.00000000000E+00 0. -1.
         21   -1    0    0  502  503 -0.00000000000E+00 -0.00000000000E+00 -0.70011208836E+02  0.70011208836E+02  0.00000000000E+00 0.  1.
         24    1    1    2    0    0 -0.46249689706E+02  0.10406938059E+02 -0.41574622603E+01  0.93444307502E+02  0.80419002446E+02 0.  1.
          1    1    1    2  501    0 -0.18996479846E+02  0.67659631193E+01  0.61641421355E+02  0.64856066255E+02  0.00000000000E+00 0. -1.
         -2    1    1    2    0  503  0.65246169552E+02 -0.17172901178E+02  0.38448965370E+02  0.77654968380E+02  0.00000000000E+00 0.  1.
<mgrwt>
<rscale>  2 0.90492751E+02</rscale>
<asrwt>0</asrwt>
<pdfrwt beam="1">  1       21 0.25529867E-01 0.90492751E+02</pdfrwt>
<pdfrwt beam="2">  1       21 0.10770955E-01 0.90492751E+02</pdfrwt>
<totfact> 0.10308064E+06</totfact>
</mgrwt>
</event>
<event>
 5    1  0.1624116E+000  0.8377751E+02  0.7546771E-02  0.1318661E+00
         21   -1    0    0  503  502  0.00000000000E+00  0.00000000000E+00  0.16292462239E+03  0.16292462239E+03  0.00000000000E+00 0. -1.
         21   -1    0    0  501  503 -0.00000000000E+00 -0.00000000000E+00 -0.47867776019E+02  0.47867776019E+02  0.00000000000E+00 0.  1.
         24    1    1    2    0    0  0.14548102749E+02 -0.51204141048E+02  0.60936977576E+02  0.11407910652E+03  0.80419002446E+02 0. -1.
          1    1    1    2  501    0  0.17323100499E+02  0.15379964236E+02 -0.15780758379E+01  0.23219031723E+02  0.00000000000E+00 0. -1.
         -2    1    1    2    0  502 -0.31871203248E+02  0.35824176812E+02  0.55697944631E+02  0.73494260163E+02  0.00000000000E+00 0.  1.
<mgrwt>
<rscale>  2 0.83777512E+02</rscale>
<asrwt>0</asrwt>
<pdfrwt beam="1">  1       21 0.25065326E-01 0.83777512E+02</pdfrwt>
<pdfrwt beam="2">  1       21 0.73642733E-02 0.83777512E+02</pdfrwt>
<totfact> 0.20451564E+06</totfact>
</mgrwt>
</event>
<event>
 5    1  0.1624116E+000  0.8193361E+02  0.7546771E-02  0.1323652E+00
         21   -1    0    0  501  502  0.00000000000E+00  0.00000000000E+00  0.11338822345E+03  0.11338822345E+03  0.00000000000E+00 0.  1.
         21   -1    0    0  502  503 -0.00000000000E+00 -0.00000000000E+00 -0.77526433147E+02  0.77526433147E+02  0.00000000000E+00 0. -1.
         24    1    1    2    0    0 -0.59660393300E+02  0.17527838531E+02  0.16386292882E+01  0.10166852371E+03  0.80419002446E+02 0. -1.
          1    1    1    2  501    0  0.20122168889E+02 -0.49625958230E+01  0.42186041168E+02  0.47002033015E+02  0.00000000000E+00 0. -1.
         -2    1    1    2    0  503  0.39538224411E+02 -0.12565242708E+02 -0.79628801541E+01  0.42244099875E+02  0.00000000000E+00 0.  1.
<mgrwt>
<rscale>  2 0.81933612E+02</rscale>
<asrwt>0</asrwt>
<pdfrwt beam="1">  1       21 0.17444342E-01 0.81933612E+02</pdfrwt>
<pdfrwt beam="2">  1       21 0.11927144E-01 0.81933612E+02</pdfrwt>
<totfact> 0.17320417E+06</totfact>
</mgrwt>
</event>
<event>
 5    1  0.1624116E+000  0.8093345E+02  0.7546771E-02  0.1326423E+00
         21   -1    0    0  501  502  0.00000000000E+00  0.00000000000E+00  0.26638346312E+04  0.26638346312E+04  0.00000000000E+00 0. -1.
         21   -1    0    0  502  503 -0.00000000000E+00 -0.00000000000E+00 -0.44138352265E+01  0.44138352265E+01  0.00000000000E+00 0. -1.
         24    1    1    2    0    0  0.15203681637E+02 -0.70736210991E+01  0.67558630896E+03  0.68056246213E+03  0.80419002446E+02 0. -1.
          1    1    1    2  501    0  0.21963543350E+02 -0.23077918646E+02  0.16626643528E+04  0.16629695540E+04  0.00000000000E+00 0. -1.
         -2    1    1    2    0  503 -0.37167224987E+02  0.30151539745E+02  0.32117013422E+03  0.32471645027E+03  0.00000000000E+00 0.  1.
<mgrwt>
<rscale>  2 0.80933448E+02</rscale>
<asrwt>0</asrwt>
<pdfrwt beam="1">  1       21 0.40981943E+00 0.80933448E+02</pdfrwt>
<pdfrwt beam="2">  1       21 0.67905370E-03 0.80933448E+02</pdfrwt>
<totfact> 0.62765338E+04</totfact>
</mgrwt>
</event>
<event>
 5    1  0.1624116E+000  0.6565139E+02  0.7546771E-02  0.1375538E+00
         21   -1    0    0  501  502  0.00000000000E+00  0.00000000000E+00  0.43191215920E+03  0.43191215920E+03  0.00000000000E+00 0. -1.
         21   -1    0    0  502  503 -0.00000000000E+00 -0.00000000000E+00 -0.15654015786E+02  0.15654015786E+02  0.00000000000E+00 0.  1.
         24    1    1    2    0    0 -0.34313638501E+00  0.90299984132E+01  0.21412051397E+03  0.22890275025E+03  0.80419002446E+02 0. -1.
          1    1    1    2  501    0 -0.23922881472E+02 -0.10372030705E+02  0.18947244404E+03  0.19125817716E+03  0.00000000000E+00 0. -1.
         -2    1    1    2    0  503  0.24266017857E+02  0.13420322915E+01  0.12665185391E+02  0.27405247569E+02  0.00000000000E+00 0.  1.
<mgrwt>
<rscale>  2 0.65651394E+02</rscale>
<asrwt>0</asrwt>
<pdfrwt beam="1">  1       21 0.66448016E-01 0.65651394E+02</pdfrwt>
<pdfrwt beam="2">  1       21 0.24083104E-02 0.65651394E+02</pdfrwt>
<totfact> 0.18450488E+06</totfact>
</mgrwt>
</event>
<event>
 5    1  0.1624116E+000  0.1142904E+03  0.7546771E-02  0.1252825E+00
         21   -1    0    0  503  502  0.00000000000E+00  0.00000000000E+00  0.36654796055E+02  0.36654796055E+02  0.00000000000E+00 0. -1.
         21   -1    0    0  501  503 -0.00000000000E+00 -0.00000000000E+00 -0.98631820560E+03  0.98631820560E+03  0.00000000000E+00 0. -1.
         24    1    1    2    0    0  0.83887643915E+01 -0.62444432236E+02 -0.28465257879E+03  0.30243013251E+03  0.80419002446E+02 0. -1.
          1    1    1    2  501    0  0.48230314290E+02  0.10026328274E+02 -0.63631868947E+03  0.63822266102E+03  0.00000000000E+00 0. -1.
         -2    1    1    2    0  502 -0.56619078681E+02  0.52418103962E+02 -0.28692141289E+02  0.82320208123E+02  0.00000000000E+00 0.  1.
<mgrwt>
<rscale>  2 0.11429035E+03</rscale>
<asrwt>0</asrwt>
<pdfrwt beam="1">  1       21 0.56392001E-02 0.11429035E+03</pdfrwt>
<pdfrwt beam="2">  1       21 0.15174124E+00 0.11429035E+03</pdfrwt>
<totfact> 0.66544748E+04</totfact>
</mgrwt>
</event>
<event>
 5    1  0.1624116E+000  0.7169625E+02  0.7546771E-02  0.1354418E+00
         21   -1    0    0  503  502  0.00000000000E+00  0.00000000000E+00  0.75840124289E+02  0.75840124289E+02  0.00000000000E+00 0. -1.
         21   -1    0    0  501  503 -0.00000000000E+00 -0.00000000000E+00 -0.12329420791E+03  0.12329420791E+03  0.00000000000E+00 0. -1.
         24    1    1    2    0    0  0.88220610779E-02  0.16765710338E+02  0.25762573320E+02  0.86093061622E+02  0.80419002446E+02 0. -1.
          1    1    1    2  501    0 -0.25336099007E+02 -0.24005771815E+02 -0.78738015555E+02  0.86127057809E+02  0.00000000000E+00 0. -1.
         -2    1    1    2    0  502  0.25327276946E+02  0.72400614776E+01  0.55213586176E+01  0.26914212764E+02  0.00000000000E+00 0.  1.
<mgrwt>
<rscale>  2 0.71696250E+02</rscale>
<asrwt>0</asrwt>
<pdfrwt beam="1">  1       21 0.11667712E-01 0.71696250E+02</pdfrwt>
<pdfrwt beam="2">  1       21 0.18968339E-01 0.71696250E+02</pdfrwt>
<totfact> 0.15390014E+06</totfact>
</mgrwt>
</event>
<event>
 5    1  0.1624116E+000  0.8618611E+02  0.7546771E-02  0.1312360E+00
         21   -1    0    0  501  502  0.00000000000E+00  0.00000000000E+00  0.39832046788E+03  0.39832046788E+03  0.00000000000E+00 0. -1.
         21   -1    0    0  502  503 -0.00000000000E+00 -0.00000000000E+00 -0.13098844952E+03  0.13098844952E+03  0.00000000000E+00 0.  1.
         24    1    1    2    0    0 -0.49175335689E+02 -0.11035844384E+02  0.72103406442E+02  0.11918943190E+03  0.80419002446E+02 0.  1.
          1    1    1    2  501    0 -0.67170797984E+01  0.19783773301E+02  0.29483188599E+03  0.29557123988E+03  0.00000000000E+00 0. -1.
         -2    1    1    2    0  503  0.55892415488E+02 -0.87479289166E+01 -0.99603274072E+02  0.11454824562E+03  0.00000000000E+00 0.  1.
<mgrwt>
<rscale>  2 0.86186108E+02</rscale>
<asrwt>0</asrwt>
<pdfrwt beam="1">  1       21 0.61280071E-01 0.86186108E+02</pdfrwt>
<pdfrwt beam="2">  1       21 0.20152069E-01 0.86186108E+02</pdfrwt>
<totfact> 0.59659203E+04</totfact>
</mgrwt>
</event>
<event>
 5    1  0.1624116E+000  0.8599759E+02  0.7546771E-02  0.1312844E+00
         21   -1    0    0  503  502  0.00000000000E+00  0.00000000000E+00  0.28718587064E+02  0.28718587064E+02  0.00000000000E+00 0. -1.
         21   -1    0    0  501  503 -0.00000000000E+00 -0.00000000000E+00 -0.26542382581E+03  0.26542382581E+03  0.00000000000E+00 0.  1.
         24    1    1    2    0    0 -0.86220895708E+01  0.55458464989E+02 -0.14552936307E+03  0.17548787205E+03  0.80419002446E+02 0.  0.
          1    1    1    2  501    0 -0.19775707104E+02 -0.16726917184E+02 -0.45612100561E+02  0.52453141637E+02  0.00000000000E+00 0. -1.
         -2    1    1    2    0  502  0.28397796675E+02 -0.38731547805E+02 -0.45563775114E+02  0.66201399185E+02  0.00000000000E+00 0.  1.
<mgrwt>
<rscale>  2 0.85997589E+02</rscale>
<asrwt>0</asrwt>
<pdfrwt beam="1">  1       21 0.44182442E-02 0.85997589E+02</pdfrwt>
<pdfrwt beam="2">  1       21 0.40834435E-01 0.85997589E+02</pdfrwt>
<totfact> 0.18843337E+06</totfact>
</mgrwt>
</event>
<event>
 5    1  0.1624116E+000  0.8128736E+02  0.7546771E-02  0.1325437E+00
         21   -1    0    0  501  502  0.00000000000E+00  0.00000000000E+00  0.30066160395E+02  0.30066160395E+02  0.00000000000E+00 0. -1.
         21   -1    0    0  502  503 -0.00000000000E+00 -0.00000000000E+00 -0.55740847138E+03  0.55740847138E+03  0.00000000000E+00 0. -1.
         24    1    1    2    0    0 -0.56224651448E+01  0.60048062971E+02 -0.49481941094E+03  0.50492657623E+03  0.80419002446E+02 0. -1.
          1    1    1    2  501    0 -0.35965298526E+01 -0.37798529457E+02  0.46523776339E+01  0.38253215208E+02  0.00000000000E+00 0. -1.
         -2    1    1    2    0  503  0.92189949974E+01 -0.22249533514E+02 -0.37175277673E+02  0.44294840337E+02  0.00000000000E+00 0.  1.
<mgrwt>
<rscale>  2 0.81287362E+02</rscale>
<asrwt>0</asrwt>
<pdfrwt beam="1">  1       21 0.46255628E-02 0.81287362E+02</pdfrwt>
<pdfrwt beam="2">  1       21 0.85755155E-01 0.81287362E+02</pdfrwt>
<totfact> 0.36845899E+05</totfact>
</mgrwt>
</event>
<event>
 5    1  0.1624116E+000  0.1013133E+03  0.7546771E-02  0.1277558E+00
         21   -1    0    0  501  502  0.00000000000E+00  0.00000000000E+00  0.90572362152E+02  0.90572362152E+02  0.00000000000E+00 0. -1.
         21   -1    0    0  502  503 -0.00000000000E+00 -0.00000000000E+00 -0.20276531493E+03  0.20276531493E+03  0.00000000000E+00 0.  1.
         24    1    1    2    0    0 -0.33517377640E+02  0.71012691303E+02  0.27458023893E+02  0.11570382863E+03  0.80419002446E+02 0. -1.
          1    1    1    2  501    0  0.39103903066E+02 -0.31200595926E+02 -0.24572178099E+02  0.55734947364E+02  0.00000000000E+00 0. -1.
         -2    1    1    2    0  503 -0.55865254261E+01 -0.39812095376E+02 -0.11507879857E+03  0.12189890108E+03  0.00000000000E+00 0.  1.
<mgrwt>
<rscale>  2 0.10131330E+03</rscale>
<asrwt>0</asrwt>
<pdfrwt beam="1">  1       21 0.13934210E-01 0.10131330E+03</pdfrwt>
<pdfrwt beam="2">  1       21 0.31194664E-01 0.10131330E+03</pdfrwt>
<totfact> 0.44794899E+05</totfact>
</mgrwt>
</event>
<event>
 5    1  0.1624116E+000  0.8238721E+02  0.7546771E-02  0.1322410E+00
         21   -1    0    0  501  502  0.00000000000E+00  0.00000000000E+00  0.73290415170E+02  0.73290415170E+02  0.00000000000E+00 0. -1.
         21   -1    0    0  502  503 -0.00000000000E+00 -0.00000000000E+00 -0.12403466568E+03  0.12403466568E+03  0.00000000000E+00 0. -1.
         24    1    1    2    0    0 -0.51353548025E+02 -0.32036508931E+02  0.48085649594E+01  0.10076637857E+03  0.80419002446E+02 0. -1.
          1    1    1    2  501    0  0.21801628163E+02  0.18515430075E+01  0.52697812477E+01  0.22505772515E+02  0.00000000000E+00 0. -1.
         -2    1    1    2    0  503  0.29551919862E+02  0.30184965923E+02 -0.60822596722E+02  0.74052929768E+02  0.00000000000E+00 0.  1.
<mgrwt>
<rscale>  2 0.82387210E+02</rscale>
<asrwt>0</asrwt>
<pdfrwt beam="1">  1       21 0.11275449E-01 0.82387210E+02</pdfrwt>
<pdfrwt beam="2">  1       21 0.19082256E-01 0.82387210E+02</pdfrwt>
<totfact> 0.16244355E+06</totfact>
</mgrwt>
</event>
<event>
 5    1  0.1624116E+000  0.1345049E+03  0.7546771E-02  0.1220920E+00
         21   -1    0    0  503  502  0.00000000000E+00  0.00000000000E+00  0.22486774759E+03  0.22486774759E+03  0.00000000000E+00 0.  1.
         21   -1    0    0  501  503 -0.00000000000E+00 -0.00000000000E+00 -0.10503990947E+03  0.10503990947E+03  0.00000000000E+00 0.  1.
         24    1    1    2    0    0 -0.42970587724E+02 -0.11411460699E+03  0.12557689691E+03  0.19262758871E+03  0.80419002446E+02 0.  1.
          1    1    1    2  501    0  0.24343392488E+02  0.84669864170E+02 -0.31919692017E+02  0.93704073523E+02  0.00000000000E+00 0. -1.
         -2    1    1    2    0  502  0.18627195237E+02  0.29444742821E+02  0.26170633218E+02  0.43575994827E+02  0.00000000000E+00 0.  1.
<mgrwt>
<rscale>  2 0.13450489E+03</rscale>
<asrwt>0</asrwt>
<pdfrwt beam="1">  1       21 0.34595038E-01 0.13450489E+03</pdfrwt>
<pdfrwt beam="2">  1       21 0.16159986E-01 0.13450489E+03</pdfrwt>
<totfact> 0.27932907E+05</totfact>
</mgrwt>
</event>
<event>
 5    1  0.1624116E+000  0.9494941E+02  0.7546771E-02  0.1291290E+00
         21   -1    0    0  503  502  0.00000000000E+00  0.00000000000E+00  0.26763355466E+03  0.26763355466E+03  0.00000000000E+00 0. -1.
         21   -1    0    0  501  503 -0.00000000000E+00 -0.00000000000E+00 -0.67063658956E+02  0.67063658956E+02  0.00000000000E+00 0. -1.
         24    1    1    2    0    0  0.22917179453E+01 -0.76225636709E+02  0.12663681948E+03  0.16828457941E+03  0.80419002446E+02 0. -1.
          1    1    1    2  501    0  0.73814236567E+01  0.57716251419E+02 -0.26424201201E+02  0.63905316697E+02  0.00000000000E+00 0. -1.
         -2    1    1    2    0  502 -0.96731416020E+01  0.18509385290E+02  0.10035727742E+03  0.10250731751E+03  0.00000000000E+00 0.  1.
<mgrwt>
<rscale>  2 0.94949412E+02</rscale>
<asrwt>0</asrwt>
<pdfrwt beam="1">  1       21 0.41174392E-01 0.94949412E+02</pdfrwt>
<pdfrwt beam="2">  1       21 0.10317486E-01 0.94949412E+02</pdfrwt>
<totfact> 0.44180689E+05</totfact>
</mgrwt>
</event>
<event>
 5    1  0.1624116E+000  0.1062395E+03  0.7546771E-02  0.1267696E+00
         21   -1    0    0  503  502  0.00000000000E+00  0.00000000000E+00  0.17078436857E+02  0.17078436857E+02  0.00000000000E+00 0. -1.
         21   -1    0    0  501  503 -0.00000000000E+00 -0.00000000000E+00 -0.75151131529E+03  0.75151131529E+03  0.00000000000E+00 0. -1.
         24    1    1    2    0    0 -0.41269010406E+02  0.73804658526E+02 -0.27537044995E+03  0.29907584239E+03  0.80419002446E+02 0. -1.
          1    1    1    2  501    0  0.49152428557E+02 -0.47610610355E+02 -0.37245815877E+03  0.37869223848E+03  0.00000000000E+00 0. -1.
         -2    1    1    2    0  502 -0.78834181512E+01 -0.26194048171E+02 -0.86604269706E+02  0.90821671272E+02  0.00000000000E+00 0.  1.
<mgrwt>
<rscale>  2 0.10623953E+03</rscale>
<asrwt>0</asrwt>
<pdfrwt beam="1">  1       21 0.26274515E-02 0.10623953E+03</pdfrwt>
<pdfrwt beam="2">  1       21 0.11561714E+00 0.10623953E+03</pdfrwt>
<totfact> 0.46413876E+05</totfact>
</mgrwt>
</event>
<event>
 5    1  0.2903253E+000  0.1317837E+03  0.7546771E-02  0.1224833E+00
         21   -1    0    0  501  502  0.00000000000E+00  0.00000000000E+00  0.85073769893E+03  0.85073769893E+03  0.00000000000E+00 0.  1.
         21   -1    0    0  502  503 -0.00000000000E+00 -0.00000000000E+00 -0.65829921119E+02  0.65829921119E+02  0.00000000000E+00 0.  1.
         24    1    1    2    0    0  0.11634011605E+03 -0.16316288091E+02  0.69048674814E+03  0.70501092840E+03  0.80419002446E+02 0.  1.
          1    1    1    2  501    0 -0.30683610942E+02  0.17911165741E+02  0.11756337193E+03  0.12281465815E+03  0.00000000000E+00 0. -1.
         -2    1    1    2    0  503 -0.85656505110E+02 -0.15948776503E+01 -0.23142342257E+02  0.88742033487E+02  0.00000000000E+00 0.  1.
<mgrwt>
<rscale>  2 0.13178373E+03</rscale>
<asrwt>0</asrwt>
<pdfrwt beam="1">  1       21 0.13088271E+00 0.13178373E+03</pdfrwt>
<pdfrwt beam="2">  1       21 0.10127681E-01 0.13178373E+03</pdfrwt>
<totfact> 0.35018025E+04</totfact>
</mgrwt>
</event>
<event>
 5    1  0.1624116E+000  0.1261148E+03  0.7546771E-02  0.1233337E+00
         21   -1    0    0  503  502  0.00000000000E+00  0.00000000000E+00  0.40076175570E+03  0.40076175570E+03  0.00000000000E+00 0.  1.
         21   -1    0    0  501  503 -0.00000000000E+00 -0.00000000000E+00 -0.32914787316E+03  0.32914787316E+03  0.00000000000E+00 0.  1.
         24    1    1    2    0    0 -0.11224051651E+03 -0.14945493327E+02 -0.16797362029E+03  0.21795333075E+03  0.80419002446E+02 0.  1.
          1    1    1    2  501    0  0.54848730812E+02  0.47258273294E+01 -0.12822996641E+03  0.13954798817E+03  0.00000000000E+00 0. -1.
         -2    1    1    2    0  502  0.57391785700E+02  0.10219665998E+02  0.36781746924E+03  0.37240830995E+03  0.00000000000E+00 0.  1.
<mgrwt>
<rscale>  2 0.12611482E+03</rscale>
<asrwt>0</asrwt>
<pdfrwt beam="1">  1       21 0.61655654E-01 0.12611482E+03</pdfrwt>
<pdfrwt beam="2">  1       21 0.50638135E-01 0.12611482E+03</pdfrwt>
<totfact> 0.95536180E+03</totfact>
</mgrwt>
</event>
<event>
 5    1  0.1624116E+000  0.7852160E+02  0.7546771E-02  0.1333300E+00
         21   -1    0    0  501  502  0.00000000000E+00  0.00000000000E+00  0.40115822684E+03  0.40115822684E+03  0.00000000000E+00 0. -1.
         21   -1    0    0  502  503 -0.00000000000E+00 -0.00000000000E+00 -0.19860682511E+02  0.19860682511E+02  0.00000000000E+00 0. -1.
         24    1    1    2    0    0 -0.23484256756E+02  0.28217391926E+02  0.12775686008E+03  0.15536010677E+03  0.80419002446E+02 0. -1.
          1    1    1    2  501    0 -0.25519490763E+00 -0.41457969148E+02  0.21199472354E+03  0.21601062738E+03  0.00000000000E+00 0. -1.
         -2    1    1    2    0  503  0.23739451664E+02  0.13240577222E+02  0.41545960707E+02  0.49648175209E+02  0.00000000000E+00 0.  1.
<mgrwt>
<rscale>  2 0.78521596E+02</rscale>
<asrwt>0</asrwt>
<pdfrwt beam="1">  1       21 0.61716644E-01 0.78521596E+02</pdfrwt>
<pdfrwt beam="2">  1       21 0.30554899E-02 0.78521596E+02</pdfrwt>
<totfact> 0.14796943E+06</totfact>
</mgrwt>
</event>
<event>
 5    1  0.1624116E+000  0.6672220E+02  0.7546771E-02  0.1371608E+00
         21   -1    0    0  503  502  0.00000000000E+00  0.00000000000E+00  0.57623012947E+03  0.57623012947E+03  0.00000000000E+00 0. -1.
         21   -1    0    0  501  503 -0.00000000000E+00 -0.00000000000E+00 -0.19508198400E+02  0.19508198400E+02  0.00000000000E+00 0. -1.
         24    1    1    2    0    0 -0.10017251291E+02 -0.21792368212E+00  0.24815789089E+03  0.26105544924E+03  0.80419002446E+02 0. -1.
          1    1    1    2  501    0  0.10768335957E+02 -0.24976009256E+02  0.22039015565E+01  0.27287639687E+02  0.00000000000E+00 0. -1.
         -2    1    1    2    0  502 -0.75108466613E+00  0.25193932938E+02  0.30636013863E+03  0.30739523894E+03  0.00000000000E+00 0.  1.
<mgrwt>
<rscale>  2 0.66722203E+02</rscale>
<asrwt>0</asrwt>
<pdfrwt beam="1">  1       21 0.88650776E-01 0.66722203E+02</pdfrwt>
<pdfrwt beam="2">  1       21 0.30012617E-02 0.66722203E+02</pdfrwt>
<totfact> 0.69336224E+05</totfact>
</mgrwt>
</event>
<event>
 5    1  0.1624116E+000  0.1015694E+03  0.7546771E-02  0.1277030E+00
         21   -1    0    0  501  502  0.00000000000E+00  0.00000000000E+00  0.40176155638E+02  0.40176155638E+02  0.00000000000E+00 0. -1.
         21   -1    0    0  502  503 -0.00000000000E+00 -0.00000000000E+00 -0.29959554791E+03  0.29959554791E+03  0.00000000000E+00 0.  1.
         24    1    1    2    0    0  0.84202598376E+02  0.15413373797E+02 -0.16529396747E+03  0.20277317698E+03  0.80419002446E+02 0.  1.
          1    1    1    2  501    0 -0.37854643930E+02 -0.88666234694E+01 -0.90841691016E+01  0.39926347279E+02  0.00000000000E+00 0. -1.
         -2    1    1    2    0  503 -0.46347954446E+02 -0.65467503274E+01 -0.85041255701E+02  0.97072179291E+02  0.00000000000E+00 0.  1.
<mgrwt>
<rscale>  2 0.10156939E+03</rscale>
<asrwt>0</asrwt>
<pdfrwt beam="1">  1       21 0.61809469E-02 0.10156939E+03</pdfrwt>
<pdfrwt beam="2">  1       21 0.46091624E-01 0.10156939E+03</pdfrwt>
<totfact> 0.84714572E+05</totfact>
</mgrwt>
</event>
<event>
 5    1  0.1624116E+000  0.6905869E+02  0.7546771E-02  0.1363324E+00
         21   -1    0    0  501  502  0.00000000000E+00  0.00000000000E+00  0.60407252372E+02  0.60407252372E+02  0.00000000000E+00 0. -1.
         21   -1    0    0  502  503 -0.00000000000E+00 -0.00000000000E+00 -0.41754909224E+03  0.41754909224E+03  0.00000000000E+00 0.  1.
         24    1    1    2    0    0  0.10305751803E+02 -0.11885502126E+02  0.22661121878E+01  0.81974538119E+02  0.80419002446E+02 0.  0.
          1    1    1    2  501    0  0.19267322058E+02  0.17551622087E+02  0.80609659147E+01  0.27281281287E+02  0.00000000000E+00 0. -1.
         -2    1    1    2    0  503 -0.29573073861E+02 -0.56661199606E+01 -0.36746891797E+03  0.36870052520E+03  0.00000000000E+00 0.  1.
<mgrwt>
<rscale>  2 0.69058687E+02</rscale>
<asrwt>0</asrwt>
<pdfrwt beam="1">  1       21 0.92934238E-02 0.69058687E+02</pdfrwt>
<pdfrwt beam="2">  1       21 0.64238319E-01 0.69058687E+02</pdfrwt>
<totfact> 0.21391799E+05</totfact>
</mgrwt>
</event>
<event>
 5    1  0.1624116E+000  0.1316118E+03  0.7546771E-02  0.1225084E+00
         21   -1    0    0  503  502  0.00000000000E+00  0.00000000000E+00  0.97055169448E+02  0.97055169448E+02  0.00000000000E+00 0.  1.
         21   -1    0    0  501  503 -0.00000000000E+00 -0.00000000000E+00 -0.11551874322E+04  0.11551874322E+04  0.00000000000E+00 0. -1.
         24    1    1    2    0    0 -0.57114302659E+02 -0.96075063404E+02 -0.10094637378E+02  0.13806367746E+03  0.80419002446E+02 0.  1.
          1    1    1    2  501    0  0.30459790169E+02  0.52942311718E+01 -0.10127157469E+04  0.10131875501E+04  0.00000000000E+00 0. -1.
         -2    1    1    2    0  502  0.26654512490E+02  0.90780832232E+02 -0.35321878475E+02  0.10099137407E+03  0.00000000000E+00 0.  1.
<mgrwt>
<rscale>  2 0.13161181E+03</rscale>
<asrwt>0</asrwt>
<pdfrwt beam="1">  1       21 0.14931564E-01 0.13161181E+03</pdfrwt>
<pdfrwt beam="2">  1       21 0.17772115E+00 0.13161181E+03</pdfrwt>
<totfact> 0.79002089E+03</totfact>
</mgrwt>
</event>
<event>
 5    1  0.1624116E+000  0.9520644E+02  0.7546771E-02  0.1290712E+00
         21   -1    0    0  501  502  0.00000000000E+00  0.00000000000E+00  0.10824739420E+03  0.10824739420E+03  0.00000000000E+00 0.  1.
         21   -1    0    0  502  503 -0.00000000000E+00 -0.00000000000E+00 -0.85747089633E+02  0.85747089633E+02  0.00000000000E+00 0.  1.
         24    1    1    2    0    0  0.73513890301E+02 -0.20062691891E+02 -0.99762176728E+00  0.11079266617E+03  0.80419002446E+02 0.  1.
          1    1    1    2  501    0 -0.52957887141E+02  0.32302842583E+01  0.12932460938E+02  0.54609716102E+02  0.00000000000E+00 0. -1.
         -2    1    1    2    0  503 -0.20556003160E+02  0.16832407633E+02  0.10565465393E+02  0.28592101560E+02  0.00000000000E+00 0.  1.
<mgrwt>
<rscale>  2 0.95206438E+02</rscale>
<asrwt>0</asrwt>
<pdfrwt beam="1">  1       21 0.16653445E-01 0.95206438E+02</pdfrwt>
<pdfrwt beam="2">  1       21 0.13191860E-01 0.95206438E+02</pdfrwt>
<totfact> 0.15855066E+06</totfact>
</mgrwt>
</event>
<event>
 5    1  0.1624116E+000  0.8372497E+02  0.7546771E-02  0.1318801E+00
         21   -1    0    0  501  502  0.00000000000E+00  0.00000000000E+00  0.17925447642E+03  0.17925447642E+03  0.00000000000E+00 0. -1.
         21   -1    0    0  502  503 -0.00000000000E+00 -0.00000000000E+00 -0.18768423402E+03  0.18768423402E+03  0.00000000000E+00 0.  1.
         24    1    1    2    0    0 -0.54850965592E+02 -0.28510538697E+02 -0.48748860383E+02  0.11253953344E+03  0.80419002446E+02 0.  0.
          1    1    1    2  501    0  0.21708832626E+02 -0.87046159529E+00  0.14191519113E+03  0.14356863373E+03  0.00000000000E+00 0. -1.
         -2    1    1    2    0  503  0.33142132966E+02  0.29381000292E+02 -0.10159608834E+03  0.11083054327E+03  0.00000000000E+00 0.  1.
<mgrwt>
<rscale>  2 0.83724967E+02</rscale>
<asrwt>0</asrwt>
<pdfrwt beam="1">  1       21 0.27577612E-01 0.83724967E+02</pdfrwt>
<pdfrwt beam="2">  1       21 0.28874497E-01 0.83724967E+02</pdfrwt>
<totfact> 0.14944888E+05</totfact>
</mgrwt>
</event>
<event>
 5    1  0.1624116E+000  0.8062626E+02  0.7546771E-02  0.1327284E+00
         21   -1    0    0  501  502  0.00000000000E+00  0.00000000000E+00  0.19294991168E+02  0.19294991168E+02  0.00000000000E+00 0. -1.
         21   -1    0    0  502  503 -0.00000000000E+00 -0.00000000000E+00 -0.38028426142E+03  0.38028426142E+03  0.00000000000E+00 0.  1.
         24    1    1    2    0    0  0.27377882170E+02  0.23845805389E+02 -0.16609944712E+03  0.18808086865E+03  0.80419002446E+02 0.  1.
          1    1    1    2  501    0 -0.91050923597E+00  0.20959290790E+02 -0.19830296940E+02  0.28868002602E+02  0.00000000000E+00 0. -1.
         -2    1    1    2    0  503 -0.26467372934E+02 -0.44805096179E+02 -0.17505952619E+03  0.18263038133E+03  0.00000000000E+00 0.  1.
<mgrwt>
<rscale>  2 0.80626261E+02</rscale>
<asrwt>0</asrwt>
<pdfrwt beam="1">  1       21 0.29684603E-02 0.80626261E+02</pdfrwt>
<pdfrwt beam="2">  1       21 0.58505268E-01 0.80626261E+02</pdfrwt>
<totfact> 0.17356400E+06</totfact>
</mgrwt>
</event>
<event>
 5    1  0.1624116E+000  0.1373969E+03  0.7546771E-02  0.1216875E+00
         21   -1    0    0  501  502  0.00000000000E+00  0.00000000000E+00  0.16949986706E+02  0.16949986706E+02  0.00000000000E+00 0. -1.
         21   -1    0    0  502  503 -0.00000000000E+00 -0.00000000000E+00 -0.14310352791E+04  0.14310352791E+04  0.00000000000E+00 0. -1.
         24    1    1    2    0    0  0.11844740056E+03  0.18658414797E+02 -0.10692362432E+04  0.10789398885E+04  0.80419002446E+02 0. -1.
          1    1    1    2  501    0 -0.10915651411E+03  0.46162426350E+00 -0.26984609799E+03  0.29108808679E+03  0.00000000000E+00 0. -1.
         -2    1    1    2    0  503 -0.92908864408E+01 -0.19120039061E+02 -0.75002951194E+02  0.77957290566E+02  0.00000000000E+00 0.  1.
<mgrwt>
<rscale>  2 0.13739690E+03</rscale>
<asrwt>0</asrwt>
<pdfrwt beam="1">  1       21 0.26076905E-02 0.13739690E+03</pdfrwt>
<pdfrwt beam="2">  1       21 0.22015926E+00 0.13739690E+03</pdfrwt>
<totfact> 0.83138876E+04</totfact>
</mgrwt>
</event>
<event>
 5    1  0.1624116E+000  0.7518619E+02  0.7546771E-02  0.1343295E+00
         21   -1    0    0  501  502  0.00000000000E+00  0.00000000000E+00  0.21036632399E+03  0.21036632399E+03  0.00000000000E+00 0. -1.
         21   -1    0    0  502  503 -0.00000000000E+00 -0.00000000000E+00 -0.65048584136E+02  0.65048584136E+02  0.00000000000E+00 0.  1.
         24    1    1    2    0    0  0.20971034810E+01 -0.29202254017E+02 -0.17610981933E+02  0.87375809706E+02  0.80419002446E+02 0.  1.
          1    1    1    2  501    0 -0.23450475127E+02 -0.54603701026E+01  0.13846398342E+03  0.14054186255E+03  0.00000000000E+00 0. -1.
         -2    1    1    2    0  503  0.21353371646E+02  0.34662624120E+02  0.24464738365E+02  0.47497235865E+02  0.00000000000E+00 0.  1.
<mgrwt>
<rscale>  2 0.75186193E+02</rscale>
<asrwt>0</asrwt>
<pdfrwt beam="1">  1       21 0.32364049E-01 0.75186193E+02</pdfrwt>
<pdfrwt beam="2">  1       21 0.10007475E-01 0.75186193E+02</pdfrwt>
<totfact> 0.74438183E+05</totfact>
</mgrwt>
</event>
<event>
 5    1  0.1624116E+000  0.1592006E+03  0.7546771E-02  0.1189602E+00
         21   -1    0    0  503  502  0.00000000000E+00  0.00000000000E+00  0.22546195517E+02  0.22546195517E+02  0.00000000000E+00 0. -1.
         21   -1    0    0  501  503 -0.00000000000E+00 -0.00000000000E+00 -0.16956127043E+04  0.16956127043E+04  0.00000000000E+00 0. -1.
         24    1    1    2    0    0 -0.12230904619E+03  0.33661869210E+02 -0.35758927463E+03  0.38785297408E+03  0.80419002446E+02 0. -1.
          1    1    1    2  501    0  0.13734856777E+03 -0.69221750907E+01 -0.12548024075E+04  0.12623159776E+04  0.00000000000E+00 0. -1.
         -2    1    1    2    0  502 -0.15039521574E+02 -0.26739694119E+02 -0.60674826683E+02  0.67989948109E+02  0.00000000000E+00 0.  1.
<mgrwt>
<rscale>  2 0.15920059E+03</rscale>
<asrwt>0</asrwt>
<pdfrwt beam="1">  1       21 0.34686437E-02 0.15920059E+03</pdfrwt>
<pdfrwt beam="2">  1       21 0.26086363E+00 0.15920059E+03</pdfrwt>
<totfact> 0.29449575E+04</totfact>
</mgrwt>
</event>
<event>
 5    1  0.1624116E+000  0.8665311E+02  0.7546771E-02  0.1311165E+00
         21   -1    0    0  503  502  0.00000000000E+00  0.00000000000E+00  0.24315363902E+02  0.24315363902E+02  0.00000000000E+00 0. -1.
         21   -1    0    0  501  503 -0.00000000000E+00 -0.00000000000E+00 -0.49222984091E+03  0.49222984091E+03  0.00000000000E+00 0. -1.
         24    1    1    2    0    0  0.44031087677E+02  0.39591244049E+02 -0.14321704657E+03  0.17459822928E+03  0.80419002446E+02 0. -1.
          1    1    1    2  501    0 -0.24363031293E+02 -0.46579771285E+02 -0.31423023817E+03  0.31859672780E+03  0.00000000000E+00 0. -1.
         -2    1    1    2    0  502 -0.19668056384E+02  0.69885272351E+01 -0.10467192276E+02  0.23350247729E+02  0.00000000000E+00 0.  1.
<mgrwt>
<rscale>  2 0.86653110E+02</rscale>
<asrwt>0</asrwt>
<pdfrwt beam="1">  1       21 0.37408251E-02 0.86653110E+02</pdfrwt>
<pdfrwt beam="2">  1       21 0.75727670E-01 0.86653110E+02</pdfrwt>
<totfact> 0.68748056E+05</totfact>
</mgrwt>
</event>
<event>
 5    1  0.1624116E+000  0.1355946E+03  0.7546771E-02  0.1219383E+00
         21   -1    0    0  503  502  0.00000000000E+00  0.00000000000E+00  0.31602478238E+02  0.31602478238E+02  0.00000000000E+00 0.  1.
         21   -1    0    0  501  503 -0.00000000000E+00 -0.00000000000E+00 -0.12348361129E+04  0.12348361129E+04  0.00000000000E+00 0. -1.
         24    1    1    2    0    0  0.48262113975E+02  0.25178135089E+00 -0.23120817497E+03  0.24950697619E+03  0.80419002446E+02 0.  1.
          1    1    1    2  501    0  0.61651468807E+02  0.21617101280E+02 -0.84505938380E+03  0.84758100782E+03  0.00000000000E+00 0. -1.
         -2    1    1    2    0  502 -0.10991358278E+03 -0.21868882631E+02 -0.12696607590E+03  0.16935060714E+03  0.00000000000E+00 0.  1.
<mgrwt>
<rscale>  2 0.13559462E+03</rscale>
<asrwt>0</asrwt>
<pdfrwt beam="1">  1       21 0.48619204E-02 0.13559462E+03</pdfrwt>
<pdfrwt beam="2">  1       21 0.18997476E+00 0.13559462E+03</pdfrwt>
<totfact> 0.45790479E+04</totfact>
</mgrwt>
</event>
<event>
 5    1  0.1624116E+000  0.1759719E+03  0.7546771E-02  0.1171759E+00
         21   -1    0    0  501  502  0.00000000000E+00  0.00000000000E+00  0.14977939440E+03  0.14977939440E+03  0.00000000000E+00 0. -1.
         21   -1    0    0  502  503 -0.00000000000E+00 -0.00000000000E+00 -0.23643206658E+03  0.23643206658E+03  0.00000000000E+00 0.  1.
         24    1    1    2    0    0  0.36564612987E+02 -0.12903685516E+03 -0.37006294308E+02  0.16069898159E+03  0.80419002446E+02 0.  1.
          1    1    1    2  501    0 -0.62990081575E+00  0.15259443238E+03  0.89410789938E+01  0.15285745144E+03  0.00000000000E+00 0. -1.
         -2    1    1    2    0  503 -0.35934712171E+02 -0.23557577216E+02 -0.58587456871E+02  0.72655027945E+02  0.00000000000E+00 0.  1.
<mgrwt>
<rscale>  2 0.17597194E+03</rscale>
<asrwt>0</asrwt>
<pdfrwt beam="1">  1       21 0.23042984E-01 0.17597194E+03</pdfrwt>
<pdfrwt beam="2">  1       21 0.36374164E-01 0.17597194E+03</pdfrwt>
<totfact> 0.12965169E+05</totfact>
</mgrwt>
</event>
<event>
 5    1  0.1791751E+000  0.7977677E+02  0.7546771E-02  0.1329686E+00
         21   -1    0    0  501  502  0.00000000000E+00  0.00000000000E+00  0.35394646665E+02  0.35394646665E+02  0.00000000000E+00 0.  1.
         21   -1    0    0  502  503 -0.00000000000E+00 -0.00000000000E+00 -0.12495095392E+04  0.12495095392E+04  0.00000000000E+00 0.  1.
         24    1    1    2    0    0 -0.28146443360E+02  0.30311090555E+02 -0.77155229925E+02  0.11887442931E+03  0.80419002446E+02 0.  1.
          1    1    1    2  501    0 -0.12329293799E+02 -0.25545028540E+02 -0.24921986803E-01  0.28364777274E+02  0.00000000000E+00 0. -1.
         -2    1    1    2    0  503  0.40475737160E+02 -0.47660620149E+01 -0.11369347406E+04  0.11376649793E+04  0.00000000000E+00 0.  1.
<mgrwt>
<rscale>  2 0.79776773E+02</rscale>
<asrwt>0</asrwt>
<pdfrwt beam="1">  1       21 0.54453314E-02 0.79776773E+02</pdfrwt>
<pdfrwt beam="2">  1       21 0.19223220E+00 0.79776773E+02</pdfrwt>
<totfact> 0.38762118E+04</totfact>
</mgrwt>
</event>
<event>
 5    1  0.1624116E+000  0.1301943E+03  0.7546771E-02  0.1227168E+00
         21   -1    0    0  501  502  0.00000000000E+00  0.00000000000E+00  0.13224933338E+03  0.13224933338E+03  0.00000000000E+00 0. -1.
         21   -1    0    0  502  503 -0.00000000000E+00 -0.00000000000E+00 -0.22239964799E+03  0.22239964799E+03  0.00000000000E+00 0. -1.
         24    1    1    2    0    0  0.10036151831E+03 -0.25309655490E+02 -0.92109301777E+02  0.16020097517E+03  0.80419002446E+02 0. -1.
          1    1    1    2  501    0 -0.45688988924E+02  0.51370719605E+02  0.73547492749E+02  0.10067605590E+03  0.00000000000E+00 0. -1.
         -2    1    1    2    0  503 -0.54672529383E+02 -0.26061064115E+02 -0.71588505579E+02  0.93771950300E+02  0.00000000000E+00 0.  1.
<mgrwt>
<rscale>  2 0.13019432E+03</rscale>
<asrwt>0</asrwt>
<pdfrwt beam="1">  1       21 0.20346052E-01 0.13019432E+03</pdfrwt>
<pdfrwt beam="2">  1       21 0.34215330E-01 0.13019432E+03</pdfrwt>
<totfact> 0.18730072E+05</totfact>
</mgrwt>
</event>
<event>
 5    1  0.1624116E+000  0.8181653E+02  0.7546771E-02  0.1323974E+00
         21   -1    0    0  503  502  0.00000000000E+00  0.00000000000E+00  0.38416044908E+03  0.38416044908E+03  0.00000000000E+00 0.  1.
         21   -1    0    0  501  503 -0.00000000000E+00 -0.00000000000E+00 -0.93812312984E+02  0.93812312984E+02  0.00000000000E+00 0. -1.
         24    1    1    2    0    0  0.22367102324E+02  0.29665577021E+02  0.93134564252E+02  0.12853636349E+03  0.80419002446E+02 0. -1.
          1    1    1    2  501    0 -0.44520631897E+02 -0.10473457026E+02 -0.68360779178E+02  0.82249474749E+02  0.00000000000E+00 0. -1.
         -2    1    1    2    0  502  0.22153529574E+02 -0.19192119996E+02  0.26557435103E+03  0.26718692383E+03  0.00000000000E+00 0.  1.
<mgrwt>
<rscale>  2 0.81816532E+02</rscale>
<asrwt>0</asrwt>
<pdfrwt beam="1">  1       21 0.59101607E-01 0.81816532E+02</pdfrwt>
<pdfrwt beam="2">  1       21 0.14432664E-01 0.81816532E+02</pdfrwt>
<totfact> 0.11774438E+05</totfact>
</mgrwt>
</event>
<event>
 5    1  0.1624116E+000  0.1102297E+03  0.7546771E-02  0.1260145E+00
         21   -1    0    0  503  502  0.00000000000E+00  0.00000000000E+00  0.12314587995E+03  0.12314587995E+03  0.00000000000E+00 0. -1.
         21   -1    0    0  501  503 -0.00000000000E+00 -0.00000000000E+00 -0.14527830827E+03  0.14527830827E+03  0.00000000000E+00 0.  1.
         24    1    1    2    0    0  0.36556343127E+02 -0.19158150422E+02 -0.53780299858E+02  0.10518049989E+03  0.80419002446E+02 0.  1.
          1    1    1    2  501    0 -0.33168979812E+02 -0.50450203369E+02 -0.32461572844E+02  0.68550404472E+02  0.00000000000E+00 0. -1.
         -2    1    1    2    0  502 -0.33873633150E+01  0.69608353791E+02  0.64109444385E+02  0.94693283854E+02  0.00000000000E+00 0.  1.
<mgrwt>
<rscale>  2 0.11022969E+03</rscale>
<asrwt>0</asrwt>
<pdfrwt beam="1">  1       21 0.18945520E-01 0.11022969E+03</pdfrwt>
<pdfrwt beam="2">  1       21 0.22350509E-01 0.11022969E+03</pdfrwt>
<totfact> 0.48308616E+05</totfact>
</mgrwt>
</event>
<event>
 5    1  0.1624116E+000  0.7899853E+02  0.7546771E-02  0.1331918E+00
         21   -1    0    0  501  502  0.00000000000E+00  0.00000000000E+00  0.17352167071E+02  0.17352167071E+02  0.00000000000E+00 0.  1.
         21   -1    0    0  502  503 -0.00000000000E+00 -0.00000000000E+00 -0.43091001664E+03  0.43091001664E+03  0.00000000000E+00 0. -1.
         24    1    1    2    0    0  0.23728305364E+02  0.14950120011E+02 -0.24125693626E+03  0.25584890817E+03  0.80419002446E+02 0.  0.
          1    1    1    2  501    0 -0.19496310840E+02 -0.41548385085E+02 -0.52998668184E+02  0.70108724627E+02  0.00000000000E+00 0. -1.
         -2    1    1    2    0  503 -0.42319945247E+01  0.26598265074E+02 -0.11930224513E+03  0.12230455092E+03  0.00000000000E+00 0.  1.
<mgrwt>
<rscale>  2 0.78998532E+02</rscale>
<asrwt>0</asrwt>
<pdfrwt beam="1">  1       21 0.26695644E-02 0.78998532E+02</pdfrwt>
<pdfrwt beam="2">  1       21 0.66293843E-01 0.78998532E+02</pdfrwt>
<totfact> 0.15824122E+06</totfact>
</mgrwt>
</event>
<event>
 5    1  0.1624116E+000  0.7431474E+02  0.7546771E-02  0.1346006E+00
         21   -1    0    0  503  502  0.00000000000E+00  0.00000000000E+00  0.30976033980E+03  0.30976033980E+03  0.00000000000E+00 0. -1.
         21   -1    0    0  501  503 -0.00000000000E+00 -0.00000000000E+00 -0.21691312986E+02  0.21691312986E+02  0.00000000000E+00 0.  1.
         24    1    1    2    0    0 -0.18313123377E+02  0.47460682661E+02  0.16856460781E+03  0.19356944450E+03  0.80419002446E+02 0. -1.
          1    1    1    2  501    0  0.17601608535E+02 -0.22817015371E+02  0.19284838965E+02  0.34674743364E+02  0.00000000000E+00 0. -1.
         -2    1    1    2    0  502  0.71151484205E+00 -0.24643667290E+02  0.10021958004E+03  0.10320746492E+03  0.00000000000E+00 0.  1.
<mgrwt>
<rscale>  2 0.74314736E+02</rscale>
<asrwt>0</asrwt>
<pdfrwt beam="1">  1       21 0.47655434E-01 0.74314736E+02</pdfrwt>
<pdfrwt beam="2">  1       21 0.33371253E-02 0.74314736E+02</pdfrwt>
<totfact> 0.21785953E+06</totfact>
</mgrwt>
</event>
<event>
 5    1  0.1624116E+000  0.7119863E+02  0.7546771E-02  0.1356064E+00
         21   -1    0    0  501  502  0.00000000000E+00  0.00000000000E+00  0.18534303858E+04  0.18534303858E+04  0.00000000000E+00 0. -1.
         21   -1    0    0  502  503 -0.00000000000E+00 -0.00000000000E+00 -0.87278407852E+01  0.87278407852E+01  0.00000000000E+00 0.  1.
         24    1    1    2    0    0 -0.14758354850E+02 -0.94498969684E+01  0.10750928605E+04  0.10782388345E+04  0.80419002446E+02 0.  0.
          1    1    1    2  501    0  0.36506529616E+02  0.33002876158E+00  0.75561544788E+03  0.75649688743E+03  0.00000000000E+00 0. -1.
         -2    1    1    2    0  503 -0.21748174766E+02  0.91198682069E+01  0.13994236632E+02  0.27422504639E+02  0.00000000000E+00 0.  1.
<mgrwt>
<rscale>  2 0.71198627E+02</rscale>
<asrwt>0</asrwt>
<pdfrwt beam="1">  1       21 0.28514282E+00 0.71198627E+02</pdfrwt>
<pdfrwt beam="2">  1       21 0.13427462E-02 0.71198627E+02</pdfrwt>
<totfact> 0.11143835E+05</totfact>
</mgrwt>
</event>
<event>
 5    1  0.1624116E+000  0.1211976E+03  0.7546771E-02  0.1241134E+00
         21   -1    0    0  501  502  0.00000000000E+00  0.00000000000E+00  0.10671361720E+03  0.10671361720E+03  0.00000000000E+00 0. -1.
         21   -1    0    0  502  503 -0.00000000000E+00 -0.00000000000E+00 -0.24900508895E+03  0.24900508895E+03  0.00000000000E+00 0. -1.
         24    1    1    2    0    0  0.54309621899E+02  0.72525094716E+02 -0.15688316515E+03  0.19821444916E+03  0.80419002446E+02 0. -1.
          1    1    1    2  501    0 -0.75737448914E+02 -0.56702486504E+02  0.54753058573E+02  0.10931253618E+03  0.00000000000E+00 0. -1.
         -2    1    1    2    0  503  0.21427827014E+02 -0.15822608212E+02 -0.40161365176E+02  0.48191720803E+02  0.00000000000E+00 0.  1.
<mgrwt>
<rscale>  2 0.12119762E+03</rscale>
<asrwt>0</asrwt>
<pdfrwt beam="1">  1       21 0.16417480E-01 0.12119762E+03</pdfrwt>
<pdfrwt beam="2">  1       21 0.38308475E-01 0.12119762E+03</pdfrwt>
<totfact> 0.22259832E+05</totfact>
</mgrwt>
</event>
<event>
 5    1  0.1624116E+000  0.7156731E+02  0.7546771E-02  0.1354843E+00
         21   -1    0    0  503  502  0.00000000000E+00  0.00000000000E+00  0.21078351895E+03  0.21078351895E+03  0.00000000000E+00 0.  1.
         21   -1    0    0  501  503 -0.00000000000E+00 -0.00000000000E+00 -0.27625610623E+02  0.27625610623E+02  0.00000000000E+00 0. -1.
         24    1    1    2    0    0 -0.12113517692E+02  0.18797467295E+02  0.12276213977E+03  0.14845147693E+03  0.80419002446E+02 0.  0.
          1    1    1    2  501    0  0.32254488487E+02 -0.20710867133E+00  0.12146018695E+02  0.34466225377E+02  0.00000000000E+00 0. -1.
         -2    1    1    2    0  502 -0.20140970795E+02 -0.18590358624E+02  0.48249749868E+02  0.55491427272E+02  0.00000000000E+00 0.  1.
<mgrwt>
<rscale>  2 0.71567310E+02</rscale>
<asrwt>0</asrwt>
<pdfrwt beam="1">  1       21 0.32428233E-01 0.71567310E+02</pdfrwt>
<pdfrwt beam="2">  1       21 0.42500941E-02 0.71567310E+02</pdfrwt>
<totfact> 0.31184575E+06</totfact>
</mgrwt>
</event>
<event>
 5    1  0.1713023E+000  0.8490924E+02  0.7546771E-02  0.1315670E+00
         21   -1    0    0  501  502  0.00000000000E+00  0.00000000000E+00  0.24615525877E+03  0.24615525877E+03  0.00000000000E+00 0. -1.
         21   -1    0    0  502  503 -0.00000000000E+00 -0.00000000000E+00 -0.13531118187E+03  0.13531118187E+03  0.00000000000E+00 0.  1.
         24    1    1    2    0    0 -0.17942794846E+02 -0.55692611292E+02  0.12531001409E+03  0.15997945626E+03  0.80419002446E+02 0.  1.
          1    1    1    2  501    0  0.24987694103E+02  0.15162850798E+02  0.97719457525E+02  0.10199700623E+03  0.00000000000E+00 0. -1.
         -2    1    1    2    0  503 -0.70448992571E+01  0.40529760494E+02 -0.11218539471E+03  0.11948997815E+03  0.00000000000E+00 0.  1.
<mgrwt>
<rscale>  2 0.84909236E+02</rscale>
<asrwt>0</asrwt>
<pdfrwt beam="1">  1       21 0.37870040E-01 0.84909236E+02</pdfrwt>
<pdfrwt beam="2">  1       21 0.20817105E-01 0.84909236E+02</pdfrwt>
<totfact> 0.14940033E+05</totfact>
</mgrwt>
</event>
<event>
 5    1  0.1624116E+000  0.6943910E+02  0.7546771E-02  0.1362011E+00
         21   -1    0    0  501  502  0.00000000000E+00  0.00000000000E+00  0.28044442637E+02  0.28044442637E+02  0.00000000000E+00 0. -1.
         21   -1    0    0  502  503 -0.00000000000E+00 -0.00000000000E+00 -0.27362005503E+03  0.27362005503E+03  0.00000000000E+00 0.  1.
         24    1    1    2    0    0 -0.77536132148E+01 -0.42090250036E+02 -0.23239954792E+03  0.24961665308E+03  0.80419002446E+02 0.  1.
          1    1    1    2  501    0  0.13368737680E+02  0.14910828045E+02  0.24860702592E+01  0.20180101226E+02  0.00000000000E+00 0. -1.
         -2    1    1    2    0  503 -0.56151244655E+01  0.27179421991E+02 -0.15662134727E+02  0.31867743359E+02  0.00000000000E+00 0.  1.
<mgrwt>
<rscale>  2 0.69439099E+02</rscale>
<asrwt>0</asrwt>
<pdfrwt beam="1">  1       21 0.43145297E-02 0.69439099E+02</pdfrwt>
<pdfrwt beam="2">  1       21 0.42095393E-01 0.69439099E+02</pdfrwt>
<totfact> 0.18291982E+06</totfact>
</mgrwt>
</event>
<event>
 5    1  0.1624116E+000  0.1067823E+03  0.7546771E-02  0.1266647E+00
         21   -1    0    0  503  502  0.00000000000E+00  0.00000000000E+00  0.60290958684E+02  0.60290958684E+02  0.00000000000E+00 0.  1.
         21   -1    0    0  501  503 -0.00000000000E+00 -0.00000000000E+00 -0.94399951963E+03  0.94399951963E+03  0.00000000000E+00 0. -1.
         24    1    1    2    0    0  0.23178201168E+02  0.73102419943E+02 -0.20016959408E+03  0.22894600927E+03  0.80419002446E+02 0.  1.
          1    1    1    2  501    0  0.24163381543E+02 -0.20664984525E+02 -0.70168489612E+03  0.70240487188E+03  0.00000000000E+00 0. -1.
         -2    1    1    2    0  502 -0.47341582711E+02 -0.52437435417E+02  0.18145929256E+02  0.72939597170E+02  0.00000000000E+00 0.  1.
<mgrwt>
<rscale>  2 0.10678229E+03</rscale>
<asrwt>0</asrwt>
<pdfrwt beam="1">  1       21 0.92755325E-02 0.10678229E+03</pdfrwt>
<pdfrwt beam="2">  1       21 0.14523069E+00 0.10678229E+03</pdfrwt>
<totfact> 0.32028832E+04</totfact>
</mgrwt>
</event>
<event>
 5    1  0.1624116E+000  0.6512732E+02  0.7546771E-02  0.1377493E+00
         21   -1    0    0  503  502  0.00000000000E+00  0.00000000000E+00  0.44191534457E+01  0.44191534457E+01  0.00000000000E+00 0. -1.
         21   -1    0    0  501  503 -0.00000000000E+00 -0.00000000000E+00 -0.20580126497E+04  0.20580126497E+04  0.00000000000E+00 0. -1.
         24    1    1    2    0    0  0.45551707574E+01 -0.29698492323E+01 -0.47516942371E+03  0.48195722504E+03  0.80419002446E+02 0. -1.
          1    1    1    2  501    0  0.86102262648E+01 -0.20782216459E+02 -0.13818962511E+04  0.13820793340E+04  0.00000000000E+00 0. -1.
         -2    1    1    2    0  502 -0.13165397022E+02  0.23752065691E+02 -0.19652782143E+03  0.19839524415E+03  0.00000000000E+00 0.  1.
<mgrwt>
<rscale>  2 0.65127316E+02</rscale>
<asrwt>0</asrwt>
<pdfrwt beam="1">  1       21 0.67986938E-03 0.65127316E+02</pdfrwt>
<pdfrwt beam="2">  1       21 0.31661751E+00 0.65127316E+02</pdfrwt>
<totfact> 0.21938908E+05</totfact>
</mgrwt>
</event>
<event>
 5    1  0.1624116E+000  0.7842487E+02  0.7546771E-02  0.1333582E+00
         21   -1    0    0  501  502  0.00000000000E+00  0.00000000000E+00  0.86370643803E+02  0.86370643803E+02  0.00000000000E+00 0. -1.
         21   -1    0    0  502  503 -0.00000000000E+00 -0.00000000000E+00 -0.16499687438E+03  0.16499687438E+03  0.00000000000E+00 0.  1.
         24    1    1    2    0    0  0.19643577807E+02  0.14265773953E+02  0.12409070617E+02  0.84915154381E+02  0.80419002446E+02 0.  0.
          1    1    1    2  501    0 -0.36817388798E+02 -0.31545761551E+02  0.20241924366E+02  0.52539420360E+02  0.00000000000E+00 0. -1.
         -2    1    1    2    0  503  0.17173810991E+02  0.17279987598E+02 -0.11127722556E+03  0.11391294344E+03  0.00000000000E+00 0.  1.
<mgrwt>
<rscale>  2 0.78424874E+02</rscale>
<asrwt>0</asrwt>
<pdfrwt beam="1">  1       21 0.13287792E-01 0.78424874E+02</pdfrwt>
<pdfrwt beam="2">  1       21 0.25384134E-01 0.78424874E+02</pdfrwt>
<totfact> 0.71951538E+05</totfact>
</mgrwt>
</event>
<event>
 5    1  0.1624116E+000  0.6676459E+02  0.7546771E-02  0.1371454E+00
         21   -1    0    0  503  502  0.00000000000E+00  0.00000000000E+00  0.98535078525E+01  0.98535078525E+01  0.00000000000E+00 0.  1.
         21   -1    0    0  501  503 -0.00000000000E+00 -0.00000000000E+00 -0.79244230557E+03  0.79244230557E+03  0.00000000000E+00 0.  1.
         24    1    1    2    0    0 -0.29778836015E+02 -0.30258773213E+02 -0.53020796718E+03  0.53794988321E+03  0.80419002446E+02 0.  1.
          1    1    1    2  501    0  0.13486191946E+02  0.16141347301E+02 -0.23683520595E+03  0.23776739736E+03  0.00000000000E+00 0. -1.
         -2    1    1    2    0  502  0.16292644069E+02  0.14117425912E+02 -0.15545624585E+02  0.26578532858E+02  0.00000000000E+00 0.  1.
<mgrwt>
<rscale>  2 0.66764589E+02</rscale>
<asrwt>0</asrwt>
<pdfrwt beam="1">  1       21 0.15159242E-02 0.66764589E+02</pdfrwt>
<pdfrwt beam="2">  1       21 0.12191421E+00 0.66764589E+02</pdfrwt>
<totfact> 0.98599811E+05</totfact>
</mgrwt>
</event>
<event>
 5    1  0.1624116E+000  0.1197650E+03  0.7546771E-02  0.1243485E+00
         21   -1    0    0  503  502  0.00000000000E+00  0.00000000000E+00  0.17214983758E+02  0.17214983758E+02  0.00000000000E+00 0. -1.
         21   -1    0    0  501  503 -0.00000000000E+00 -0.00000000000E+00 -0.85485180621E+03  0.85485180621E+03  0.00000000000E+00 0.  1.
         24    1    1    2    0    0 -0.70812790832E+02  0.80025804997E+01 -0.40044625020E+03  0.41461175561E+03  0.80419002446E+02 0.  0.
          1    1    1    2  501    0  0.71035743328E+02 -0.52029229919E+02 -0.33071153461E+03  0.34223272304E+03  0.00000000000E+00 0. -1.
         -2    1    1    2    0  502 -0.22295249579E+00  0.44026649419E+02 -0.10647903765E+03  0.11522231132E+03  0.00000000000E+00 0.  1.
<mgrwt>
<rscale>  2 0.11976498E+03</rscale>
<asrwt>0</asrwt>
<pdfrwt beam="1">  1       21 0.26484592E-02 0.11976498E+03</pdfrwt>
<pdfrwt beam="2">  1       21 0.13151565E+00 0.11976498E+03</pdfrwt>
<totfact> 0.33329870E+05</totfact>
</mgrwt>
</event>
<event>
 5    1  0.1624116E+000  0.7828004E+02  0.7546771E-02  0.1334005E+00
         21   -1    0    0  503  502  0.00000000000E+00  0.00000000000E+00  0.26164946765E+02  0.26164946765E+02  0.00000000000E+00 0.  1.
         21   -1    0    0  501  503 -0.00000000000E+00 -0.00000000000E+00 -0.63247612018E+03  0.63247612018E+03  0.00000000000E+00 0.  1.
         24    1    1    2    0    0  0.51892949028E+02 -0.21118366314E+02 -0.16784245073E+03  0.19436349394E+03  0.80419002446E+02 0.  1.
          1    1    1    2  501    0 -0.16658823743E+02  0.15718663739E+02 -0.42584842844E+03  0.42646392205E+03  0.00000000000E+00 0. -1.
         -2    1    1    2    0  502 -0.35234125285E+02  0.53997025748E+01 -0.12620294247E+02  0.37813650966E+02  0.00000000000E+00 0.  1.
<mgrwt>
<rscale>  2 0.78280041E+02</rscale>
<asrwt>0</asrwt>
<pdfrwt beam="1">  1       21 0.40253766E-02 0.78280041E+02</pdfrwt>
<pdfrwt beam="2">  1       21 0.97304014E-01 0.78280041E+02</pdfrwt>
<totfact> 0.34846207E+05</totfact>
</mgrwt>
</event>
<event>
 5    1  0.1624116E+000  0.1713748E+03  0.7546771E-02  0.1176422E+00
         21   -1    0    0  503  502  0.00000000000E+00  0.00000000000E+00  0.49027598305E+02  0.49027598305E+02  0.00000000000E+00 0. -1.
         21   -1    0    0  501  503 -0.00000000000E+00 -0.00000000000E+00 -0.66885083227E+03  0.66885083227E+03  0.00000000000E+00 0. -1.
         24    1    1    2    0    0  0.13572775734E+03 -0.79791063899E+02 -0.20448491358E+03  0.27031450909E+03  0.80419002446E+02 0. -1.
          1    1    1    2  501    0 -0.11203910375E+03  0.38715642070E+02 -0.31561439053E+03  0.33714107614E+03  0.00000000000E+00 0. -1.
         -2    1    1    2    0  502 -0.23688653596E+02  0.41075421829E+02 -0.99723929856E+02  0.11042284534E+03  0.00000000000E+00 0.  1.
<mgrwt>
<rscale>  2 0.17137482E+03</rscale>
<asrwt>0</asrwt>
<pdfrwt beam="1">  1       21 0.75427079E-02 0.17137482E+03</pdfrwt>
<pdfrwt beam="2">  1       21 0.10290012E+00 0.17137482E+03</pdfrwt>
<totfact> 0.10284524E+05</totfact>
</mgrwt>
</event>
<event>
 5    1  0.1624116E+000  0.7696712E+02  0.7546771E-02  0.1337886E+00
         21   -1    0    0  501  502  0.00000000000E+00  0.00000000000E+00  0.25248753799E+02  0.25248753799E+02  0.00000000000E+00 0. -1.
         21   -1    0    0  502  503 -0.00000000000E+00 -0.00000000000E+00 -0.26125444545E+03  0.26125444545E+03  0.00000000000E+00 0.  1.
         24    1    1    2    0    0 -0.23605417981E+01 -0.24690218054E+02 -0.13834173914E+03  0.16192847732E+03  0.80419002446E+02 0.  1.
          1    1    1    2  501    0 -0.21727954075E+02 -0.12798022459E+02 -0.11809712792E+02  0.27845335038E+02  0.00000000000E+00 0. -1.
         -2    1    1    2    0  503  0.24088495873E+02  0.37488240513E+02 -0.85854239723E+02  0.96729386892E+02  0.00000000000E+00 0.  1.
<mgrwt>
<rscale>  2 0.76967116E+02</rscale>
<asrwt>0</asrwt>
<pdfrwt beam="1">  1       21 0.38844237E-02 0.76967116E+02</pdfrwt>
<pdfrwt beam="2">  1       21 0.40192992E-01 0.76967116E+02</pdfrwt>
<totfact> 0.23918039E+06</totfact>
</mgrwt>
</event>
<event>
 5    1  0.1624116E+000  0.6474399E+02  0.7546771E-02  0.1378937E+00
         21   -1    0    0  503  502  0.00000000000E+00  0.00000000000E+00  0.73307134080E+01  0.73307134080E+01  0.00000000000E+00 0. -1.
         21   -1    0    0  501  503 -0.00000000000E+00 -0.00000000000E+00 -0.60620897234E+03  0.60620897234E+03  0.00000000000E+00 0.  1.
         24    1    1    2    0    0 -0.11592066003E+02  0.27902293481E+01 -0.34033675080E+03  0.34991210507E+03  0.80419002446E+02 0. -1.
          1    1    1    2  501    0  0.15793106321E+02  0.19734970672E+02 -0.18147549880E+03  0.18322731221E+03  0.00000000000E+00 0. -1.
         -2    1    1    2    0  502 -0.42010403189E+01 -0.22525200020E+02 -0.77066009326E+02  0.80400268464E+02  0.00000000000E+00 0.  1.
<mgrwt>
<rscale>  2 0.64743991E+02</rscale>
<asrwt>0</asrwt>
<pdfrwt beam="1">  1       21 0.11278020E-02 0.64743991E+02</pdfrwt>
<pdfrwt beam="2">  1       21 0.93262926E-01 0.64743991E+02</pdfrwt>
<totfact> 0.29099998E+06</totfact>
</mgrwt>
</event>
<event>
 5    1  0.1624116E+000  0.8323010E+02  0.7546771E-02  0.1320127E+00
         21   -1    0    0  503  502  0.00000000000E+00  0.00000000000E+00  0.12622811631E+03  0.12622811631E+03  0.00000000000E+00 0.  1.
         21   -1    0    0  501  503 -0.00000000000E+00 -0.00000000000E+00 -0.55940157381E+02  0.55940157381E+02  0.00000000000E+00 0. -1.
         24    1    1    2    0    0  0.35893842376E+02  0.10071626589E+02  0.47212356002E+02  0.10042921934E+03  0.80419002446E+02 0.  1.
          1    1    1    2  501    0 -0.40892764110E+02  0.21262308145E+02  0.86992472662E+01  0.46903953002E+02  0.00000000000E+00 0. -1.
         -2    1    1    2    0  502  0.49989217337E+01 -0.31333934734E+02  0.14376355663E+02  0.34835101357E+02  0.00000000000E+00 0.  1.
<mgrwt>
<rscale>  2 0.83230099E+02</rscale>
<asrwt>0</asrwt>
<pdfrwt beam="1">  1       21 0.19419710E-01 0.83230099E+02</pdfrwt>
<pdfrwt beam="2">  1       21 0.86061781E-02 0.83230099E+02</pdfrwt>
<totfact> 0.25098506E+06</totfact>
</mgrwt>
</event>
<event>
 5    1  0.1624116E+000  0.9355408E+02  0.7546771E-02  0.1294466E+00
         21   -1    0    0  501  502  0.00000000000E+00  0.00000000000E+00  0.15198345741E+03  0.15198345741E+03  0.00000000000E+00 0. -1.
         21   -1    0    0  502  503 -0.00000000000E+00 -0.00000000000E+00 -0.13000037483E+03  0.13000037483E+03  0.00000000000E+00 0. -1.
         24    1    1    2    0    0  0.41037836183E+02  0.61602971350E+02 -0.56554194374E+02  0.12306349147E+03  0.80419002446E+02 0. -1.
          1    1    1    2  501    0 -0.16308646970E+01 -0.21582138123E+02  0.97319701957E+02  0.99697406158E+02  0.00000000000E+00 0. -1.
         -2    1    1    2    0  503 -0.39406971486E+02 -0.40020833227E+02 -0.18782425003E+02  0.59222934602E+02  0.00000000000E+00 0.  1.
<mgrwt>
<rscale>  2 0.93554085E+02</rscale>
<asrwt>0</asrwt>
<pdfrwt beam="1">  1       21 0.23382070E-01 0.93554085E+02</pdfrwt>
<pdfrwt beam="2">  1       21 0.20000058E-01 0.93554085E+02</pdfrwt>
<totfact> 0.40267093E+05</totfact>
</mgrwt>
</event>
<event>
 5    1  0.1624116E+000  0.9352354E+02  0.7546771E-02  0.1294536E+00
         21   -1    0    0  503  502  0.00000000000E+00  0.00000000000E+00  0.65442456645E+02  0.65442456645E+02  0.00000000000E+00 0. -1.
         21   -1    0    0  501  503 -0.00000000000E+00 -0.00000000000E+00 -0.20466396864E+03  0.20466396864E+03  0.00000000000E+00 0.  1.
         24    1    1    2    0    0  0.83217901583E+01  0.13480472747E+02 -0.11758281992E+03  0.14333147188E+03  0.80419002446E+02 0.  0.
          1    1    1    2  501    0  0.90738453907E+01  0.44052439612E+02 -0.43736514062E+02  0.62736231702E+02  0.00000000000E+00 0. -1.
         -2    1    1    2    0  502 -0.17395635549E+02 -0.57532912359E+02  0.22097821987E+02  0.64038721702E+02  0.00000000000E+00 0.  1.
<mgrwt>
<rscale>  2 0.93523544E+02</rscale>
<asrwt>0</asrwt>
<pdfrwt beam="1">  1       21 0.10068070E-01 0.93523544E+02</pdfrwt>
<pdfrwt beam="2">  1       21 0.31486764E-01 0.93523544E+02</pdfrwt>
<totfact> 0.77876209E+05</totfact>
</mgrwt>
</event>
<event>
 5    1  0.1624116E+000  0.1019727E+03  0.7546771E-02  0.1276201E+00
         21   -1    0    0  501  502  0.00000000000E+00  0.00000000000E+00  0.47108045348E+02  0.47108045348E+02  0.00000000000E+00 0. -1.
         21   -1    0    0  502  503 -0.00000000000E+00 -0.00000000000E+00 -0.25254762165E+03  0.25254762165E+03  0.00000000000E+00 0. -1.
         24    1    1    2    0    0 -0.45658162952E+02 -0.15204307042E+02 -0.59220466973E+02  0.11086080669E+03  0.80419002446E+02 0. -1.
          1    1    1    2  501    0  0.75176314774E+02  0.24844174326E+02 -0.67042894303E+02  0.10374710106E+03  0.00000000000E+00 0. -1.
         -2    1    1    2    0  503 -0.29518151822E+02 -0.96398672842E+01 -0.79176215030E+02  0.85047759258E+02  0.00000000000E+00 0.  1.
<mgrwt>
<rscale>  2 0.10197275E+03</rscale>
<asrwt>0</asrwt>
<pdfrwt beam="1">  1       21 0.72473916E-02 0.10197275E+03</pdfrwt>
<pdfrwt beam="2">  1       21 0.38853480E-01 0.10197275E+03</pdfrwt>
<totfact> 0.91038095E+05</totfact>
</mgrwt>
</event>
<event>
 5    1  0.1624116E+000  0.8424473E+02  0.7546771E-02  0.1317420E+00
         21   -1    0    0  501  502  0.00000000000E+00  0.00000000000E+00  0.11611502677E+03  0.11611502677E+03  0.00000000000E+00 0. -1.
         21   -1    0    0  502  503 -0.00000000000E+00 -0.00000000000E+00 -0.70920113182E+02  0.70920113182E+02  0.00000000000E+00 0.  1.
         24    1    1    2    0    0  0.35378160670E+02  0.10476151643E+02 -0.36458191557E+01  0.88554344655E+02  0.80419002446E+02 0.  1.
          1    1    1    2  501    0  0.21356936207E+02 -0.92174981612E+01  0.31468136662E+02  0.39132143073E+02  0.00000000000E+00 0. -1.
         -2    1    1    2    0  503 -0.56735096877E+02 -0.12586534815E+01  0.17372596083E+02  0.59348652225E+02  0.00000000000E+00 0.  1.
<mgrwt>
<rscale>  2 0.84244734E+02</rscale>
<asrwt>0</asrwt>
<pdfrwt beam="1">  1       21 0.17863850E-01 0.84244734E+02</pdfrwt>
<pdfrwt beam="2">  1       21 0.10910787E-01 0.84244734E+02</pdfrwt>
<totfact> 0.19403429E+06</totfact>
</mgrwt>
</event>
<event>
 5    1  0.1624116E+000  0.8762507E+02  0.7546771E-02  0.1308707E+00
         21   -1    0    0  501  502  0.00000000000E+00  0.00000000000E+00  0.44333175181E+03  0.44333175181E+03  0.00000000000E+00 0.  1.
         21   -1    0    0  502  503 -0.00000000000E+00 -0.00000000000E+00 -0.21728744020E+02  0.21728744020E+02  0.00000000000E+00 0. -1.
         24    1    1    2    0    0  0.25152917140E+02 -0.18925111538E+02  0.12042658310E+03  0.14819111633E+03  0.80419002446E+02 0. -1.
          1    1    1    2  501    0  0.13239923636E+02  0.42040285168E+02  0.21777315664E+03  0.22218872363E+03  0.00000000000E+00 0. -1.
         -2    1    1    2    0  503 -0.38392840776E+02 -0.23115173630E+02  0.83403268057E+02  0.94680655877E+02  0.00000000000E+00 0.  1.
<mgrwt>
<rscale>  2 0.87625065E+02</rscale>
<asrwt>0</asrwt>
<pdfrwt beam="1">  1       21 0.68204878E-01 0.87625065E+02</pdfrwt>
<pdfrwt beam="2">  1       21 0.33428840E-02 0.87625065E+02</pdfrwt>
<totfact> 0.10364933E+06</totfact>
</mgrwt>
</event>
<event>
 5    1  0.1624116E+000  0.7637864E+02  0.7546771E-02  0.1339654E+00
         21   -1    0    0  503  502  0.00000000000E+00  0.00000000000E+00  0.19430745249E+03  0.19430745249E+03  0.00000000000E+00 0.  1.
         21   -1    0    0  501  503 -0.00000000000E+00 -0.00000000000E+00 -0.17512796977E+03  0.17512796977E+03  0.00000000000E+00 0. -1.
         24    1    1    2    0    0 -0.36577128792E+02 -0.11390271932E+02 -0.78687094650E+02  0.11885495137E+03  0.80419002446E+02 0.  1.
          1    1    1    2  501    0 -0.63924513156E+01  0.18995384591E+02 -0.72238562717E+02  0.74967312964E+02  0.00000000000E+00 0. -1.
         -2    1    1    2    0  502  0.42969580108E+02 -0.76051126594E+01  0.17010514009E+03  0.17561315793E+03  0.00000000000E+00 0.  1.
<mgrwt>
<rscale>  2 0.76378639E+02</rscale>
<asrwt>0</asrwt>
<pdfrwt beam="1">  1       21 0.29893454E-01 0.76378639E+02</pdfrwt>
<pdfrwt beam="2">  1       21 0.26942764E-01 0.76378639E+02</pdfrwt>
<totfact> 0.14665380E+05</totfact>
</mgrwt>
</event>
<event>
 5    1  0.1624116E+000  0.9079663E+02  0.7546771E-02  0.1300934E+00
         21   -1    0    0  503  502  0.00000000000E+00  0.00000000000E+00  0.32978180429E+03  0.32978180429E+03  0.00000000000E+00 0. -1.
         21   -1    0    0  501  503 -0.00000000000E+00 -0.00000000000E+00 -0.32731661074E+02  0.32731661074E+02  0.00000000000E+00 0. -1.
         24    1    1    2    0    0  0.62418644195E+02 -0.23577742345E+02  0.24538339175E+03  0.26670624660E+03  0.80419002446E+02 0. -1.
          1    1    1    2  501    0 -0.32410549334E+02 -0.81581493409E+01  0.86918328051E+01  0.34533274769E+02  0.00000000000E+00 0. -1.
         -2    1    1    2    0  502 -0.30008094861E+02  0.31735891685E+02  0.42974918664E+02  0.61273943993E+02  0.00000000000E+00 0.  1.
<mgrwt>
<rscale>  2 0.90796629E+02</rscale>
<asrwt>0</asrwt>
<pdfrwt beam="1">  1       21 0.50735660E-01 0.90796629E+02</pdfrwt>
<pdfrwt beam="2">  1       21 0.50356404E-02 0.90796629E+02</pdfrwt>
<totfact> 0.98116085E+05</totfact>
</mgrwt>
</event>
<event>
 5    1  0.1624116E+000  0.1069755E+03  0.7546771E-02  0.1266275E+00
         21   -1    0    0  503  502  0.00000000000E+00  0.00000000000E+00  0.12418685607E+02  0.12418685607E+02  0.00000000000E+00 0.  1.
         21   -1    0    0  501  503 -0.00000000000E+00 -0.00000000000E+00 -0.24932166091E+04  0.24932166091E+04  0.00000000000E+00 0. -1.
         24    1    1    2    0    0 -0.24807380127E+02 -0.30321449057E+02 -0.81906845875E+03  0.82393880383E+03  0.80419002446E+02 0. -1.
          1    1    1    2  501    0 -0.25644289571E+01  0.73407241448E+02 -0.15996068765E+04  0.16012924026E+04  0.00000000000E+00 0. -1.
         -2    1    1    2    0  502  0.27371809084E+02 -0.43085792391E+02 -0.62122588311E+02  0.80404088310E+02  0.00000000000E+00 0.  1.
<mgrwt>
<rscale>  2 0.10697554E+03</rscale>
<asrwt>0</asrwt>
<pdfrwt beam="1">  1       21 0.19105664E-02 0.10697554E+03</pdfrwt>
<pdfrwt beam="2">  1       21 0.38357190E+00 0.10697554E+03</pdfrwt>
<totfact> 0.16668998E+04</totfact>
</mgrwt>
</event>
<event>
 5    1  0.1624116E+000  0.8838655E+02  0.7546771E-02  0.1306807E+00
         21   -1    0    0  503  502  0.00000000000E+00  0.00000000000E+00  0.98638297486E+03  0.98638297486E+03  0.00000000000E+00 0. -1.
         21   -1    0    0  501  503 -0.00000000000E+00 -0.00000000000E+00 -0.79596325849E+01  0.79596325849E+01  0.00000000000E+00 0. -1.
         24    1    1    2    0    0  0.61700043638E+01 -0.59831091288E+02  0.58698551530E+03  0.59551409686E+03  0.80419002446E+02 0. -1.
          1    1    1    2  501    0 -0.24779398703E+02  0.48760157147E+02  0.27228557173E+03  0.27772469119E+03  0.00000000000E+00 0. -1.
         -2    1    1    2    0  502  0.18609394339E+02  0.11070934141E+02  0.11915225524E+03  0.12110381939E+03  0.00000000000E+00 0.  1.
<mgrwt>
<rscale>  2 0.88386554E+02</rscale>
<asrwt>0</asrwt>
<pdfrwt beam="1">  1       21 0.15175113E+00 0.88386554E+02</pdfrwt>
<pdfrwt beam="2">  1       21 0.12245596E-02 0.88386554E+02</pdfrwt>
<totfact> 0.80349799E+05</totfact>
</mgrwt>
</event>
<event>
 5    1  0.1624116E+000  0.6905220E+02  0.7546771E-02  0.1363346E+00
         21   -1    0    0  501  502  0.00000000000E+00  0.00000000000E+00  0.59425812778E+03  0.59425812778E+03  0.00000000000E+00 0. -1.
         21   -1    0    0  502  503 -0.00000000000E+00 -0.00000000000E+00 -0.34211963358E+02  0.34211963358E+02  0.00000000000E+00 0.  1.
         24    1    1    2    0    0  0.18048443348E+02  0.63026792085E+01  0.30725529077E+03  0.31817998009E+03  0.80419002446E+02 0.  0.
          1    1    1    2  501    0 -0.19746760430E+02  0.20572240653E+02  0.27432937729E+03  0.27580746705E+03  0.00000000000E+00 0. -1.
         -2    1    1    2    0  503  0.16983170828E+01 -0.26874919861E+02 -0.21538503636E+02  0.34482644001E+02  0.00000000000E+00 0.  1.
<mgrwt>
<rscale>  2 0.69052202E+02</rscale>
<asrwt>0</asrwt>
<pdfrwt beam="1">  1       21 0.91424320E-01 0.69052202E+02</pdfrwt>
<pdfrwt beam="2">  1       21 0.52633794E-02 0.69052202E+02</pdfrwt>
<totfact> 0.25848451E+05</totfact>
</mgrwt>
</event>
<event>
 5    1  0.1624116E+000  0.8231454E+02  0.7546771E-02  0.1322609E+00
         21   -1    0    0  501  502  0.00000000000E+00  0.00000000000E+00  0.82076455267E+03  0.82076455267E+03  0.00000000000E+00 0.  1.
         21   -1    0    0  502  503 -0.00000000000E+00 -0.00000000000E+00 -0.89832836026E+01  0.89832836026E+01  0.00000000000E+00 0.  1.
         24    1    1    2    0    0  0.41526032616E+02 -0.31461686597E+02  0.40039891315E+03  0.41170469358E+03  0.80419002446E+02 0.  1.
          1    1    1    2  501    0 -0.21941986674E+02 -0.91100486216E+01  0.22686601528E+03  0.22810662562E+03  0.00000000000E+00 0. -1.
         -2    1    1    2    0  503 -0.19584045942E+02  0.40571735219E+02  0.18451634064E+03  0.18993651707E+03  0.00000000000E+00 0.  1.
<mgrwt>
<rscale>  2 0.82314538E+02</rscale>
<asrwt>0</asrwt>
<pdfrwt beam="1">  1       21 0.12627141E+00 0.82314538E+02</pdfrwt>
<pdfrwt beam="2">  1       21 0.13820443E-02 0.82314538E+02</pdfrwt>
<totfact> 0.10497740E+06</totfact>
</mgrwt>
</event>
<event>
 5    1  0.1624116E+000  0.8061230E+02  0.7546771E-02  0.1327323E+00
         21   -1    0    0  503  502  0.00000000000E+00  0.00000000000E+00  0.37764540820E+02  0.37764540820E+02  0.00000000000E+00 0.  1.
         21   -1    0    0  501  503 -0.00000000000E+00 -0.00000000000E+00 -0.58848128184E+03  0.58848128184E+03  0.00000000000E+00 0. -1.
         24    1    1    2    0    0 -0.17280416878E+02  0.16480953490E+02 -0.10043623447E+03  0.13086209452E+03  0.80419002446E+02 0. -1.
          1    1    1    2  501    0  0.25845735040E+02 -0.42611161745E+02 -0.46258232703E+03  0.46525919916E+03  0.00000000000E+00 0. -1.
         -2    1    1    2    0  502 -0.85653181619E+01  0.26130208255E+02  0.12301820477E+02  0.30124528971E+02  0.00000000000E+00 0.  1.
<mgrwt>
<rscale>  2 0.80612303E+02</rscale>
<asrwt>0</asrwt>
<pdfrwt beam="1">  1       21 0.58099295E-02 0.80612303E+02</pdfrwt>
<pdfrwt beam="2">  1       21 0.90535579E-01 0.80612303E+02</pdfrwt>
<totfact> 0.22337939E+05</totfact>
</mgrwt>
</event>
<event>
 5    1  0.1624116E+000  0.6612060E+02  0.7546771E-02  0.1373805E+00
         21   -1    0    0  501  502  0.00000000000E+00  0.00000000000E+00  0.41042396597E+02  0.41042396597E+02  0.00000000000E+00 0. -1.
         21   -1    0    0  502  503 -0.00000000000E+00 -0.00000000000E+00 -0.57083163079E+03  0.57083163079E+03  0.00000000000E+00 0.  1.
         24    1    1    2    0    0  0.41099698357E+00 -0.20573682377E+02 -0.24306794220E+03  0.25685148589E+03  0.80419002446E+02 0.  0.
          1    1    1    2  501    0  0.19812770997E+02  0.21174673216E+02  0.27610278430E+02  0.40040481458E+02  0.00000000000E+00 0. -1.
         -2    1    1    2    0  503 -0.20223767981E+02 -0.60099083879E+00 -0.31433157042E+03  0.31498206004E+03  0.00000000000E+00 0.  1.
<mgrwt>
<rscale>  2 0.66120599E+02</rscale>
<asrwt>0</asrwt>
<pdfrwt beam="1">  1       21 0.63142157E-02 0.66120599E+02</pdfrwt>
<pdfrwt beam="2">  1       21 0.87820239E-01 0.66120599E+02</pdfrwt>
<totfact> 0.20913010E+05</totfact>
</mgrwt>
</event>
<event>
 5    1  0.1624116E+000  0.9447189E+02  0.7546771E-02  0.1292370E+00
         21   -1    0    0  503  502  0.00000000000E+00  0.00000000000E+00  0.15573209129E+03  0.15573209129E+03  0.00000000000E+00 0.  1.
         21   -1    0    0  501  503 -0.00000000000E+00 -0.00000000000E+00 -0.10998712526E+03  0.10998712526E+03  0.00000000000E+00 0.  1.
         24    1    1    2    0    0 -0.68082880326E+02 -0.16488024588E+02  0.19456713286E+02  0.10841085368E+03  0.80419002446E+02 0.  1.
          1    1    1    2  501    0  0.19964339432E+02 -0.14839448895E+02 -0.53504462003E+02  0.59004334983E+02  0.00000000000E+00 0. -1.
         -2    1    1    2    0  502  0.48118540894E+02  0.31327473483E+02  0.79792714746E+02  0.98304027889E+02  0.00000000000E+00 0.  1.
<mgrwt>
<rscale>  2 0.94471887E+02</rscale>
<asrwt>0</asrwt>
<pdfrwt beam="1">  1       21 0.23958783E-01 0.94471887E+02</pdfrwt>
<pdfrwt beam="2">  1       21 0.16921096E-01 0.94471887E+02</pdfrwt>
<totfact> 0.52149852E+05</totfact>
</mgrwt>
</event>
<event>
 5    1  0.1624116E+000  0.8383423E+02  0.7546771E-02  0.1318510E+00
         21   -1    0    0  501  502  0.00000000000E+00  0.00000000000E+00  0.12106735473E+02  0.12106735473E+02  0.00000000000E+00 0. -1.
         21   -1    0    0  502  503 -0.00000000000E+00 -0.00000000000E+00 -0.59578174674E+03  0.59578174674E+03  0.00000000000E+00 0. -1.
         24    1    1    2    0    0 -0.51053938183E+01  0.60755340078E+02 -0.31957530423E+03  0.33513111974E+03  0.80419002446E+02 0. -1.
          1    1    1    2  501    0  0.16205617390E+02 -0.30777785828E+02 -0.10967308778E+03  0.11505685690E+03  0.00000000000E+00 0. -1.
         -2    1    1    2    0  503 -0.11100223571E+02 -0.29977554250E+02 -0.15442661926E+03  0.15770050558E+03  0.00000000000E+00 0.  1.
<mgrwt>
<rscale>  2 0.83834230E+02</rscale>
<asrwt>0</asrwt>
<pdfrwt beam="1">  1       21 0.18625748E-02 0.83834230E+02</pdfrwt>
<pdfrwt beam="2">  1       21 0.91658724E-01 0.83834230E+02</pdfrwt>
<totfact> 0.13864738E+06</totfact>
</mgrwt>
</event>
<event>
 5    1  0.1624116E+000  0.1363558E+03  0.7546771E-02  0.1218318E+00
         21   -1    0    0  503  502  0.00000000000E+00  0.00000000000E+00  0.40322286469E+02  0.40322286469E+02  0.00000000000E+00 0. -1.
         21   -1    0    0  501  503 -0.00000000000E+00 -0.00000000000E+00 -0.48353328218E+03  0.48353328218E+03  0.00000000000E+00 0.  1.
         24    1    1    2    0    0 -0.95948579328E+02 -0.60260116041E+02 -0.20274402989E+03  0.24578398864E+03  0.80419002446E+02 0. -1.
          1    1    1    2  501    0  0.14524427247E+02 -0.16421139434E+02 -0.76576658248E+02  0.79652981085E+02  0.00000000000E+00 0. -1.
         -2    1    1    2    0  502  0.81424152081E+02  0.76681255474E+02 -0.16389030757E+03  0.19841859892E+03  0.00000000000E+00 0.  1.
<mgrwt>
<rscale>  2 0.13635584E+03</rscale>
<asrwt>0</asrwt>
<pdfrwt beam="1">  1       21 0.62034293E-02 0.13635584E+03</pdfrwt>
<pdfrwt beam="2">  1       21 0.74389728E-01 0.13635584E+03</pdfrwt>
<totfact> 0.30553631E+05</totfact>
</mgrwt>
</event>
<event>
 5    1  0.1624116E+000  0.3411888E+03  0.7546771E-02  0.1066291E+00
         21   -1    0    0  501  502  0.00000000000E+00  0.00000000000E+00  0.11019450236E+03  0.11019450236E+03  0.00000000000E+00 0.  1.
         21   -1    0    0  502  503 -0.00000000000E+00 -0.00000000000E+00 -0.14705661445E+04  0.14705661445E+04  0.00000000000E+00 0.  1.
         24    1    1    2    0    0  0.29599905868E+03  0.11163480956E+03 -0.30192137275E+03  0.44463637360E+03  0.80419002446E+02 0.  1.
          1    1    1    2  501    0 -0.31134688721E+03 -0.12510798341E+03 -0.69153788284E+03  0.76864395861E+03  0.00000000000E+00 0. -1.
         -2    1    1    2    0  503  0.15347828530E+02  0.13473173849E+02 -0.36691238657E+03  0.36748031468E+03  0.00000000000E+00 0.  1.
<mgrwt>
<rscale>  2 0.34118879E+03</rscale>
<asrwt>0</asrwt>
<pdfrwt beam="1">  1       21 0.16953000E-01 0.34118879E+03</pdfrwt>
<pdfrwt beam="2">  1       21 0.22624095E+00 0.34118879E+03</pdfrwt>
<totfact> 0.25699238E+03</totfact>
</mgrwt>
</event>
<event>
 5    1  0.1624116E+000  0.6388670E+02  0.7546771E-02  0.1382209E+00
         21   -1    0    0  503  502  0.00000000000E+00  0.00000000000E+00  0.16540157376E+04  0.16540157376E+04  0.00000000000E+00 0.  1.
         21   -1    0    0  501  503 -0.00000000000E+00 -0.00000000000E+00 -0.25038533262E+01  0.25038533262E+01  0.00000000000E+00 0. -1.
         24    1    1    2    0    0  0.13992589597E+00  0.96002935675E+01  0.11006997961E+04  0.11036754244E+04  0.80419002446E+02 0.  1.
          1    1    1    2  501    0 -0.21091615511E+02  0.44508760745E+01  0.21153590502E+03  0.21263138446E+03  0.00000000000E+00 0. -1.
         -2    1    1    2    0  502  0.20951689615E+02 -0.14051169642E+02  0.33927618310E+03  0.34021278207E+03  0.00000000000E+00 0.  1.
<mgrwt>
<rscale>  2 0.63886698E+02</rscale>
<asrwt>0</asrwt>
<pdfrwt beam="1">  1       21 0.25446309E+00 0.63886698E+02</pdfrwt>
<pdfrwt beam="2">  1       21 0.38520953E-03 0.63886698E+02</pdfrwt>
<totfact> 0.11234432E+06</totfact>
</mgrwt>
</event>
<event>
 5    1  0.1624116E+000  0.7187079E+02  0.7546771E-02  0.1353844E+00
         21   -1    0    0  501  502  0.00000000000E+00  0.00000000000E+00  0.78350572031E+03  0.78350572031E+03  0.00000000000E+00 0. -1.
         21   -1    0    0  502  503 -0.00000000000E+00 -0.00000000000E+00 -0.10376887024E+02  0.10376887024E+02  0.00000000000E+00 0.  1.
         24    1    1    2    0    0  0.16814929508E+02  0.11497678262E+02  0.25034503199E+03  0.26373242019E+03  0.80419002446E+02 0. -1.
          1    1    1    2  501    0 -0.91306007928E+01 -0.34939933832E+02  0.47502905623E+03  0.47639980175E+03  0.00000000000E+00 0. -1.
         -2    1    1    2    0  503 -0.76843287148E+01  0.23442255570E+02  0.47754745054E+02  0.53750385387E+02  0.00000000000E+00 0.  1.
<mgrwt>
<rscale>  2 0.71870792E+02</rscale>
<asrwt>0</asrwt>
<pdfrwt beam="1">  1       21 0.12053929E+00 0.71870792E+02</pdfrwt>
<pdfrwt beam="2">  1       21 0.15964448E-02 0.71870792E+02</pdfrwt>
<totfact> 0.93455595E+05</totfact>
</mgrwt>
</event>
<event>
 5    1  0.1624116E+000  0.1124298E+03  0.7546771E-02  0.1256135E+00
         21   -1    0    0  501  502  0.00000000000E+00  0.00000000000E+00  0.12283020483E+04  0.12283020483E+04  0.00000000000E+00 0. -1.
         21   -1    0    0  502  503 -0.00000000000E+00 -0.00000000000E+00 -0.79792718468E+02  0.79792718468E+02  0.00000000000E+00 0.  1.
         24    1    1    2    0    0 -0.54492784078E+02 -0.47363968552E+02  0.16677242780E+03  0.19872862819E+03  0.80419002446E+02 0.  0.
          1    1    1    2  501    0 -0.58756290485E+01 -0.23193957245E+02  0.10115544734E+04  0.10118374055E+04  0.00000000000E+00 0. -1.
         -2    1    1    2    0  503  0.60368413127E+02  0.70557925797E+02 -0.29817571378E+02  0.97528732992E+02  0.00000000000E+00 0.  1.
<mgrwt>
<rscale>  2 0.11242981E+03</rscale>
<asrwt>0</asrwt>
<pdfrwt beam="1">  1       21 0.18896953E+00 0.11242981E+03</pdfrwt>
<pdfrwt beam="2">  1       21 0.12275804E-01 0.11242981E+03</pdfrwt>
<totfact> 0.96676630E+03</totfact>
</mgrwt>
</event>
<event>
 5    1  0.1624116E+000  0.2848169E+03  0.7546771E-02  0.1093087E+00
         21   -1    0    0  503  502  0.00000000000E+00  0.00000000000E+00  0.52176644470E+02  0.52176644470E+02  0.00000000000E+00 0.  1.
         21   -1    0    0  501  503 -0.00000000000E+00 -0.00000000000E+00 -0.17648023815E+04  0.17648023815E+04  0.00000000000E+00 0. -1.
         24    1    1    2    0    0  0.65333171513E+02 -0.13840446169E+03 -0.78650083059E+03  0.80527944888E+03  0.80419002446E+02 0. -1.
          1    1    1    2  501    0  0.77275711114E+02  0.21948807499E+03 -0.65149453059E+03  0.69180320466E+03  0.00000000000E+00 0. -1.
         -2    1    1    2    0  502 -0.14260888263E+03 -0.81083613300E+02 -0.27463037581E+03  0.31989637239E+03  0.00000000000E+00 0.  1.
<mgrwt>
<rscale>  2 0.28481691E+03</rscale>
<asrwt>0</asrwt>
<pdfrwt beam="1">  1       21 0.80271767E-02 0.28481691E+03</pdfrwt>
<pdfrwt beam="2">  1       21 0.27150804E+00 0.28481691E+03</pdfrwt>
<totfact> 0.54760967E+03</totfact>
</mgrwt>
</event>
<event>
 5    1  0.1624116E+000  0.6981092E+02  0.7546771E-02  0.1360737E+00
         21   -1    0    0  503  502  0.00000000000E+00  0.00000000000E+00  0.25946746289E+03  0.25946746289E+03  0.00000000000E+00 0.  1.
         21   -1    0    0  501  503 -0.00000000000E+00 -0.00000000000E+00 -0.61815243895E+02  0.61815243895E+02  0.00000000000E+00 0. -1.
         24    1    1    2    0    0 -0.18008380390E+01 -0.32021212743E+02  0.16171813607E+03  0.18343547250E+03  0.80419002446E+02 0.  1.
          1    1    1    2  501    0  0.22042357945E+02  0.16336430768E+02 -0.45140746163E+02  0.52824534812E+02  0.00000000000E+00 0. -1.
         -2    1    1    2    0  502 -0.20241519906E+02  0.15684781975E+02  0.81074829083E+02  0.85022699467E+02  0.00000000000E+00 0.  1.
<mgrwt>
<rscale>  2 0.69810916E+02</rscale>
<asrwt>0</asrwt>
<pdfrwt beam="1">  1       21 0.39918071E-01 0.69810916E+02</pdfrwt>
<pdfrwt beam="2">  1       21 0.95100377E-02 0.69810916E+02</pdfrwt>
<totfact> 0.54049281E+05</totfact>
</mgrwt>
</event>
<event>
 5    1  0.1624116E+000  0.9496723E+02  0.7546771E-02  0.1291250E+00
         21   -1    0    0  501  502  0.00000000000E+00  0.00000000000E+00  0.10605788216E+03  0.10605788216E+03  0.00000000000E+00 0. -1.
         21   -1    0    0  502  503 -0.00000000000E+00 -0.00000000000E+00 -0.11052494861E+03  0.11052494861E+03  0.00000000000E+00 0.  1.
         24    1    1    2    0    0 -0.30899070431E+01 -0.23758743114E+02  0.26558475276E+02  0.88014737194E+02  0.80419002446E+02 0.  0.
          1    1    1    2  501    0 -0.42568266533E+02 -0.16003668769E+02  0.19720490253E+02  0.49568865889E+02  0.00000000000E+00 0. -1.
         -2    1    1    2    0  503  0.45658173576E+02  0.39762411883E+02 -0.50746031984E+02  0.78999227687E+02  0.00000000000E+00 0.  1.
<mgrwt>
<rscale>  2 0.94967235E+02</rscale>
<asrwt>0</asrwt>
<pdfrwt beam="1">  1       21 0.16316597E-01 0.94967235E+02</pdfrwt>
<pdfrwt beam="2">  1       21 0.17003838E-01 0.94967235E+02</pdfrwt>
<totfact> 0.10447974E+06</totfact>
</mgrwt>
</event>
<event>
 5    1  0.1624116E+000  0.6581752E+02  0.7546771E-02  0.1374922E+00
         21   -1    0    0  503  502  0.00000000000E+00  0.00000000000E+00  0.42234471385E+03  0.42234471385E+03  0.00000000000E+00 0. -1.
         21   -1    0    0  501  503 -0.00000000000E+00 -0.00000000000E+00 -0.15713586619E+02  0.15713586619E+02  0.00000000000E+00 0.  1.
         24    1    1    2    0    0  0.10017795579E+02 -0.95050182410E+01  0.33744669299E+03  0.34717169839E+03  0.80419002446E+02 0. -1.
          1    1    1    2  501    0 -0.22361628473E+01  0.28980386514E+02  0.14839884426E+02  0.32635646103E+02  0.00000000000E+00 0. -1.
         -2    1    1    2    0  502 -0.77816327312E+01 -0.19475368273E+02  0.54344549812E+02  0.58250955972E+02  0.00000000000E+00 0.  1.
<mgrwt>
<rscale>  2 0.65817524E+02</rscale>
<asrwt>0</asrwt>
<pdfrwt beam="1">  1       21 0.64976101E-01 0.65817524E+02</pdfrwt>
<pdfrwt beam="2">  1       21 0.24174752E-02 0.65817524E+02</pdfrwt>
<totfact> 0.19229356E+06</totfact>
</mgrwt>
</event>
<event>
 5    1  0.1624116E+000  0.1360876E+03  0.7546771E-02  0.1218692E+00
         21   -1    0    0  501  502  0.00000000000E+00  0.00000000000E+00  0.10714287815E+04  0.10714287815E+04  0.00000000000E+00 0. -1.
         21   -1    0    0  502  503 -0.00000000000E+00 -0.00000000000E+00 -0.56919697744E+02  0.56919697744E+02  0.00000000000E+00 0.  1.
         24    1    1    2    0    0  0.17049145774E+02  0.55630775651E+02  0.61379249248E+02  0.11670511884E+03  0.80419002446E+02 0.  0.
          1    1    1    2  501    0 -0.29987863758E+02  0.54404171094E+02  0.87227507408E+03  0.87448435701E+03  0.00000000000E+00 0. -1.
         -2    1    1    2    0  503  0.12938717984E+02 -0.11003494674E+03  0.80854760447E+02  0.13715900340E+03  0.00000000000E+00 0.  1.
<mgrwt>
<rscale>  2 0.13608761E+03</rscale>
<asrwt>0</asrwt>
<pdfrwt beam="1">  1       21 0.16483518E+00 0.13608761E+03</pdfrwt>
<pdfrwt beam="2">  1       21 0.87568773E-02 0.13608761E+03</pdfrwt>
<totfact> 0.24795912E+04</totfact>
</mgrwt>
</event>
<event>
 5    1  0.1624116E+000  0.8061227E+02  0.7546771E-02  0.1327323E+00
         21   -1    0    0  501  502  0.00000000000E+00  0.00000000000E+00  0.30433082893E+03  0.30433082893E+03  0.00000000000E+00 0. -1.
         21   -1    0    0  502  503 -0.00000000000E+00 -0.00000000000E+00 -0.24003103832E+02  0.24003103832E+02  0.00000000000E+00 0.  1.
         24    1    1    2    0    0  0.38993679036E+02  0.10726127310E+02  0.15310631291E+03  0.17760719529E+03  0.80419002446E+02 0. -1.
          1    1    1    2  501    0 -0.43150535719E+01  0.22662516421E+02  0.80127893011E+02  0.83382783452E+02  0.00000000000E+00 0. -1.
         -2    1    1    2    0  503 -0.34678625465E+02 -0.33388643731E+02  0.47093519175E+02  0.67343954017E+02  0.00000000000E+00 0.  1.
<mgrwt>
<rscale>  2 0.80612268E+02</rscale>
<asrwt>0</asrwt>
<pdfrwt beam="1">  1       21 0.46820125E-01 0.80612268E+02</pdfrwt>
<pdfrwt beam="2">  1       21 0.36927854E-02 0.80612268E+02</pdfrwt>
<totfact> 0.19204665E+06</totfact>
</mgrwt>
</event>
<event>
 5    1  0.1624116E+000  0.8984599E+02  0.7546771E-02  0.1303225E+00
         21   -1    0    0  503  502  0.00000000000E+00  0.00000000000E+00  0.93479383411E+03  0.93479383411E+03  0.00000000000E+00 0. -1.
         21   -1    0    0  501  503 -0.00000000000E+00 -0.00000000000E+00 -0.18456221205E+02  0.18456221205E+02  0.00000000000E+00 0.  1.
         24    1    1    2    0    0  0.47556125042E+02  0.37090896593E+01  0.77163607077E+03  0.77728037673E+03  0.80419002446E+02 0. -1.
          1    1    1    2  501    0  0.13358621813E+02  0.17207781415E+02  0.53163416014E+01  0.22423737556E+02  0.00000000000E+00 0. -1.
         -2    1    1    2    0  502 -0.60914746855E+02 -0.20916871074E+02  0.13938520053E+03  0.15354594103E+03  0.00000000000E+00 0.  1.
<mgrwt>
<rscale>  2 0.89845987E+02</rscale>
<asrwt>0</asrwt>
<pdfrwt beam="1">  1       21 0.14381440E+00 0.89845987E+02</pdfrwt>
<pdfrwt beam="2">  1       21 0.28394194E-02 0.89845987E+02</pdfrwt>
<totfact> 0.24053787E+05</totfact>
</mgrwt>
</event>
<event>
 5    1  0.1624116E+000  0.9228355E+02  0.7546771E-02  0.1297414E+00
         21   -1    0    0  503  502  0.00000000000E+00  0.00000000000E+00  0.18890213960E+02  0.18890213960E+02  0.00000000000E+00 0.  1.
         21   -1    0    0  501  503 -0.00000000000E+00 -0.00000000000E+00 -0.55327881137E+03  0.55327881137E+03  0.00000000000E+00 0. -1.
         24    1    1    2    0    0  0.16304972053E+02 -0.39322832063E+02 -0.20047619295E+03  0.22015916318E+03  0.80419002446E+02 0.  1.
          1    1    1    2  501    0 -0.22524956606E+02  0.64145821233E+02 -0.30865687460E+03  0.31605557468E+03  0.00000000000E+00 0. -1.
         -2    1    1    2    0  502  0.62199845526E+01 -0.24822989170E+02 -0.25255529865E+02  0.35954287476E+02  0.00000000000E+00 0.  1.
<mgrwt>
<rscale>  2 0.92283547E+02</rscale>
<asrwt>0</asrwt>
<pdfrwt beam="1">  1       21 0.29061872E-02 0.92283547E+02</pdfrwt>
<pdfrwt beam="2">  1       21 0.85119803E-01 0.92283547E+02</pdfrwt>
<totfact> 0.80181498E+05</totfact>
</mgrwt>
</event>
<event>
 5    1  0.1624116E+000  0.8411687E+02  0.7546771E-02  0.1317758E+00
         21   -1    0    0  503  502  0.00000000000E+00  0.00000000000E+00  0.26853702657E+02  0.26853702657E+02  0.00000000000E+00 0. -1.
         21   -1    0    0  501  503 -0.00000000000E+00 -0.00000000000E+00 -0.31181902559E+03  0.31181902559E+03  0.00000000000E+00 0.  1.
         24    1    1    2    0    0 -0.29284594593E+01  0.48741465018E+02 -0.12708052106E+03  0.15811698540E+03  0.80419002446E+02 0. -1.
          1    1    1    2  501    0  0.27704983555E+02 -0.38286633488E+02 -0.14122232814E+03  0.14892004023E+03  0.00000000000E+00 0. -1.
         -2    1    1    2    0  502 -0.24776524096E+02 -0.10454831530E+02 -0.16662473735E+02  0.31635702609E+02  0.00000000000E+00 0.  1.
<mgrwt>
<rscale>  2 0.84116867E+02</rscale>
<asrwt>0</asrwt>
<pdfrwt beam="1">  1       21 0.41313388E-02 0.84116867E+02</pdfrwt>
<pdfrwt beam="2">  1       21 0.47972159E-01 0.84116867E+02</pdfrwt>
<totfact> 0.15232184E+06</totfact>
</mgrwt>
</event>
<event>
 5    1  0.1624116E+000  0.9869065E+02  0.7546771E-02  0.1283074E+00
         21   -1    0    0  501  502  0.00000000000E+00  0.00000000000E+00  0.93408392767E+03  0.93408392767E+03  0.00000000000E+00 0. -1.
         21   -1    0    0  502  503 -0.00000000000E+00 -0.00000000000E+00 -0.23473868728E+02  0.23473868728E+02  0.00000000000E+00 0.  1.
         24    1    1    2    0    0  0.99409879710E+01  0.36057149139E+02  0.15064077667E+03  0.17481075709E+03  0.80419002446E+02 0.  1.
          1    1    1    2  501    0  0.44420228753E+02 -0.18440416253E+01  0.67383645210E+03  0.67530150406E+03  0.00000000000E+00 0. -1.
         -2    1    1    2    0  503 -0.54361216724E+02 -0.34213107513E+02  0.86132830176E+02  0.10744553524E+03  0.00000000000E+00 0.  1.
<mgrwt>
<rscale>  2 0.98690647E+02</rscale>
<asrwt>0</asrwt>
<pdfrwt beam="1">  1       21 0.14370519E+00 0.98690647E+02</pdfrwt>
<pdfrwt beam="2">  1       21 0.36113651E-02 0.98690647E+02</pdfrwt>
<totfact> 0.16205869E+05</totfact>
</mgrwt>
</event>
<event>
 5    1  0.1624116E+000  0.6285499E+02  0.7546771E-02  0.1386227E+00
         21   -1    0    0  503  502  0.00000000000E+00  0.00000000000E+00  0.54234691267E+03  0.54234691267E+03  0.00000000000E+00 0.  1.
         21   -1    0    0  501  503 -0.00000000000E+00 -0.00000000000E+00 -0.14207673983E+02  0.14207673983E+02  0.00000000000E+00 0. -1.
         24    1    1    2    0    0 -0.59368700198E+01  0.51647756787E+01  0.43368871495E+03  0.44115194521E+03  0.80419002446E+02 0.  1.
          1    1    1    2  501    0 -0.17916700162E+02 -0.10072180652E+02  0.30079010235E+01  0.20772684862E+02  0.00000000000E+00 0. -1.
         -2    1    1    2    0  502  0.23853570182E+02  0.49074049734E+01  0.91442622717E+02  0.94629956585E+02  0.00000000000E+00 0.  1.
<mgrwt>
<rscale>  2 0.62854988E+02</rscale>
<asrwt>0</asrwt>
<pdfrwt beam="1">  1       21 0.83437970E-01 0.62854988E+02</pdfrwt>
<pdfrwt beam="2">  1       21 0.21857964E-02 0.62854988E+02</pdfrwt>
<totfact> 0.13156754E+06</totfact>
</mgrwt>
</event>
<event>
 5    1  0.1624116E+000  0.1138028E+03  0.7546771E-02  0.1253685E+00
         21   -1    0    0  503  502  0.00000000000E+00  0.00000000000E+00  0.73159438306E+02  0.73159438306E+02  0.00000000000E+00 0.  1.
         21   -1    0    0  501  503 -0.00000000000E+00 -0.00000000000E+00 -0.21593284806E+03  0.21593284806E+03  0.00000000000E+00 0.  1.
         24    1    1    2    0    0 -0.48745690806E+02  0.57100352841E+02 -0.94254956041E+02  0.14487168584E+03  0.80419002446E+02 0.  1.
          1    1    1    2  501    0  0.30717386443E+02  0.21145733494E+02 -0.51835196799E+02  0.63855990338E+02  0.00000000000E+00 0. -1.
         -2    1    1    2    0  502  0.18028304363E+02 -0.78246086336E+02  0.33167430866E+01  0.80364610182E+02  0.00000000000E+00 0.  1.
<mgrwt>
<rscale>  2 0.11380277E+03</rscale>
<asrwt>0</asrwt>
<pdfrwt beam="1">  1       21 0.11255298E-01 0.11380277E+03</pdfrwt>
<pdfrwt beam="2">  1       21 0.33220438E-01 0.11380277E+03</pdfrwt>
<totfact> 0.57827608E+05</totfact>
</mgrwt>
</event>
<event>
 5    1  0.1624116E+000  0.1163733E+03  0.7546771E-02  0.1249203E+00
         21   -1    0    0  501  502  0.00000000000E+00  0.00000000000E+00  0.20701222618E+03  0.20701222618E+03  0.00000000000E+00 0.  1.
         21   -1    0    0  502  503 -0.00000000000E+00 -0.00000000000E+00 -0.12872379531E+03  0.12872379531E+03  0.00000000000E+00 0.  1.
         24    1    1    2    0    0 -0.22607012931E+02  0.68476618526E+02  0.15424862190E+03  0.18830819852E+03  0.80419002446E+02 0.  1.
          1    1    1    2  501    0 -0.28713332335E+01 -0.90806826701E+02 -0.44378684480E+02  0.10111177956E+03  0.00000000000E+00 0. -1.
         -2    1    1    2    0  503  0.25478346165E+02  0.22330208175E+02 -0.31581506553E+02  0.46316043404E+02  0.00000000000E+00 0.  1.
<mgrwt>
<rscale>  2 0.11637332E+03</rscale>
<asrwt>0</asrwt>
<pdfrwt beam="1">  1       21 0.31848035E-01 0.11637332E+03</pdfrwt>
<pdfrwt beam="2">  1       21 0.19803661E-01 0.11637332E+03</pdfrwt>
<totfact> 0.22721468E+05</totfact>
</mgrwt>
</event>
<event>
 5    1  0.1624116E+000  0.9090783E+02  0.7546771E-02  0.1300668E+00
         21   -1    0    0  503  502  0.00000000000E+00  0.00000000000E+00  0.19104773353E+03  0.19104773353E+03  0.00000000000E+00 0.  1.
         21   -1    0    0  501  503 -0.00000000000E+00 -0.00000000000E+00 -0.12961341820E+03  0.12961341820E+03  0.00000000000E+00 0. -1.
         24    1    1    2    0    0 -0.31551870205E+02 -0.98646770634E+01  0.14309195186E+03  0.16743761527E+03  0.80419002446E+02 0.  1.
          1    1    1    2  501    0  0.43806772769E+02 -0.30043875264E+02 -0.95467734391E+02  0.10925088600E+03  0.00000000000E+00 0. -1.
         -2    1    1    2    0  502 -0.12254902564E+02  0.39908552328E+02  0.13810097864E+02  0.43972650463E+02  0.00000000000E+00 0.  1.
<mgrwt>
<rscale>  2 0.90907834E+02</rscale>
<asrwt>0</asrwt>
<pdfrwt beam="1">  1       21 0.29391959E-01 0.90907834E+02</pdfrwt>
<pdfrwt beam="2">  1       21 0.19940526E-01 0.90907834E+02</pdfrwt>
<totfact> 0.26334117E+05</totfact>
</mgrwt>
</event>
<event>
 5    1  0.1624116E+000  0.8654965E+02  0.7546771E-02  0.1311429E+00
         21   -1    0    0  501  502  0.00000000000E+00  0.00000000000E+00  0.99067718568E+02  0.99067718568E+02  0.00000000000E+00 0. -1.
         21   -1    0    0  502  503 -0.00000000000E+00 -0.00000000000E+00 -0.20560328526E+03  0.20560328526E+03  0.00000000000E+00 0.  1.
         24    1    1    2    0    0 -0.33018154124E+02 -0.46566399639E+02  0.61446536301E+02  0.11619604492E+03  0.80419002446E+02 0. -1.
          1    1    1    2  501    0 -0.32097416902E+00  0.40611566508E+02 -0.43687020340E+02  0.59648621986E+02  0.00000000000E+00 0. -1.
         -2    1    1    2    0  503  0.33339128293E+02  0.59548331312E+01 -0.12429508265E+03  0.12882633692E+03  0.00000000000E+00 0.  1.
<mgrwt>
<rscale>  2 0.86549645E+02</rscale>
<asrwt>0</asrwt>
<pdfrwt beam="1">  1       21 0.15241188E-01 0.86549645E+02</pdfrwt>
<pdfrwt beam="2">  1       21 0.31631274E-01 0.86549645E+02</pdfrwt>
<totfact> 0.37215629E+05</totfact>
</mgrwt>
</event>
<event>
 5    1  0.3154393E+000  0.9027055E+02  0.7546771E-02  0.1302198E+00
         21   -1    0    0  503  502  0.00000000000E+00  0.00000000000E+00  0.33756963428E+03  0.33756963428E+03  0.00000000000E+00 0. -1.
         21   -1    0    0  501  503 -0.00000000000E+00 -0.00000000000E+00 -0.13710635961E+03  0.13710635961E+03  0.00000000000E+00 0. -1.
         24    1    1    2    0    0 -0.21934359566E+02 -0.49145472953E+01  0.22629738077E+03  0.24121150346E+03  0.80419002446E+02 0. -1.
          1    1    1    2  501    0 -0.64493820047E+01  0.46360083655E+02 -0.11885900134E+03  0.12774315670E+03  0.00000000000E+00 0. -1.
         -2    1    1    2    0  502  0.28383741571E+02 -0.41445536359E+02  0.93024895240E+02  0.10572133372E+03  0.00000000000E+00 0.  1.
<mgrwt>
<rscale>  2 0.90270546E+02</rscale>
<asrwt>0</asrwt>
<pdfrwt beam="1">  1       21 0.51933790E-01 0.90270546E+02</pdfrwt>
<pdfrwt beam="2">  1       21 0.21093286E-01 0.90270546E+02</pdfrwt>
<totfact> 0.77188596E+04</totfact>
</mgrwt>
</event>
<event>
 5    1  0.1624116E+000  0.6591838E+02  0.7546771E-02  0.1374550E+00
         21   -1    0    0  503  502  0.00000000000E+00  0.00000000000E+00  0.21702636841E+03  0.21702636841E+03  0.00000000000E+00 0.  1.
         21   -1    0    0  501  503 -0.00000000000E+00 -0.00000000000E+00 -0.68547511157E+02  0.68547511157E+02  0.00000000000E+00 0.  1.
         24    1    1    2    0    0 -0.16243439610E+02 -0.25959165692E+02 -0.29243959591E+02  0.90885382437E+02  0.80419002446E+02 0.  1.
          1    1    1    2  501    0  0.21861450522E+02  0.29022150817E+01  0.82245647680E+01  0.23536978076E+02  0.00000000000E+00 0. -1.
         -2    1    1    2    0  502 -0.56180109127E+01  0.23056950610E+02  0.16949825208E+03  0.17115151906E+03  0.00000000000E+00 0.  1.
<mgrwt>
<rscale>  2 0.65918376E+02</rscale>
<asrwt>0</asrwt>
<pdfrwt beam="1">  1       21 0.33388672E-01 0.65918376E+02</pdfrwt>
<pdfrwt beam="2">  1       21 0.10545771E-01 0.65918376E+02</pdfrwt>
<totfact> 0.63923862E+05</totfact>
</mgrwt>
</event>
<event>
 5    1  0.1624116E+000  0.7178676E+02  0.7546771E-02  0.1354120E+00
         21   -1    0    0  503  502  0.00000000000E+00  0.00000000000E+00  0.15957006567E+03  0.15957006567E+03  0.00000000000E+00 0. -1.
         21   -1    0    0  501  503 -0.00000000000E+00 -0.00000000000E+00 -0.17079824474E+03  0.17079824474E+03  0.00000000000E+00 0. -1.
         24    1    1    2    0    0 -0.30861281338E+01  0.13404739048E+02  0.14073705802E+03  0.16267558720E+03  0.80419002446E+02 0. -1.
          1    1    1    2  501    0 -0.28405756285E+02 -0.19370707868E+01 -0.11186340961E+03  0.11542989926E+03  0.00000000000E+00 0. -1.
         -2    1    1    2    0  502  0.31491884419E+02 -0.11467668261E+02 -0.40101827483E+02  0.52262823949E+02  0.00000000000E+00 0.  1.
<mgrwt>
<rscale>  2 0.71786761E+02</rscale>
<asrwt>0</asrwt>
<pdfrwt beam="1">  1       21 0.24549241E-01 0.71786761E+02</pdfrwt>
<pdfrwt beam="2">  1       21 0.26276653E-01 0.71786761E+02</pdfrwt>
<totfact> 0.22275355E+05</totfact>
</mgrwt>
</event>
<event>
 5    1  0.1624116E+000  0.1120875E+03  0.7546771E-02  0.1256752E+00
         21   -1    0    0  503  502  0.00000000000E+00  0.00000000000E+00  0.94991855988E+02  0.94991855988E+02  0.00000000000E+00 0.  1.
         21   -1    0    0  501  503 -0.00000000000E+00 -0.00000000000E+00 -0.23940739941E+03  0.23940739941E+03  0.00000000000E+00 0.  1.
         24    1    1    2    0    0  0.59368687830E+02 -0.22548531430E+02 -0.14256593635E+02  0.10345793242E+03  0.80419002446E+02 0.  0.
          1    1    1    2  501    0  0.15655862682E+02 -0.27411239584E+02 -0.13695753817E+03  0.14054838794E+03  0.00000000000E+00 0. -1.
         -2    1    1    2    0  502 -0.75024550512E+02  0.49959771014E+02  0.67985883871E+01  0.90392935030E+02  0.00000000000E+00 0.  1.
<mgrwt>
<rscale>  2 0.11208747E+03</rscale>
<asrwt>0</asrwt>
<pdfrwt beam="1">  1       21 0.14614132E-01 0.11208747E+03</pdfrwt>
<pdfrwt beam="2">  1       21 0.36831907E-01 0.11208747E+03</pdfrwt>
<totfact> 0.29733282E+05</totfact>
</mgrwt>
</event>
<event>
 5    1  0.1624116E+000  0.1542945E+03  0.7546771E-02  0.1195293E+00
         21   -1    0    0  501  502  0.00000000000E+00  0.00000000000E+00  0.44720862368E+02  0.44720862368E+02  0.00000000000E+00 0.  1.
         21   -1    0    0  502  503 -0.00000000000E+00 -0.00000000000E+00 -0.27557912472E+04  0.27557912472E+04  0.00000000000E+00 0.  1.
         24    1    1    2    0    0 -0.13956767618E+03 -0.32008590250E+02 -0.28699461527E+03  0.33066117285E+03  0.80419002446E+02 0.  1.
          1    1    1    2  501    0  0.33654452062E+02  0.15929636968E+02  0.57407674622E+01  0.37674021402E+02  0.00000000000E+00 0. -1.
         -2    1    1    2    0  503  0.10591322412E+03  0.16078953281E+02 -0.24298165370E+04  0.24321769153E+04  0.00000000000E+00 0.  1.
<mgrwt>
<rscale>  2 0.15429451E+03</rscale>
<asrwt>0</asrwt>
<pdfrwt beam="1">  1       21 0.68801306E-02 0.15429451E+03</pdfrwt>
<pdfrwt beam="2">  1       21 0.42396801E+00 0.15429451E+03</pdfrwt>
<totfact> 0.10251271E+03</totfact>
</mgrwt>
</event>
<event>
 5    1  0.1624116E+000  0.1119837E+03  0.7546771E-02  0.1256940E+00
         21   -1    0    0  501  502  0.00000000000E+00  0.00000000000E+00  0.13874566793E+03  0.13874566793E+03  0.00000000000E+00 0.  1.
         21   -1    0    0  502  503 -0.00000000000E+00 -0.00000000000E+00 -0.94576745809E+02  0.94576745809E+02  0.00000000000E+00 0.  1.
         24    1    1    2    0    0 -0.75341280839E+02 -0.33226801506E+02  0.30054132228E+02  0.11895711729E+03  0.80419002446E+02 0.  1.
          1    1    1    2  501    0  0.24412883598E+02  0.49675876198E+02  0.23316434902E+02  0.60061116358E+02  0.00000000000E+00 0. -1.
         -2    1    1    2    0  503  0.50928397241E+02 -0.16449074692E+02 -0.92016450117E+01  0.54304180084E+02  0.00000000000E+00 0.  1.
<mgrwt>
<rscale>  2 0.11198371E+03</rscale>
<asrwt>0</asrwt>
<pdfrwt beam="1">  1       21 0.21345487E-01 0.11198371E+03</pdfrwt>
<pdfrwt beam="2">  1       21 0.14550269E-01 0.11198371E+03</pdfrwt>
<totfact> 0.84861416E+05</totfact>
</mgrwt>
</event>
<event>
 5    1  0.1624116E+000  0.6741003E+02  0.7546771E-02  0.1369129E+00
         21   -1    0    0  501  502  0.00000000000E+00  0.00000000000E+00  0.38470220473E+03  0.38470220473E+03  0.00000000000E+00 0.  1.
         21   -1    0    0  502  503 -0.00000000000E+00 -0.00000000000E+00 -0.15611117284E+02  0.15611117284E+02  0.00000000000E+00 0.  1.
         24    1    1    2    0    0 -0.28203456148E+02 -0.11414505270E+02  0.31593425699E+03  0.32742540610E+03  0.80419002446E+02 0.  1.
          1    1    1    2  501    0  0.97763118159E+01  0.24406163991E+02  0.35887790003E+02  0.44487870086E+02  0.00000000000E+00 0. -1.
         -2    1    1    2    0  503  0.18427144332E+02 -0.12991658721E+02  0.17269040451E+02  0.28400045822E+02  0.00000000000E+00 0.  1.
<mgrwt>
<rscale>  2 0.67410033E+02</rscale>
<asrwt>0</asrwt>
<pdfrwt beam="1">  1       21 0.59184947E-01 0.67410033E+02</pdfrwt>
<pdfrwt beam="2">  1       21 0.24017106E-02 0.67410033E+02</pdfrwt>
<totfact> 0.23649880E+06</totfact>
</mgrwt>
</event>
<event>
 5    1  0.1624116E+000  0.9283475E+02  0.7546771E-02  0.1296129E+00
         21   -1    0    0  501  502  0.00000000000E+00  0.00000000000E+00  0.20531806483E+03  0.20531806483E+03  0.00000000000E+00 0. -1.
         21   -1    0    0  502  503 -0.00000000000E+00 -0.00000000000E+00 -0.14966805147E+03  0.14966805147E+03  0.00000000000E+00 0.  1.
         24    1    1    2    0    0  0.27068944397E+02  0.13333748413E+01 -0.46557839052E+02  0.96795423295E+02  0.80419002446E+02 0. -1.
          1    1    1    2  501    0 -0.63825359368E+02  0.23311390799E+01  0.16966177800E+03  0.18128494042E+03  0.00000000000E+00 0. -1.
         -2    1    1    2    0  503  0.36756414971E+02 -0.36645139212E+01 -0.67453925594E+02  0.76905752593E+02  0.00000000000E+00 0.  1.
<mgrwt>
<rscale>  2 0.92834754E+02</rscale>
<asrwt>0</asrwt>
<pdfrwt beam="1">  1       21 0.31587395E-01 0.92834754E+02</pdfrwt>
<pdfrwt beam="2">  1       21 0.23025854E-01 0.92834754E+02</pdfrwt>
<totfact> 0.17587078E+05</totfact>
</mgrwt>
</event>
<event>
 5    1  0.1624116E+000  0.1635886E+03  0.7546771E-02  0.1184704E+00
         21   -1    0    0  501  502  0.00000000000E+00  0.00000000000E+00  0.29625003911E+03  0.29625003911E+03  0.00000000000E+00 0. -1.
         21   -1    0    0  502  503 -0.00000000000E+00 -0.00000000000E+00 -0.34244563258E+03  0.34244563258E+03  0.00000000000E+00 0.  1.
         24    1    1    2    0    0 -0.10298891743E+03 -0.62354145402E+02 -0.22264147879E+03  0.26557710857E+03  0.80419002446E+02 0. -1.
          1    1    1    2  501    0  0.12775251154E+03  0.81113505570E+02  0.25058495960E+03  0.29273354261E+03  0.00000000000E+00 0. -1.
         -2    1    1    2    0  503 -0.24763594114E+02 -0.18759360169E+02 -0.74139074282E+02  0.80385020512E+02  0.00000000000E+00 0.  1.
<mgrwt>
<rscale>  2 0.16358858E+03</rscale>
<asrwt>0</asrwt>
<pdfrwt beam="1">  1       21 0.45576929E-01 0.16358858E+03</pdfrwt>
<pdfrwt beam="2">  1       21 0.52683943E-01 0.16358858E+03</pdfrwt>
<totfact> 0.16068269E+04</totfact>
</mgrwt>
</event>
<event>
 5    1  0.1624116E+000  0.8790634E+02  0.7546771E-02  0.1308002E+00
         21   -1    0    0  503  502  0.00000000000E+00  0.00000000000E+00  0.40205436583E+02  0.40205436583E+02  0.00000000000E+00 0.  1.
         21   -1    0    0  501  503 -0.00000000000E+00 -0.00000000000E+00 -0.19905149439E+03  0.19905149439E+03  0.00000000000E+00 0. -1.
         24    1    1    2    0    0  0.19507848295E+02  0.34694671161E+02 -0.75600090020E+02  0.11733228847E+03  0.80419002446E+02 0.  1.
          1    1    1    2  501    0 -0.44150741458E+02 -0.41419985329E+02 -0.71849759812E+02  0.93953664862E+02  0.00000000000E+00 0. -1.
         -2    1    1    2    0  502  0.24642893163E+02  0.67253141672E+01 -0.11396207977E+02  0.27970977644E+02  0.00000000000E+00 0.  1.
<mgrwt>
<rscale>  2 0.87906336E+02</rscale>
<asrwt>0</asrwt>
<pdfrwt beam="1">  1       21 0.61854519E-02 0.87906336E+02</pdfrwt>
<pdfrwt beam="2">  1       21 0.30623306E-01 0.87906336E+02</pdfrwt>
<totfact> 0.18843917E+06</totfact>
</mgrwt>
</event>
<event>
 5    1  0.1624116E+000  0.1235876E+03  0.7546771E-02  0.1237293E+00
         21   -1    0    0  503  502  0.00000000000E+00  0.00000000000E+00  0.20960661478E+03  0.20960661478E+03  0.00000000000E+00 0.  1.
         21   -1    0    0  501  503 -0.00000000000E+00 -0.00000000000E+00 -0.86715135534E+02  0.86715135534E+02  0.00000000000E+00 0.  1.
         24    1    1    2    0    0 -0.14047580019E+02  0.48828497484E+02  0.10693348638E+03  0.14312072923E+03  0.80419002446E+02 0.  1.
          1    1    1    2  501    0  0.57765397752E+00  0.51157573397E+02  0.70856391696E+00  0.51165741105E+02  0.00000000000E+00 0. -1.
         -2    1    1    2    0  502  0.13469926041E+02 -0.99986070880E+02  0.15249428949E+02  0.10203527998E+03  0.00000000000E+00 0.  1.
<mgrwt>
<rscale>  2 0.12358759E+03</rscale>
<asrwt>0</asrwt>
<pdfrwt beam="1">  1       21 0.32247171E-01 0.12358759E+03</pdfrwt>
<pdfrwt beam="2">  1       21 0.13340790E-01 0.12358759E+03</pdfrwt>
<totfact> 0.45315752E+05</totfact>
</mgrwt>
</event>
<event>
 5    1  0.1624116E+000  0.1078173E+03  0.7546771E-02  0.1264666E+00
         21   -1    0    0  503  502  0.00000000000E+00  0.00000000000E+00  0.51535961187E+02  0.51535961187E+02  0.00000000000E+00 0.  1.
         21   -1    0    0  501  503 -0.00000000000E+00 -0.00000000000E+00 -0.25292593026E+03  0.25292593026E+03  0.00000000000E+00 0.  1.
         24    1    1    2    0    0  0.47238159032E+02 -0.77024757875E+02 -0.15821981195E+03  0.19916069351E+03  0.80419002446E+02 0.  1.
          1    1    1    2  501    0 -0.37969373966E+02  0.35002386301E+02 -0.32321820358E+02  0.60922413589E+02  0.00000000000E+00 0. -1.
         -2    1    1    2    0  502 -0.92687850660E+01  0.42022371574E+02 -0.10848336769E+02  0.44378784345E+02  0.00000000000E+00 0.  1.
<mgrwt>
<rscale>  2 0.10781726E+03</rscale>
<asrwt>0</asrwt>
<pdfrwt beam="1">  1       21 0.79286095E-02 0.10781726E+03</pdfrwt>
<pdfrwt beam="2">  1       21 0.38911681E-01 0.10781726E+03</pdfrwt>
<totfact> 0.77888836E+05</totfact>
</mgrwt>
</event>
<event>
 5    1  0.1624116E+000  0.6483858E+02  0.7546771E-02  0.1378580E+00
         21   -1    0    0  503  502  0.00000000000E+00  0.00000000000E+00  0.56881151499E+02  0.56881151499E+02  0.00000000000E+00 0.  1.
         21   -1    0    0  501  503 -0.00000000000E+00 -0.00000000000E+00 -0.11461996763E+03  0.11461996763E+03  0.00000000000E+00 0.  1.
         24    1    1    2    0    0 -0.38483077172E+01  0.37011372985E+01 -0.39114501802E+02  0.89586093202E+02  0.80419002446E+02 0.  1.
          1    1    1    2  501    0 -0.20096034104E+02 -0.12390539812E+02 -0.41456503562E+02  0.47707627809E+02  0.00000000000E+00 0. -1.
         -2    1    1    2    0  502  0.23944341821E+02  0.86894025131E+01  0.22832189229E+02  0.34207398122E+02  0.00000000000E+00 0.  1.
<mgrwt>
<rscale>  2 0.64838575E+02</rscale>
<asrwt>0</asrwt>
<pdfrwt beam="1">  1       21 0.87509464E-02 0.64838575E+02</pdfrwt>
<pdfrwt beam="2">  1       21 0.17633841E-01 0.64838575E+02</pdfrwt>
<totfact> 0.28634957E+06</totfact>
</mgrwt>
</event>
<event>
 5    1  0.1624116E+000  0.8379165E+02  0.7546771E-02  0.1318623E+00
         21   -1    0    0  501  502  0.00000000000E+00  0.00000000000E+00  0.27547240399E+03  0.27547240399E+03  0.00000000000E+00 0. -1.
         21   -1    0    0  502  503 -0.00000000000E+00 -0.00000000000E+00 -0.51254872549E+02  0.51254872549E+02  0.00000000000E+00 0.  1.
         24    1    1    2    0    0  0.11352977367E+02  0.82166682015E+01  0.34874324831E+02  0.88768452832E+02  0.80419002446E+02 0.  0.
          1    1    1    2  501    0 -0.48281614497E+02 -0.81107941347E+00  0.19408111055E+03  0.19999812404E+03  0.00000000000E+00 0. -1.
         -2    1    1    2    0  503  0.36928637130E+02 -0.74055887880E+01 -0.47379039372E+01  0.37960699668E+02  0.00000000000E+00 0.  1.
<mgrwt>
<rscale>  2 0.83791646E+02</rscale>
<asrwt>0</asrwt>
<pdfrwt beam="1">  1       21 0.42380369E-01 0.83791646E+02</pdfrwt>
<pdfrwt beam="2">  1       21 0.78853652E-02 0.83791646E+02</pdfrwt>
<totfact> 0.66236213E+05</totfact>
</mgrwt>
</event>
<event>
 5    1  0.1624116E+000  0.6273186E+02  0.7546771E-02  0.1386712E+00
         21   -1    0    0  503  502  0.00000000000E+00  0.00000000000E+00  0.18608007316E+02  0.18608007316E+02  0.00000000000E+00 0.  1.
         21   -1    0    0  501  503 -0.00000000000E+00 -0.00000000000E+00 -0.47766410115E+03  0.47766410115E+03  0.00000000000E+00 0. -1.
         24    1    1    2    0    0  0.46956214512E+01  0.10760419157E+01 -0.83490748082E+02  0.11602210004E+03  0.80419002446E+02 0.  0.
          1    1    1    2  501    0 -0.11172698294E+02  0.19968580316E+02 -0.31458617906E+03  0.31541724341E+03  0.00000000000E+00 0. -1.
         -2    1    1    2    0  502  0.64770768428E+01 -0.21044622232E+02 -0.60979166696E+02  0.64832765021E+02  0.00000000000E+00 0.  1.
<mgrwt>
<rscale>  2 0.62731855E+02</rscale>
<asrwt>0</asrwt>
<pdfrwt beam="1">  1       21 0.28627699E-02 0.62731855E+02</pdfrwt>
<pdfrwt beam="2">  1       21 0.73486796E-01 0.62731855E+02</pdfrwt>
<totfact> 0.11267155E+06</totfact>
</mgrwt>
</event>
<event>
 5    1  0.1624116E+000  0.7657974E+02  0.7546771E-02  0.1339048E+00
         21   -1    0    0  503  502  0.00000000000E+00  0.00000000000E+00  0.17175855870E+04  0.17175855870E+04  0.00000000000E+00 0. -1.
         21   -1    0    0  501  503 -0.00000000000E+00 -0.00000000000E+00 -0.53797062585E+01  0.53797062585E+01  0.00000000000E+00 0.  1.
         24    1    1    2    0    0 -0.29126390242E+02 -0.20618042984E+02  0.73518792596E+03  0.74043362481E+03  0.80419002446E+02 0.  0.
          1    1    1    2  501    0  0.74435530043E+01  0.37164968769E+02  0.13914902860E+03  0.14421890841E+03  0.00000000000E+00 0. -1.
         -2    1    1    2    0  502  0.21682837238E+02 -0.16546925784E+02  0.83786892617E+03  0.83831276003E+03  0.00000000000E+00 0.  1.
<mgrwt>
<rscale>  2 0.76579743E+02</rscale>
<asrwt>0</asrwt>
<pdfrwt beam="1">  1       21 0.26424350E+00 0.76579743E+02</pdfrwt>
<pdfrwt beam="2">  1       21 0.82764849E-03 0.76579743E+02</pdfrwt>
<totfact> 0.30487685E+05</totfact>
</mgrwt>
</event>
<event>
 5    1  0.2334606E+000  0.1664612E+03  0.7546771E-02  0.1181589E+00
         21   -1    0    0  501  502  0.00000000000E+00  0.00000000000E+00  0.34223472905E+02  0.34223472905E+02  0.00000000000E+00 0.  1.
         21   -1    0    0  502  503 -0.00000000000E+00 -0.00000000000E+00 -0.14284954881E+04  0.14284954881E+04  0.00000000000E+00 0.  1.
         24    1    1    2    0    0  0.48148164980E+01 -0.22304716068E+02 -0.16791043638E+03  0.18756815672E+03  0.80419002446E+02 0.  1.
          1    1    1    2  501    0 -0.85210683633E+02 -0.81581151505E+02 -0.15013370233E+03  0.19093578360E+03  0.00000000000E+00 0. -1.
         -2    1    1    2    0  503  0.80395867135E+02  0.10388586757E+03 -0.10762278765E+04  0.10842150207E+04  0.00000000000E+00 0.  1.
<mgrwt>
<rscale>  2 0.16646121E+03</rscale>
<asrwt>0</asrwt>
<pdfrwt beam="1">  1       21 0.52651495E-02 0.16646121E+03</pdfrwt>
<pdfrwt beam="2">  1       21 0.21976854E+00 0.16646121E+03</pdfrwt>
<totfact> 0.25402986E+04</totfact>
</mgrwt>
</event>
<event>
 5    1  0.1624116E+000  0.8109776E+02  0.7546771E-02  0.1325965E+00
         21   -1    0    0  501  502  0.00000000000E+00  0.00000000000E+00  0.17145556481E+02  0.17145556481E+02  0.00000000000E+00 0.  1.
         21   -1    0    0  502  503 -0.00000000000E+00 -0.00000000000E+00 -0.58276163971E+03  0.58276163971E+03  0.00000000000E+00 0.  1.
         24    1    1    2    0    0  0.45022464670E+02  0.39888216018E+02 -0.15518093746E+03  0.18484163873E+03  0.80419002446E+02 0.  1.
          1    1    1    2  501    0 -0.26085256936E+02 -0.31924298267E+02 -0.26550376332E+03  0.26868541045E+03  0.00000000000E+00 0. -1.
         -2    1    1    2    0  503 -0.18937207734E+02 -0.79639177506E+01 -0.14493138245E+03  0.14638014702E+03  0.00000000000E+00 0.  1.
<mgrwt>
<rscale>  2 0.81097757E+02</rscale>
<asrwt>0</asrwt>
<pdfrwt beam="1">  1       21 0.26377779E-02 0.81097757E+02</pdfrwt>
<pdfrwt beam="2">  1       21 0.89655638E-01 0.81097757E+02</pdfrwt>
<totfact> 0.83408379E+05</totfact>
</mgrwt>
</event>
<event>
 5    1  0.1624116E+000  0.1104685E+03  0.7546771E-02  0.1259705E+00
         21   -1    0    0  503  502  0.00000000000E+00  0.00000000000E+00  0.70005265684E+03  0.70005265684E+03  0.00000000000E+00 0.  1.
         21   -1    0    0  501  503 -0.00000000000E+00 -0.00000000000E+00 -0.36233357929E+02  0.36233357929E+02  0.00000000000E+00 0. -1.
         24    1    1    2    0    0 -0.19211543842E+02 -0.80425202842E+02  0.77369390704E+02  0.13889037130E+03  0.80419002446E+02 0. -1.
          1    1    1    2  501    0 -0.23743543071E+02  0.40502849722E+02  0.15428816926E+03  0.16127329552E+03  0.00000000000E+00 0. -1.
         -2    1    1    2    0  502  0.42955086913E+02  0.39922353119E+02  0.43216173895E+03  0.43612234795E+03  0.00000000000E+00 0.  1.
<mgrwt>
<rscale>  2 0.11046846E+03</rscale>
<asrwt>0</asrwt>
<pdfrwt beam="1">  1       21 0.10770040E+00 0.11046846E+03</pdfrwt>
<pdfrwt beam="2">  1       21 0.55743633E-02 0.11046846E+03</pdfrwt>
<totfact> 0.15846550E+05</totfact>
</mgrwt>
</event>
<event>
 5    1  0.1624116E+000  0.1067820E+03  0.7546771E-02  0.1266648E+00
         21   -1    0    0  501  502  0.00000000000E+00  0.00000000000E+00  0.90673623149E+02  0.90673623149E+02  0.00000000000E+00 0. -1.
         21   -1    0    0  502  503 -0.00000000000E+00 -0.00000000000E+00 -0.39738611401E+03  0.39738611401E+03  0.00000000000E+00 0. -1.
         24    1    1    2    0    0  0.19409332666E+02  0.78430493768E+02 -0.24440181096E+03  0.26968041401E+03  0.80419002446E+02 0. -1.
          1    1    1    2  501    0  0.73030028446E+01 -0.71631981773E+02  0.59551283272E+02  0.93438910539E+02  0.00000000000E+00 0. -1.
         -2    1    1    2    0  503 -0.26712335511E+02 -0.67985119951E+01 -0.12186196318E+03  0.12494041261E+03  0.00000000000E+00 0.  1.
<mgrwt>
<rscale>  2 0.10678202E+03</rscale>
<asrwt>0</asrwt>
<pdfrwt beam="1">  1       21 0.13949788E-01 0.10678202E+03</pdfrwt>
<pdfrwt beam="2">  1       21 0.61136325E-01 0.10678202E+03</pdfrwt>
<totfact> 0.11511935E+05</totfact>
</mgrwt>
</event>
<event>
 5    1  0.1624116E+000  0.9646322E+02  0.7546771E-02  0.1287914E+00
         21   -1    0    0  503  502  0.00000000000E+00  0.00000000000E+00  0.31112507864E+02  0.31112507864E+02  0.00000000000E+00 0.  1.
         21   -1    0    0  501  503 -0.00000000000E+00 -0.00000000000E+00 -0.63107340098E+03  0.63107340098E+03  0.00000000000E+00 0. -1.
         24    1    1    2    0    0 -0.71407185829E+02 -0.15978656233E+02 -0.27157600734E+03  0.29253213047E+03  0.80419002446E+02 0.  1.
          1    1    1    2  501    0  0.14248807378E+02  0.22539795226E+02 -0.30718233914E+03  0.30833757533E+03  0.00000000000E+00 0. -1.
         -2    1    1    2    0  502  0.57158378450E+02 -0.65611389933E+01 -0.21202546642E+02  0.61316203046E+02  0.00000000000E+00 0.  1.
<mgrwt>
<rscale>  2 0.96463221E+02</rscale>
<asrwt>0</asrwt>
<pdfrwt beam="1">  1       21 0.47865402E-02 0.96463221E+02</pdfrwt>
<pdfrwt beam="2">  1       21 0.97088205E-01 0.96463221E+02</pdfrwt>
<totfact> 0.26189100E+05</totfact>
</mgrwt>
</event>
<event>
 5    1  0.1993052E+000  0.7796928E+02  0.7546771E-02  0.1334915E+00
         21   -1    0    0  503  502  0.00000000000E+00  0.00000000000E+00  0.53561032303E+03  0.53561032303E+03  0.00000000000E+00 0.  1.
         21   -1    0    0  501  503 -0.00000000000E+00 -0.00000000000E+00 -0.35815791130E+03  0.35815791130E+03  0.00000000000E+00 0. -1.
         24    1    1    2    0    0 -0.23455365894E+02 -0.18908892666E+02  0.39950877190E+03  0.40863452520E+03  0.80419002446E+02 0.  1.
          1    1    1    2  501    0 -0.21896847662E+02  0.35741637459E+01 -0.34887486099E+03  0.34957962643E+03  0.00000000000E+00 0. -1.
         -2    1    1    2    0  502  0.45352213556E+02  0.15334728920E+02  0.12681850083E+03  0.13555408270E+03  0.00000000000E+00 0.  1.
<mgrwt>
<rscale>  2 0.77969281E+02</rscale>
<asrwt>0</asrwt>
<pdfrwt beam="1">  1       21 0.82401589E-01 0.77969281E+02</pdfrwt>
<pdfrwt beam="2">  1       21 0.55101217E-01 0.77969281E+02</pdfrwt>
<totfact> 0.45485043E+03</totfact>
</mgrwt>
</event>
<event>
 5    1  0.1624116E+000  0.7110338E+02  0.7546771E-02  0.1356381E+00
         21   -1    0    0  501  502  0.00000000000E+00  0.00000000000E+00  0.29760005905E+01  0.29760005905E+01  0.00000000000E+00 0.  1.
         21   -1    0    0  502  503 -0.00000000000E+00 -0.00000000000E+00 -0.21454716700E+04  0.21454716700E+04  0.00000000000E+00 0.  1.
         24    1    1    2    0    0 -0.16310849007E+02  0.10536848374E+02 -0.15755351390E+04  0.15777056948E+04  0.80419002446E+02 0.  1.
          1    1    1    2  501    0 -0.17799998024E+02 -0.17164608508E+02 -0.12530713196E+03  0.12772369018E+03  0.00000000000E+00 0. -1.
         -2    1    1    2    0  503  0.34110847031E+02  0.66277601340E+01 -0.44165339840E+03  0.44301828563E+03  0.00000000000E+00 0.  1.
<mgrwt>
<rscale>  2 0.71103378E+02</rscale>
<asrwt>0</asrwt>
<pdfrwt beam="1">  1       21 0.45784754E-03 0.71103378E+02</pdfrwt>
<pdfrwt beam="2">  1       21 0.33007163E+00 0.71103378E+02</pdfrwt>
<totfact> 0.33538707E+05</totfact>
</mgrwt>
</event>
<event>
 5    1  0.1624116E+000  0.7732618E+02  0.7546771E-02  0.1336815E+00
         21   -1    0    0  503  502  0.00000000000E+00  0.00000000000E+00  0.13506753291E+03  0.13506753291E+03  0.00000000000E+00 0.  1.
         21   -1    0    0  501  503 -0.00000000000E+00 -0.00000000000E+00 -0.14009671302E+03  0.14009671302E+03  0.00000000000E+00 0. -1.
         24    1    1    2    0    0 -0.28013344613E+02 -0.42864783360E+02  0.71218916882E+02  0.11900204706E+03  0.80419002446E+02 0.  1.
          1    1    1    2  501    0  0.26308902291E+02  0.12900535283E+02 -0.10833439896E+03  0.11222710969E+03  0.00000000000E+00 0. -1.
         -2    1    1    2    0  502  0.17044423222E+01  0.29964248076E+02  0.32086301976E+02  0.43935089176E+02  0.00000000000E+00 0.  1.
<mgrwt>
<rscale>  2 0.77326178E+02</rscale>
<asrwt>0</asrwt>
<pdfrwt beam="1">  1       21 0.20779620E-01 0.77326178E+02</pdfrwt>
<pdfrwt beam="2">  1       21 0.21553340E-01 0.77326178E+02</pdfrwt>
<totfact> 0.43673068E+05</totfact>
</mgrwt>
</event>
<event>
 5    1  0.1624116E+000  0.7934920E+02  0.7546771E-02  0.1330909E+00
         21   -1    0    0  503  502  0.00000000000E+00  0.00000000000E+00  0.10693858455E+03  0.10693858455E+03  0.00000000000E+00 0. -1.
         21   -1    0    0  501  503 -0.00000000000E+00 -0.00000000000E+00 -0.89889113470E+02  0.89889113470E+02  0.00000000000E+00 0. -1.
         24    1    1    2    0    0  0.70996836456E+01  0.42559772704E+02  0.28115906615E+02  0.95495863364E+02  0.80419002446E+02 0. -1.
          1    1    1    2  501    0 -0.29519867865E+02 -0.28105972555E+02 -0.43316987239E+02  0.59478817031E+02  0.00000000000E+00 0. -1.
         -2    1    1    2    0  502  0.22420184219E+02 -0.14453800148E+02  0.32250551700E+02  0.41853017622E+02  0.00000000000E+00 0.  1.
<mgrwt>
<rscale>  2 0.79349200E+02</rscale>
<asrwt>0</asrwt>
<pdfrwt beam="1">  1       21 0.16452090E-01 0.79349200E+02</pdfrwt>
<pdfrwt beam="2">  1       21 0.13829094E-01 0.79349200E+02</pdfrwt>
<totfact> 0.14818364E+06</totfact>
</mgrwt>
</event>
<event>
 5    1  0.1624116E+000  0.7036145E+02  0.7546771E-02  0.1358868E+00
         21   -1    0    0  503  502  0.00000000000E+00  0.00000000000E+00  0.38432156925E+03  0.38432156925E+03  0.00000000000E+00 0. -1.
         21   -1    0    0  501  503 -0.00000000000E+00 -0.00000000000E+00 -0.52138839961E+02  0.52138839961E+02  0.00000000000E+00 0. -1.
         24    1    1    2    0    0  0.98656174278E+01  0.40529584713E+02  0.12167834664E+03  0.15169974832E+03  0.80419002446E+02 0. -1.
          1    1    1    2  501    0 -0.19360174696E+02 -0.21976393284E+02 -0.30832496254E+02  0.42525534109E+02  0.00000000000E+00 0. -1.
         -2    1    1    2    0  502  0.94945572680E+01 -0.18553191429E+02  0.24133687890E+03  0.24223512679E+03  0.00000000000E+00 0.  1.
<mgrwt>
<rscale>  2 0.70361450E+02</rscale>
<asrwt>0</asrwt>
<pdfrwt beam="1">  1       21 0.59126394E-01 0.70361450E+02</pdfrwt>
<pdfrwt beam="2">  1       21 0.80213602E-02 0.70361450E+02</pdfrwt>
<totfact> 0.32691659E+05</totfact>
</mgrwt>
</event>
<event>
 5    1  0.1624116E+000  0.7088641E+02  0.7546771E-02  0.1357104E+00
         21   -1    0    0  501  502  0.00000000000E+00  0.00000000000E+00  0.71826869772E+03  0.71826869772E+03  0.00000000000E+00 0.  1.
         21   -1    0    0  502  503 -0.00000000000E+00 -0.00000000000E+00 -0.13940972257E+02  0.13940972257E+02  0.00000000000E+00 0.  1.
         24    1    1    2    0    0 -0.34417078086E+02  0.23736299875E+02  0.44603629076E+03  0.45515221171E+03  0.80419002446E+02 0.  1.
          1    1    1    2  501    0  0.22924335343E+02  0.19379582870E+01  0.24476716030E+03  0.24584597535E+03  0.00000000000E+00 0. -1.
         -2    1    1    2    0  503  0.11492742743E+02 -0.25674258162E+02  0.13524274403E+02  0.31211482919E+02  0.00000000000E+00 0.  1.
<mgrwt>
<rscale>  2 0.70886410E+02</rscale>
<asrwt>0</asrwt>
<pdfrwt beam="1">  1       21 0.11050285E+00 0.70886410E+02</pdfrwt>
<pdfrwt beam="2">  1       21 0.21447655E-02 0.70886410E+02</pdfrwt>
<totfact> 0.71837208E+05</totfact>
</mgrwt>
</event>
<event>
 5    1  0.1624116E+000  0.9678046E+02  0.7546771E-02  0.1287216E+00
         21   -1    0    0  501  502  0.00000000000E+00  0.00000000000E+00  0.72545049604E+03  0.72545049604E+03  0.00000000000E+00 0. -1.
         21   -1    0    0  502  503 -0.00000000000E+00 -0.00000000000E+00 -0.44860396936E+02  0.44860396936E+02  0.00000000000E+00 0.  1.
         24    1    1    2    0    0 -0.45165911717E+02  0.12655652616E+02  0.35188658980E+03  0.36399383671E+03  0.80419002446E+02 0.  0.
          1    1    1    2  501    0 -0.24128725574E+02 -0.19233143788E+02  0.33500799811E+03  0.33642602161E+03  0.00000000000E+00 0. -1.
         -2    1    1    2    0  503  0.69294637290E+02  0.65774911714E+01 -0.63044888045E+01  0.69891034664E+02  0.00000000000E+00 0.  1.
<mgrwt>
<rscale>  2 0.96780465E+02</rscale>
<asrwt>0</asrwt>
<pdfrwt beam="1">  1       21 0.11160776E+00 0.96780465E+02</pdfrwt>
<pdfrwt beam="2">  1       21 0.69016000E-02 0.96780465E+02</pdfrwt>
<totfact> 0.10221217E+05</totfact>
</mgrwt>
</event>
<event>
 5    1  0.1624116E+000  0.1261327E+03  0.7546771E-02  0.1233310E+00
         21   -1    0    0  501  502  0.00000000000E+00  0.00000000000E+00  0.23981546627E+03  0.23981546627E+03  0.00000000000E+00 0. -1.
         21   -1    0    0  502  503 -0.00000000000E+00 -0.00000000000E+00 -0.74810632147E+02  0.74810632147E+02  0.00000000000E+00 0. -1.
         24    1    1    2    0    0  0.75691776241E+02  0.24857808401E+01  0.58805549281E+02  0.12514284909E+03  0.80419002446E+02 0. -1.
          1    1    1    2  501    0 -0.81255095885E+02 -0.49044953682E+02  0.10641797215E+03  0.14259236615E+03  0.00000000000E+00 0. -1.
         -2    1    1    2    0  503  0.55633196435E+01  0.46559172842E+02 -0.21868730493E+00  0.46890883179E+02  0.00000000000E+00 0.  1.
<mgrwt>
<rscale>  2 0.12613268E+03</rscale>
<asrwt>0</asrwt>
<pdfrwt beam="1">  1       21 0.36894687E-01 0.12613268E+03</pdfrwt>
<pdfrwt beam="2">  1       21 0.11509328E-01 0.12613268E+03</pdfrwt>
<totfact> 0.45225391E+05</totfact>
</mgrwt>
</event>
<event>
 5    1  0.1624116E+000  0.6699362E+02  0.7546771E-02  0.1370625E+00
         21   -1    0    0  503  502  0.00000000000E+00  0.00000000000E+00  0.65354998451E+02  0.65354998451E+02  0.00000000000E+00 0. -1.
         21   -1    0    0  501  503 -0.00000000000E+00 -0.00000000000E+00 -0.85032275634E+02  0.85032275634E+02  0.00000000000E+00 0.  1.
         24    1    1    2    0    0  0.21889607577E+02  0.24987464680E+02 -0.38438954097E+02  0.95122539166E+02  0.80419002446E+02 0. -1.
          1    1    1    2  501    0 -0.23449279921E+02 -0.15634671480E+01 -0.24456501041E+01  0.23628253485E+02  0.00000000000E+00 0. -1.
         -2    1    1    2    0  502  0.15596723442E+01 -0.23423997532E+02  0.21207327018E+02  0.31636481433E+02  0.00000000000E+00 0.  1.
<mgrwt>
<rscale>  2 0.66993616E+02</rscale>
<asrwt>0</asrwt>
<pdfrwt beam="1">  1       21 0.10054615E-01 0.66993616E+02</pdfrwt>
<pdfrwt beam="2">  1       21 0.13081888E-01 0.66993616E+02</pdfrwt>
<totfact> 0.38400310E+06</totfact>
</mgrwt>
</event>
<event>
 5    1  0.1624116E+000  0.6426905E+02  0.7546771E-02  0.1380742E+00
         21   -1    0    0  503  502  0.00000000000E+00  0.00000000000E+00  0.22142980306E+02  0.22142980306E+02  0.00000000000E+00 0. -1.
         21   -1    0    0  501  503 -0.00000000000E+00 -0.00000000000E+00 -0.25941300967E+03  0.25941300967E+03  0.00000000000E+00 0. -1.
         24    1    1    2    0    0 -0.14103645952E+02  0.17449243738E+02 -0.17561377628E+03  0.19445000209E+03  0.80419002446E+02 0. -1.
          1    1    1    2  501    0 -0.10077747341E+02 -0.18256249268E+02 -0.59225397360E+02  0.62789324899E+02  0.00000000000E+00 0. -1.
         -2    1    1    2    0  502  0.24181393293E+02  0.80700553056E+00 -0.24308557213E+01  0.24316662992E+02  0.00000000000E+00 0.  1.
<mgrwt>
<rscale>  2 0.64269050E+02</rscale>
<asrwt>0</asrwt>
<pdfrwt beam="1">  1       21 0.34066123E-02 0.64269050E+02</pdfrwt>
<pdfrwt beam="2">  1       21 0.39909694E-01 0.64269050E+02</pdfrwt>
<totfact> 0.29736685E+06</totfact>
</mgrwt>
</event>
<event>
 5    1  0.1624116E+000  0.7285236E+02  0.7546771E-02  0.1350654E+00
         21   -1    0    0  501  502  0.00000000000E+00  0.00000000000E+00  0.20116227712E+03  0.20116227712E+03  0.00000000000E+00 0.  1.
         21   -1    0    0  502  503 -0.00000000000E+00 -0.00000000000E+00 -0.10802353645E+03  0.10802353645E+03  0.00000000000E+00 0.  1.
         24    1    1    2    0    0 -0.34308057791E+02 -0.33256795682E+02  0.10518654245E+03  0.14076392277E+03  0.80419002446E+02 0.  1.
          1    1    1    2  501    0  0.22188931695E+02  0.70392563086E+01  0.74042493615E+02  0.77615660017E+02  0.00000000000E+00 0. -1.
         -2    1    1    2    0  503  0.12119126095E+02  0.26217539374E+02 -0.86090295396E+02  0.90806230785E+02  0.00000000000E+00 0.  1.
<mgrwt>
<rscale>  2 0.72852361E+02</rscale>
<asrwt>0</asrwt>
<pdfrwt beam="1">  1       21 0.30948043E-01 0.72852361E+02</pdfrwt>
<pdfrwt beam="2">  1       21 0.16619006E-01 0.72852361E+02</pdfrwt>
<totfact> 0.33283733E+05</totfact>
</mgrwt>
</event>
<event>
 5    1  0.1624116E+000  0.1148734E+03  0.7546771E-02  0.1251802E+00
         21   -1    0    0  503  502  0.00000000000E+00  0.00000000000E+00  0.17279832195E+04  0.17279832195E+04  0.00000000000E+00 0.  1.
         21   -1    0    0  501  503 -0.00000000000E+00 -0.00000000000E+00 -0.15988242915E+02  0.15988242915E+02  0.00000000000E+00 0.  1.
         24    1    1    2    0    0 -0.86001808149E+02  0.15898234770E+02  0.14846449809E+04  0.14893914865E+04  0.80419002446E+02 0.  1.
          1    1    1    2  501    0  0.92984452481E+01  0.23089577787E+02  0.28064233948E+02  0.37512543415E+02  0.00000000000E+00 0. -1.
         -2    1    1    2    0  502  0.76703362901E+02 -0.38987812557E+02  0.19928576173E+03  0.21706743246E+03  0.00000000000E+00 0.  1.
<mgrwt>
<rscale>  2 0.11487342E+03</rscale>
<asrwt>0</asrwt>
<pdfrwt beam="1">  1       21 0.26584342E+00 0.11487342E+03</pdfrwt>
<pdfrwt beam="2">  1       21 0.24597310E-02 0.11487342E+03</pdfrwt>
<totfact> 0.50817650E+04</totfact>
</mgrwt>
</event>
<event>
 5    1  0.1624116E+000  0.7415457E+02  0.7546771E-02  0.1346509E+00
         21   -1    0    0  503  502  0.00000000000E+00  0.00000000000E+00  0.70207794766E+02  0.70207794766E+02  0.00000000000E+00 0. -1.
         21   -1    0    0  501  503 -0.00000000000E+00 -0.00000000000E+00 -0.11013556538E+03  0.11013556538E+03  0.00000000000E+00 0.  1.
         24    1    1    2    0    0 -0.24756153448E+02 -0.31904276603E+02 -0.54880722456E+02  0.10540331897E+03  0.80419002446E+02 0.  1.
          1    1    1    2  501    0  0.17727763369E+01  0.35074652569E+02 -0.14026889327E+02  0.37817028082E+02  0.00000000000E+00 0. -1.
         -2    1    1    2    0  502  0.22983377111E+02 -0.31703759666E+01  0.28979841165E+02  0.37123013093E+02  0.00000000000E+00 0.  1.
<mgrwt>
<rscale>  2 0.74154567E+02</rscale>
<asrwt>0</asrwt>
<pdfrwt beam="1">  1       21 0.10801199E-01 0.74154567E+02</pdfrwt>
<pdfrwt beam="2">  1       21 0.16943933E-01 0.74154567E+02</pdfrwt>
<totfact> 0.21595803E+06</totfact>
</mgrwt>
</event>
<event>
 5    1  0.1624116E+000  0.1148208E+03  0.7546771E-02  0.1251894E+00
         21   -1    0    0  501  502  0.00000000000E+00  0.00000000000E+00  0.33274518823E+03  0.33274518823E+03  0.00000000000E+00 0.  1.
         21   -1    0    0  502  503 -0.00000000000E+00 -0.00000000000E+00 -0.44167698826E+02  0.44167698826E+02  0.00000000000E+00 0.  1.
         24    1    1    2    0    0 -0.67233297460E+02  0.80955302940E+01  0.14505837112E+03  0.17915077696E+03  0.80419002446E+02 0.  1.
          1    1    1    2  501    0 -0.23442570034E+02  0.18665179453E+02  0.75686677975E+02  0.81402802388E+02  0.00000000000E+00 0. -1.
         -2    1    1    2    0  503  0.90675867494E+02 -0.26760709747E+02  0.67832440303E+02  0.11635930770E+03  0.00000000000E+00 0.  1.
<mgrwt>
<rscale>  2 0.11482079E+03</rscale>
<asrwt>0</asrwt>
<pdfrwt beam="1">  1       21 0.51191566E-01 0.11482079E+03</pdfrwt>
<pdfrwt beam="2">  1       21 0.67950308E-02 0.11482079E+03</pdfrwt>
<totfact> 0.58230407E+05</totfact>
</mgrwt>
</event>
<event>
 5    1  0.1624116E+000  0.7692298E+02  0.7546771E-02  0.1338018E+00
         21   -1    0    0  501  502  0.00000000000E+00  0.00000000000E+00  0.15713861520E+02  0.15713861520E+02  0.00000000000E+00 0. -1.
         21   -1    0    0  502  503 -0.00000000000E+00 -0.00000000000E+00 -0.44878224884E+03  0.44878224884E+03  0.00000000000E+00 0.  1.
         24    1    1    2    0    0 -0.31733919443E+02  0.25922101076E+02 -0.33865478866E+03  0.35047578919E+03  0.80419002446E+02 0.  1.
          1    1    1    2  501    0 -0.22635616859E+01 -0.29334109141E+02 -0.37883376829E+02  0.47966278890E+02  0.00000000000E+00 0. -1.
         -2    1    1    2    0  503  0.33997481129E+02  0.34120080641E+01 -0.56530221829E+02  0.66054042285E+02  0.00000000000E+00 0.  1.
<mgrwt>
<rscale>  2 0.76922977E+02</rscale>
<asrwt>0</asrwt>
<pdfrwt beam="1">  1       21 0.24175175E-02 0.76922977E+02</pdfrwt>
<pdfrwt beam="2">  1       21 0.69043414E-01 0.76922977E+02</pdfrwt>
<totfact> 0.17004606E+06</totfact>
</mgrwt>
</event>
<event>
 5    1  0.1624116E+000  0.7432222E+02  0.7546771E-02  0.1345983E+00
         21   -1    0    0  501  502  0.00000000000E+00  0.00000000000E+00  0.19580707436E+02  0.19580707436E+02  0.00000000000E+00 0.  1.
         21   -1    0    0  502  503 -0.00000000000E+00 -0.00000000000E+00 -0.38222281105E+03  0.38222281105E+03  0.00000000000E+00 0. -1.
         24    1    1    2    0    0 -0.41379620561E+02 -0.45953582009E+01 -0.11444715342E+03  0.14594093735E+03  0.80419002446E+02 0.  1.
          1    1    1    2  501    0  0.18404912761E+02  0.22421413432E+02 -0.78375587814E+02  0.83571486521E+02  0.00000000000E+00 0. -1.
         -2    1    1    2    0  503  0.22974707799E+02 -0.17826055231E+02 -0.16981936238E+03  0.17229109461E+03  0.00000000000E+00 0.  1.
<mgrwt>
<rscale>  2 0.74322217E+02</rscale>
<asrwt>0</asrwt>
<pdfrwt beam="1">  1       21 0.30124164E-02 0.74322217E+02</pdfrwt>
<pdfrwt beam="2">  1       21 0.58803512E-01 0.74322217E+02</pdfrwt>
<totfact> 0.16723244E+06</totfact>
</mgrwt>
</event>
<event>
 5    1  0.1624116E+000  0.1299236E+03  0.7546771E-02  0.1227569E+00
         21   -1    0    0  501  502  0.00000000000E+00  0.00000000000E+00  0.19358075406E+02  0.19358075406E+02  0.00000000000E+00 0. -1.
         21   -1    0    0  502  503 -0.00000000000E+00 -0.00000000000E+00 -0.11686822809E+04  0.11686822809E+04  0.00000000000E+00 0. -1.
         24    1    1    2    0    0  0.31421191296E+02 -0.10101010464E+03 -0.86867801318E+03  0.87878270297E+03  0.80419002446E+02 0. -1.
          1    1    1    2  501    0  0.15623130107E+02  0.67301930738E+02 -0.11952251701E+03  0.13805529381E+03  0.00000000000E+00 0. -1.
         -2    1    1    2    0  503 -0.47044321403E+02  0.33708173906E+02 -0.16112367525E+03  0.17120235948E+03  0.00000000000E+00 0.  1.
<mgrwt>
<rscale>  2 0.12992363E+03</rscale>
<asrwt>0</asrwt>
<pdfrwt beam="1">  1       21 0.29781661E-02 0.12992363E+03</pdfrwt>
<pdfrwt beam="2">  1       21 0.17979723E+00 0.12992363E+03</pdfrwt>
<totfact> 0.12092023E+05</totfact>
</mgrwt>
</event>
<event>
 5    1  0.1624116E+000  0.7805604E+02  0.7546771E-02  0.1334660E+00
         21   -1    0    0  503  502  0.00000000000E+00  0.00000000000E+00  0.35993372855E+02  0.35993372855E+02  0.00000000000E+00 0. -1.
         21   -1    0    0  501  503 -0.00000000000E+00 -0.00000000000E+00 -0.30054688741E+03  0.30054688741E+03  0.00000000000E+00 0. -1.
         24    1    1    2    0    0 -0.16895197138E+02  0.38728135636E+02 -0.12965404234E+03  0.15831204258E+03  0.80419002446E+02 0.  0.
          1    1    1    2  501    0 -0.35664457546E+01 -0.43995545426E+02 -0.14727128583E+03  0.15374381023E+03  0.00000000000E+00 0. -1.
         -2    1    1    2    0  502  0.20461642892E+02  0.52674097909E+01  0.12371813627E+02  0.24484407450E+02  0.00000000000E+00 0.  1.
<mgrwt>
<rscale>  2 0.78056035E+02</rscale>
<asrwt>0</asrwt>
<pdfrwt beam="1">  1       21 0.55374420E-02 0.78056035E+02</pdfrwt>
<pdfrwt beam="2">  1       21 0.46237982E-01 0.78056035E+02</pdfrwt>
<totfact> 0.10081729E+06</totfact>
</mgrwt>
</event>
<event>
 5    1  0.1624116E+000  0.1003757E+03  0.7546771E-02  0.1279508E+00
         21   -1    0    0  501  502  0.00000000000E+00  0.00000000000E+00  0.47056189333E+03  0.47056189333E+03  0.00000000000E+00 0. -1.
         21   -1    0    0  502  503 -0.00000000000E+00 -0.00000000000E+00 -0.11918530259E+03  0.11918530259E+03  0.00000000000E+00 0.  1.
         24    1    1    2    0    0  0.47975397804E+02  0.25760998513E+02  0.15701653121E+02  0.98382039540E+02  0.80419002446E+02 0.  1.
          1    1    1    2  501    0 -0.15708322337E+02  0.33025355263E+02  0.39808256573E+03  0.39975887059E+03  0.00000000000E+00 0. -1.
         -2    1    1    2    0  503 -0.32267075467E+02 -0.58786353776E+02 -0.62407628105E+02  0.91606285784E+02  0.00000000000E+00 0.  1.
<mgrwt>
<rscale>  2 0.10037574E+03</rscale>
<asrwt>0</asrwt>
<pdfrwt beam="1">  1       21 0.72394137E-01 0.10037574E+03</pdfrwt>
<pdfrwt beam="2">  1       21 0.18336201E-01 0.10037574E+03</pdfrwt>
<totfact> 0.49109048E+04</totfact>
</mgrwt>
</event>
<event>
 5    1  0.1624116E+000  0.7448174E+02  0.7546771E-02  0.1345483E+00
         21   -1    0    0  503  502  0.00000000000E+00  0.00000000000E+00  0.78091749956E+03  0.78091749956E+03  0.00000000000E+00 0.  1.
         21   -1    0    0  501  503 -0.00000000000E+00 -0.00000000000E+00 -0.59814508485E+02  0.59814508485E+02  0.00000000000E+00 0. -1.
         24    1    1    2    0    0 -0.41065169107E+02 -0.42877776890E+01  0.54083836154E+02  0.10534234874E+03  0.80419002446E+02 0.  1.
          1    1    1    2  501    0  0.22162317196E+02  0.23018514348E+02 -0.26407051729E+02  0.41453017831E+02  0.00000000000E+00 0. -1.
         -2    1    1    2    0  502  0.18902851911E+02 -0.18730736659E+02  0.69342620665E+03  0.69393664147E+03  0.00000000000E+00 0.  1.
<mgrwt>
<rscale>  2 0.74481743E+02</rscale>
<asrwt>0</asrwt>
<pdfrwt beam="1">  1       21 0.12014115E+00 0.74481743E+02</pdfrwt>
<pdfrwt beam="2">  1       21 0.92022326E-02 0.74481743E+02</pdfrwt>
<totfact> 0.53418404E+04</totfact>
</mgrwt>
</event>
<event>
 5    1  0.1624116E+000  0.1011223E+03  0.7546771E-02  0.1277954E+00
         21   -1    0    0  501  502  0.00000000000E+00  0.00000000000E+00  0.33806561606E+03  0.33806561606E+03  0.00000000000E+00 0. -1.
         21   -1    0    0  502  503 -0.00000000000E+00 -0.00000000000E+00 -0.10430908679E+03  0.10430908679E+03  0.00000000000E+00 0.  1.
         24    1    1    2    0    0 -0.66434051800E+01  0.54671315349E+02  0.62623053178E+02  0.11585314108E+03  0.80419002446E+02 0. -1.
          1    1    1    2  501    0 -0.12324018473E+02 -0.75560758211E+02  0.24009777355E+03  0.25200843335E+03  0.00000000000E+00 0. -1.
         -2    1    1    2    0  503  0.18967423653E+02  0.20889442862E+02 -0.68964297464E+02  0.74513128426E+02  0.00000000000E+00 0.  1.
<mgrwt>
<rscale>  2 0.10112225E+03</rscale>
<asrwt>0</asrwt>
<pdfrwt beam="1">  1       21 0.52010094E-01 0.10112225E+03</pdfrwt>
<pdfrwt beam="2">  1       21 0.16047552E-01 0.10112225E+03</pdfrwt>
<totfact> 0.12585136E+05</totfact>
</mgrwt>
</event>
<event>
 5    1  0.1624116E+000  0.7031500E+02  0.7546771E-02  0.1359025E+00
         21   -1    0    0  501  502  0.00000000000E+00  0.00000000000E+00  0.25649994306E+03  0.25649994306E+03  0.00000000000E+00 0.  1.
         21   -1    0    0  502  503 -0.00000000000E+00 -0.00000000000E+00 -0.32398294396E+02  0.32398294396E+02  0.00000000000E+00 0.  1.
         24    1    1    2    0    0  0.14949008307E+02  0.67623607809E+01  0.12858619824E+03  0.15254779154E+03  0.80419002446E+02 0.  1.
          1    1    1    2  501    0 -0.33028426676E+02  0.93614479071E+01  0.10489763688E+03  0.11037222431E+03  0.00000000000E+00 0. -1.
         -2    1    1    2    0  503  0.18079418370E+02 -0.16123808688E+02 -0.93821864534E+01  0.25978221607E+02  0.00000000000E+00 0.  1.
<mgrwt>
<rscale>  2 0.70315004E+02</rscale>
<asrwt>0</asrwt>
<pdfrwt beam="1">  1       21 0.39461528E-01 0.70315004E+02</pdfrwt>
<pdfrwt beam="2">  1       21 0.49843531E-02 0.70315004E+02</pdfrwt>
<totfact> 0.16388453E+06</totfact>
</mgrwt>
</event>
<event>
 5    1  0.1624116E+000  0.6899836E+02  0.7546771E-02  0.1363533E+00
         21   -1    0    0  503  502  0.00000000000E+00  0.00000000000E+00  0.22431809860E+02  0.22431809860E+02  0.00000000000E+00 0. -1.
         21   -1    0    0  501  503 -0.00000000000E+00 -0.00000000000E+00 -0.43822628259E+03  0.43822628259E+03  0.00000000000E+00 0.  1.
         24    1    1    2    0    0 -0.30878657885E+02  0.32790686297E+02 -0.98359461331E+02  0.13479807198E+03  0.80419002446E+02 0. -1.
          1    1    1    2  501    0  0.20380596545E+02 -0.15539673263E+02 -0.29318302488E+03  0.29430109792E+03  0.00000000000E+00 0. -1.
         -2    1    1    2    0  502  0.10498061340E+02 -0.17251013033E+02 -0.24251986522E+02  0.31558922555E+02  0.00000000000E+00 0.  1.
<mgrwt>
<rscale>  2 0.68998359E+02</rscale>
<asrwt>0</asrwt>
<pdfrwt beam="1">  1       21 0.34510479E-02 0.68998359E+02</pdfrwt>
<pdfrwt beam="2">  1       21 0.67419424E-01 0.68998359E+02</pdfrwt>
<totfact> 0.10040666E+06</totfact>
</mgrwt>
</event>
<event>
 5    1  0.1624116E+000  0.7666003E+02  0.7546771E-02  0.1338806E+00
         21   -1    0    0  503  502  0.00000000000E+00  0.00000000000E+00  0.22814311808E+03  0.22814311808E+03  0.00000000000E+00 0. -1.
         21   -1    0    0  501  503 -0.00000000000E+00 -0.00000000000E+00 -0.51587504860E+02  0.51587504860E+02  0.00000000000E+00 0.  1.
         24    1    1    2    0    0 -0.36131982175E+02  0.12788596751E+02  0.70909358745E+02  0.11386141337E+03  0.80419002446E+02 0.  0.
          1    1    1    2  501    0  0.38586317599E+02  0.11154048768E+02 -0.14977499897E+02  0.42867729272E+02  0.00000000000E+00 0. -1.
         -2    1    1    2    0  502 -0.24543354236E+01 -0.23942645519E+02  0.12062375437E+03  0.12300148030E+03  0.00000000000E+00 0.  1.
<mgrwt>
<rscale>  2 0.76660026E+02</rscale>
<asrwt>0</asrwt>
<pdfrwt beam="1">  1       21 0.35098941E-01 0.76660026E+02</pdfrwt>
<pdfrwt beam="2">  1       21 0.79365393E-02 0.76660026E+02</pdfrwt>
<totfact> 0.94715134E+05</totfact>
</mgrwt>
</event>
<event>
 5    1  0.1624116E+000  0.6846797E+02  0.7546771E-02  0.1365382E+00
         21   -1    0    0  503  502  0.00000000000E+00  0.00000000000E+00  0.11997754384E+03  0.11997754384E+03  0.00000000000E+00 0.  1.
         21   -1    0    0  501  503 -0.00000000000E+00 -0.00000000000E+00 -0.12646552782E+03  0.12646552782E+03  0.00000000000E+00 0.  1.
         24    1    1    2    0    0 -0.14613906541E+02 -0.11403861042E+02 -0.50817179598E+01  0.82684062085E+02  0.80419002446E+02 0.  1.
          1    1    1    2  501    0 -0.10574024832E+01  0.30040072893E+02 -0.77892147282E+02  0.83490782052E+02  0.00000000000E+00 0. -1.
         -2    1    1    2    0  502  0.15671309025E+02 -0.18636211852E+02  0.76485881253E+02  0.80268227523E+02  0.00000000000E+00 0.  1.
<mgrwt>
<rscale>  2 0.68467968E+02</rscale>
<asrwt>0</asrwt>
<pdfrwt beam="1">  1       21 0.18458084E-01 0.68467968E+02</pdfrwt>
<pdfrwt beam="2">  1       21 0.19456235E-01 0.68467968E+02</pdfrwt>
<totfact> 0.65193301E+05</totfact>
</mgrwt>
</event>
<event>
 5    1  0.1624116E+000  0.8271035E+02  0.7546771E-02  0.1321531E+00
         21   -1    0    0  503  502  0.00000000000E+00  0.00000000000E+00  0.97152146380E+03  0.97152146380E+03  0.00000000000E+00 0.  1.
         21   -1    0    0  501  503 -0.00000000000E+00 -0.00000000000E+00 -0.16798028270E+02  0.16798028270E+02  0.00000000000E+00 0.  1.
         24    1    1    2    0    0  0.34464345242E+02 -0.39867348455E+02  0.15252838586E+03  0.18030341376E+03  0.80419002446E+02 0.  1.
          1    1    1    2  501    0 -0.28855423998E+02 -0.15853706528E+00  0.86608866986E+02  0.91289410496E+02  0.00000000000E+00 0. -1.
         -2    1    1    2    0  502 -0.56089212436E+01  0.40025885520E+02  0.71558618269E+03  0.71672666782E+03  0.00000000000E+00 0.  1.
<mgrwt>
<rscale>  2 0.82710349E+02</rscale>
<asrwt>0</asrwt>
<pdfrwt beam="1">  1       21 0.14946480E+00 0.82710349E+02</pdfrwt>
<pdfrwt beam="2">  1       21 0.25843128E-02 0.82710349E+02</pdfrwt>
<totfact> 0.25490731E+05</totfact>
</mgrwt>
</event>
<event>
 5    1  0.1624116E+000  0.8547257E+02  0.7546771E-02  0.1314201E+00
         21   -1    0    0  503  502  0.00000000000E+00  0.00000000000E+00  0.59281358816E+01  0.59281358816E+01  0.00000000000E+00 0.  1.
         21   -1    0    0  501  503 -0.00000000000E+00 -0.00000000000E+00 -0.15118533271E+04  0.15118533271E+04  0.00000000000E+00 0. -1.
         24    1    1    2    0    0  0.59679333624E+02  0.22554959184E+02 -0.58424025584E+03  0.59318988659E+03  0.80419002446E+02 0.  1.
          1    1    1    2  501    0 -0.36754419800E+02 -0.91279037892E+00 -0.65841324896E+03  0.65943894862E+03  0.00000000000E+00 0. -1.
         -2    1    1    2    0  502 -0.22924913824E+02 -0.21642168805E+02 -0.26327168643E+03  0.26515262778E+03  0.00000000000E+00 0.  1.
<mgrwt>
<rscale>  2 0.85472566E+02</rscale>
<asrwt>0</asrwt>
<pdfrwt beam="1">  1       21 0.91202082E-03 0.85472566E+02</pdfrwt>
<pdfrwt beam="2">  1       21 0.23259284E+00 0.85472566E+02</pdfrwt>
<totfact> 0.39036281E+05</totfact>
</mgrwt>
</event>
<event>
 5    1  0.1624116E+000  0.1435320E+03  0.7546771E-02  0.1208654E+00
         21   -1    0    0  503  502  0.00000000000E+00  0.00000000000E+00  0.44394026901E+02  0.44394026901E+02  0.00000000000E+00 0.  1.
         21   -1    0    0  501  503 -0.00000000000E+00 -0.00000000000E+00 -0.14405189180E+04  0.14405189180E+04  0.00000000000E+00 0. -1.
         24    1    1    2    0    0  0.68751015276E+02  0.90381794631E+02 -0.13694277660E+03  0.19523347797E+03  0.80419002446E+02 0.  1.
          1    1    1    2  501    0 -0.64696523983E+02 -0.77233385897E+01 -0.11540250301E+04  0.11558629072E+04  0.00000000000E+00 0. -1.
         -2    1    1    2    0  502 -0.40544912933E+01 -0.82658456041E+02 -0.10515708438E+03  0.13381655970E+03  0.00000000000E+00 0.  1.
<mgrwt>
<rscale>  2 0.14353198E+03</rscale>
<asrwt>0</asrwt>
<pdfrwt beam="1">  1       21 0.68298494E-02 0.14353198E+03</pdfrwt>
<pdfrwt beam="2">  1       21 0.22161832E+00 0.14353198E+03</pdfrwt>
<totfact> 0.16230182E+04</totfact>
</mgrwt>
</event>
<event>
 5    1  0.1624116E+000  0.6796792E+02  0.7546771E-02  0.1367143E+00
         21   -1    0    0  501  502  0.00000000000E+00  0.00000000000E+00  0.95803146296E+03  0.95803146296E+03  0.00000000000E+00 0.  1.
         21   -1    0    0  502  503 -0.00000000000E+00 -0.00000000000E+00 -0.54125667927E+01  0.54125667927E+01  0.00000000000E+00 0.  1.
         24    1    1    2    0    0  0.14035589545E+02  0.39813929876E+02  0.58734159791E+03  0.59432273671E+03  0.80419002446E+02 0.  0.
          1    1    1    2  501    0  0.53170615671E+00 -0.22399934955E+02  0.27928619164E+03  0.28018354099E+03  0.00000000000E+00 0. -1.
         -2    1    1    2    0  503 -0.14567295702E+02 -0.17413994921E+02  0.85991106612E+02  0.88937752049E+02  0.00000000000E+00 0.  1.
<mgrwt>
<rscale>  2 0.67967922E+02</rscale>
<asrwt>0</asrwt>
<pdfrwt beam="1">  1       21 0.14738932E+00 0.67967922E+02</pdfrwt>
<pdfrwt beam="2">  1       21 0.83270335E-03 0.67967922E+02</pdfrwt>
<totfact> 0.15767317E+06</totfact>
</mgrwt>
</event>
<event>
 5    1  0.1624116E+000  0.9572008E+02  0.7546771E-02  0.1289562E+00
         21   -1    0    0  501  502  0.00000000000E+00  0.00000000000E+00  0.88330822352E+02  0.88330822352E+02  0.00000000000E+00 0.  1.
         21   -1    0    0  502  503 -0.00000000000E+00 -0.00000000000E+00 -0.14764232889E+03  0.14764232889E+03  0.00000000000E+00 0. -1.
         24    1    1    2    0    0  0.43485725015E+02  0.10112543320E+02 -0.92412325430E+02  0.13038606390E+03  0.80419002446E+02 0. -1.
          1    1    1    2  501    0  0.27695689125E+02 -0.11955027082E+01  0.15342732707E+02  0.31684063341E+02  0.00000000000E+00 0. -1.
         -2    1    1    2    0  503 -0.71181414140E+02 -0.89170406119E+01  0.17758086184E+02  0.73903024006E+02  0.00000000000E+00 0.  1.
<mgrwt>
<rscale>  2 0.95720079E+02</rscale>
<asrwt>0</asrwt>
<pdfrwt beam="1">  1       21 0.13589357E-01 0.95720079E+02</pdfrwt>
<pdfrwt beam="2">  1       21 0.22714204E-01 0.95720079E+02</pdfrwt>
<totfact> 0.85273731E+05</totfact>
</mgrwt>
</event>
<event>
 5    1  0.1624116E+000  0.1659761E+03  0.7546771E-02  0.1182110E+00
         21   -1    0    0  503  502  0.00000000000E+00  0.00000000000E+00  0.10879631922E+03  0.10879631922E+03  0.00000000000E+00 0.  1.
         21   -1    0    0  501  503 -0.00000000000E+00 -0.00000000000E+00 -0.50929635340E+03  0.50929635340E+03  0.00000000000E+00 0.  1.
         24    1    1    2    0    0 -0.87711154188E+01 -0.11690994033E+03 -0.12713699552E+03  0.19072466594E+03  0.80419002446E+02 0.  1.
          1    1    1    2  501    0  0.77979327835E+02  0.45241501829E+02 -0.30874790739E+03  0.32164085464E+03  0.00000000000E+00 0. -1.
         -2    1    1    2    0  502 -0.69208212416E+02  0.71668438505E+02  0.35384868724E+02  0.10572715204E+03  0.00000000000E+00 0.  1.
<mgrwt>
<rscale>  2 0.16597613E+03</rscale>
<asrwt>0</asrwt>
<pdfrwt beam="1">  1       21 0.16737895E-01 0.16597613E+03</pdfrwt>
<pdfrwt beam="2">  1       21 0.78353285E-01 0.16597613E+03</pdfrwt>
<totfact> 0.46902394E+04</totfact>
</mgrwt>
</event>
<event>
 5    1  0.1624116E+000  0.8143585E+02  0.7546771E-02  0.1325025E+00
         21   -1    0    0  503  502  0.00000000000E+00  0.00000000000E+00  0.55020347593E+02  0.55020347593E+02  0.00000000000E+00 0. -1.
         21   -1    0    0  501  503 -0.00000000000E+00 -0.00000000000E+00 -0.15499785603E+03  0.15499785603E+03  0.00000000000E+00 0. -1.
         24    1    1    2    0    0 -0.50112379899E+02  0.23823198205E+02 -0.99938553768E+01  0.98213484265E+02  0.80419002446E+02 0. -1.
          1    1    1    2  501    0  0.22120233356E+02 -0.29232012412E+02 -0.60872418466E+02  0.71058191669E+02  0.00000000000E+00 0. -1.
         -2    1    1    2    0  502  0.27992146543E+02  0.54088142064E+01 -0.29111234597E+02  0.40746527692E+02  0.00000000000E+00 0.  1.
<mgrwt>
<rscale>  2 0.81435849E+02</rscale>
<asrwt>0</asrwt>
<pdfrwt beam="1">  1       21 0.84646690E-02 0.81435849E+02</pdfrwt>
<pdfrwt beam="2">  1       21 0.23845823E-01 0.81435849E+02</pdfrwt>
<totfact> 0.17684632E+06</totfact>
</mgrwt>
</event>
<event>
 5    1  0.1624116E+000  0.1006256E+03  0.7546771E-02  0.1278986E+00
         21   -1    0    0  503  502  0.00000000000E+00  0.00000000000E+00  0.56055085717E+02  0.56055085717E+02  0.00000000000E+00 0.  1.
         21   -1    0    0  501  503 -0.00000000000E+00 -0.00000000000E+00 -0.25084205454E+03  0.25084205454E+03  0.00000000000E+00 0. -1.
         24    1    1    2    0    0 -0.17533555250E+02 -0.42451373430E+02 -0.13428526626E+03  0.16312355242E+03  0.80419002446E+02 0. -1.
          1    1    1    2  501    0  0.42287304495E+02 -0.15961199167E+02 -0.66110733121E+02  0.80084986321E+02  0.00000000000E+00 0. -1.
         -2    1    1    2    0  502 -0.24753749244E+02  0.58412572598E+02  0.56090305565E+01  0.63688601515E+02  0.00000000000E+00 0.  1.
<mgrwt>
<rscale>  2 0.10062561E+03</rscale>
<asrwt>0</asrwt>
<pdfrwt beam="1">  1       21 0.86238591E-02 0.10062561E+03</pdfrwt>
<pdfrwt beam="2">  1       21 0.38591086E-01 0.10062561E+03</pdfrwt>
<totfact> 0.68500214E+05</totfact>
</mgrwt>
</event>
<event>
 5    1  0.1624116E+000  0.1435381E+03  0.7546771E-02  0.1208646E+00
         21   -1    0    0  503  502  0.00000000000E+00  0.00000000000E+00  0.11045367734E+03  0.11045367734E+03  0.00000000000E+00 0.  1.
         21   -1    0    0  501  503 -0.00000000000E+00 -0.00000000000E+00 -0.44926779238E+03  0.44926779238E+03  0.00000000000E+00 0.  1.
         24    1    1    2    0    0  0.12522480517E+03 -0.41303087214E+02 -0.33794950755E+03  0.37157002361E+03  0.80419002446E+02 0.  1.
          1    1    1    2  501    0 -0.18247784242E+02  0.11527329847E+02 -0.58990201493E+02  0.62814845660E+02  0.00000000000E+00 0. -1.
         -2    1    1    2    0  502 -0.10697702093E+03  0.29775757367E+02  0.58125593995E+02  0.12533660044E+03  0.00000000000E+00 0.  1.
<mgrwt>
<rscale>  2 0.14353807E+03</rscale>
<asrwt>0</asrwt>
<pdfrwt beam="1">  1       21 0.16992874E-01 0.14353807E+03</pdfrwt>
<pdfrwt beam="2">  1       21 0.69118121E-01 0.14353807E+03</pdfrwt>
<totfact> 0.60873508E+04</totfact>
</mgrwt>
</event>
<event>
 5    1  0.1624116E+000  0.1136186E+03  0.7546771E-02  0.1254012E+00
         21   -1    0    0  501  502  0.00000000000E+00  0.00000000000E+00  0.20830772507E+02  0.20830772507E+02  0.00000000000E+00 0.  1.
         21   -1    0    0  502  503 -0.00000000000E+00 -0.00000000000E+00 -0.95091976456E+03  0.95091976456E+03  0.00000000000E+00 0. -1.
         24    1    1    2    0    0  0.20585713415E+02  0.71809875848E+02 -0.25801682304E+03  0.28039316467E+03  0.80419002446E+02 0.  1.
          1    1    1    2  501    0  0.29848557152E+02 -0.15242114684E+00 -0.26652366436E+02  0.40016349570E+02  0.00000000000E+00 0. -1.
         -2    1    1    2    0  503 -0.50434270567E+02 -0.71657454701E+02 -0.64541980258E+03  0.65134102283E+03  0.00000000000E+00 0.  1.
<mgrwt>
<rscale>  2 0.11361862E+03</rscale>
<asrwt>0</asrwt>
<pdfrwt beam="1">  1       21 0.32047343E-02 0.11361862E+03</pdfrwt>
<pdfrwt beam="2">  1       21 0.14629535E+00 0.11361862E+03</pdfrwt>
<totfact> 0.18700130E+05</totfact>
</mgrwt>
</event>
<event>
 5    1  0.1624116E+000  0.9898535E+02  0.7546771E-02  0.1282444E+00
         21   -1    0    0  501  502  0.00000000000E+00  0.00000000000E+00  0.93872269682E+02  0.93872269682E+02  0.00000000000E+00 0.  1.
         21   -1    0    0  502  503 -0.00000000000E+00 -0.00000000000E+00 -0.24751911681E+03  0.24751911681E+03  0.00000000000E+00 0.  1.
         24    1    1    2    0    0  0.65980539247E+02 -0.44199668588E+02 -0.33860943101E+01  0.11307397513E+03  0.80419002446E+02 0.  1.
          1    1    1    2  501    0 -0.36578677444E+02  0.65222409015E+01  0.26222880355E+02  0.45477233030E+02  0.00000000000E+00 0. -1.
         -2    1    1    2    0  503 -0.29401861802E+02  0.37677427687E+02 -0.17648363317E+03  0.18284017833E+03  0.00000000000E+00 0.  1.
<mgrwt>
<rscale>  2 0.98985346E+02</rscale>
<asrwt>0</asrwt>
<pdfrwt beam="1">  1       21 0.14441888E-01 0.98985346E+02</pdfrwt>
<pdfrwt beam="2">  1       21 0.38079864E-01 0.98985346E+02</pdfrwt>
<totfact> 0.28510609E+05</totfact>
</mgrwt>
</event>
<event>
 5    1  0.1624116E+000  0.1202667E+03  0.7546771E-02  0.1242658E+00
         21   -1    0    0  501  502  0.00000000000E+00  0.00000000000E+00  0.44701767553E+03  0.44701767553E+03  0.00000000000E+00 0. -1.
         21   -1    0    0  502  503 -0.00000000000E+00 -0.00000000000E+00 -0.32497066728E+03  0.32497066728E+03  0.00000000000E+00 0.  1.
         24    1    1    2    0    0 -0.91463102544E+02  0.20113140594E+02 -0.20785510503E+02  0.12517703844E+03  0.80419002446E+02 0.  1.
          1    1    1    2  501    0  0.45118467439E+01  0.20596434611E+02  0.38537823989E+03  0.38595460569E+03  0.00000000000E+00 0. -1.
         -2    1    1    2    0  503  0.86951255800E+02 -0.40709575205E+02 -0.24254572114E+03  0.26085669867E+03  0.00000000000E+00 0.  1.
<mgrwt>
<rscale>  2 0.12026671E+03</rscale>
<asrwt>0</asrwt>
<pdfrwt beam="1">  1       21 0.68771950E-01 0.12026671E+03</pdfrwt>
<pdfrwt beam="2">  1       21 0.49995487E-01 0.12026671E+03</pdfrwt>
<totfact> 0.77996012E+03</totfact>
</mgrwt>
</event>
<event>
 5    1  0.1624116E+000  0.8613870E+02  0.7546771E-02  0.1312481E+00
         21   -1    0    0  503  502  0.00000000000E+00  0.00000000000E+00  0.33158303873E+02  0.33158303873E+02  0.00000000000E+00 0.  1.
         21   -1    0    0  501  503 -0.00000000000E+00 -0.00000000000E+00 -0.34191789992E+03  0.34191789992E+03  0.00000000000E+00 0. -1.
         24    1    1    2    0    0 -0.31605104161E+02  0.58828655495E+01 -0.25842372615E+03  0.27255004844E+03  0.80419002446E+02 0. -1.
          1    1    1    2  501    0  0.15754897766E+02 -0.42739280754E+02 -0.41110408413E+02  0.61359014032E+02  0.00000000000E+00 0. -1.
         -2    1    1    2    0  502  0.15850206395E+02  0.36856415205E+02 -0.92254614821E+01  0.41167141315E+02  0.00000000000E+00 0.  1.
<mgrwt>
<rscale>  2 0.86138704E+02</rscale>
<asrwt>0</asrwt>
<pdfrwt beam="1">  1       21 0.51012775E-02 0.86138704E+02</pdfrwt>
<pdfrwt beam="2">  1       21 0.52602754E-01 0.86138704E+02</pdfrwt>
<totfact> 0.89087372E+05</totfact>
</mgrwt>
</event>
<event>
 5    1  0.1624116E+000  0.8824695E+02  0.7546771E-02  0.1307153E+00
         21   -1    0    0  503  502  0.00000000000E+00  0.00000000000E+00  0.62130927808E+03  0.62130927808E+03  0.00000000000E+00 0.  1.
         21   -1    0    0  501  503 -0.00000000000E+00 -0.00000000000E+00 -0.51694198457E+02  0.51694198457E+02  0.00000000000E+00 0. -1.
         24    1    1    2    0    0  0.10460423170E+02 -0.68792312877E+02  0.79624873949E+02  0.13285006311E+03  0.80419002446E+02 0.  0.
          1    1    1    2  501    0 -0.14155163455E+01  0.38745564016E+02 -0.93056559127E+01  0.39872517470E+02  0.00000000000E+00 0. -1.
         -2    1    1    2    0  502 -0.90449068244E+01  0.30046748861E+02  0.49929586159E+03  0.50028089595E+03  0.00000000000E+00 0.  1.
<mgrwt>
<rscale>  2 0.88246949E+02</rscale>
<asrwt>0</asrwt>
<pdfrwt beam="1">  1       21 0.95586038E-01 0.88246949E+02</pdfrwt>
<pdfrwt beam="2">  1       21 0.79529540E-02 0.88246949E+02</pdfrwt>
<totfact> 0.11581418E+05</totfact>
</mgrwt>
</event>
<event>
 5    1  0.1624116E+000  0.8826818E+02  0.7546771E-02  0.1307101E+00
         21   -1    0    0  501  502  0.00000000000E+00  0.00000000000E+00  0.77310801275E+02  0.77310801275E+02  0.00000000000E+00 0. -1.
         21   -1    0    0  502  503 -0.00000000000E+00 -0.00000000000E+00 -0.17669607922E+03  0.17669607922E+03  0.00000000000E+00 0.  1.
         24    1    1    2    0    0 -0.15867534827E+02 -0.66837214860E+02 -0.30484486092E+02  0.11007048559E+03  0.80419002446E+02 0. -1.
          1    1    1    2  501    0  0.20846299807E+01  0.44332767999E+02  0.21819801831E+02  0.49455472423E+02  0.00000000000E+00 0. -1.
         -2    1    1    2    0  503  0.13782904847E+02  0.22504446861E+02 -0.90720593682E+02  0.94480922479E+02  0.00000000000E+00 0.  1.
<mgrwt>
<rscale>  2 0.88268184E+02</rscale>
<asrwt>0</asrwt>
<pdfrwt beam="1">  1       21 0.11893969E-01 0.88268184E+02</pdfrwt>
<pdfrwt beam="2">  1       21 0.27184012E-01 0.88268184E+02</pdfrwt>
<totfact> 0.76993276E+05</totfact>
</mgrwt>
</event>
<event>
 5    1  0.1624116E+000  0.1135572E+03  0.7546771E-02  0.1254121E+00
         21   -1    0    0  503  502  0.00000000000E+00  0.00000000000E+00  0.31732212963E+03  0.31732212963E+03  0.00000000000E+00 0.  1.
         21   -1    0    0  501  503 -0.00000000000E+00 -0.00000000000E+00 -0.51899000147E+02  0.51899000147E+02  0.00000000000E+00 0. -1.
         24    1    1    2    0    0  0.74590918078E+02  0.65262869922E+02  0.22219683458E+03  0.25624538338E+03  0.80419002446E+02 0.  0.
          1    1    1    2  501    0 -0.38603934028E+02 -0.28086834685E+02  0.37354156817E+01  0.47886191489E+02  0.00000000000E+00 0. -1.
         -2    1    1    2    0  502 -0.35986984050E+02 -0.37176035237E+02  0.39490879222E+02  0.65089554913E+02  0.00000000000E+00 0.  1.
<mgrwt>
<rscale>  2 0.11355725E+03</rscale>
<asrwt>0</asrwt>
<pdfrwt beam="1">  1       21 0.48818788E-01 0.11355725E+03</pdfrwt>
<pdfrwt beam="2">  1       21 0.79844618E-02 0.11355725E+03</pdfrwt>
<totfact> 0.48724023E+05</totfact>
</mgrwt>
</event>
<event>
 5    1  0.1624116E+000  0.9514661E+02  0.7546771E-02  0.1290846E+00
         21   -1    0    0  503  502  0.00000000000E+00  0.00000000000E+00  0.31023029347E+02  0.31023029347E+02  0.00000000000E+00 0. -1.
         21   -1    0    0  501  503 -0.00000000000E+00 -0.00000000000E+00 -0.36818681480E+03  0.36818681480E+03  0.00000000000E+00 0.  1.
         24    1    1    2    0    0  0.23306470805E+01 -0.56105380487E+02 -0.21397138886E+03  0.23538100356E+03  0.80419002446E+02 0.  0.
          1    1    1    2  501    0  0.34959569424E+02  0.19861727693E+02 -0.98241747453E+02  0.10615131023E+03  0.00000000000E+00 0. -1.
         -2    1    1    2    0  502 -0.37290216505E+02  0.36243652794E+02 -0.24950649145E+02  0.57677530352E+02  0.00000000000E+00 0.  1.
<mgrwt>
<rscale>  2 0.95146611E+02</rscale>
<asrwt>0</asrwt>
<pdfrwt beam="1">  1       21 0.47727739E-02 0.95146611E+02</pdfrwt>
<pdfrwt beam="2">  1       21 0.56644124E-01 0.95146611E+02</pdfrwt>
<totfact> 0.85487550E+05</totfact>
</mgrwt>
</event>
<event>
 5    1  0.1624116E+000  0.1087025E+03  0.7546771E-02  0.1262992E+00
         21   -1    0    0  501  502  0.00000000000E+00  0.00000000000E+00  0.13326685833E+03  0.13326685833E+03  0.00000000000E+00 0. -1.
         21   -1    0    0  502  503 -0.00000000000E+00 -0.00000000000E+00 -0.24855782932E+03  0.24855782932E+03  0.00000000000E+00 0.  1.
         24    1    1    2    0    0 -0.48680576933E+02  0.12700102761E+02 -0.74663341646E+02  0.12071835702E+03  0.80419002446E+02 0.  0.
          1    1    1    2  501    0  0.85212837486E+02 -0.61865489415E+01  0.90719699202E+02  0.12461767484E+03  0.00000000000E+00 0. -1.
         -2    1    1    2    0  503 -0.36532260554E+02 -0.65135538195E+01 -0.13134732854E+03  0.13648865579E+03  0.00000000000E+00 0.  1.
<mgrwt>
<rscale>  2 0.10870246E+03</rscale>
<asrwt>0</asrwt>
<pdfrwt beam="1">  1       21 0.20502594E-01 0.10870246E+03</pdfrwt>
<pdfrwt beam="2">  1       21 0.38239665E-01 0.10870246E+03</pdfrwt>
<totfact> 0.14937774E+05</totfact>
</mgrwt>
</event>
<event>
 5    1  0.1916317E+000  0.1045777E+03  0.7546771E-02  0.1270954E+00
         21   -1    0    0  503  502  0.00000000000E+00  0.00000000000E+00  0.76208092265E+02  0.76208092265E+02  0.00000000000E+00 0.  1.
         21   -1    0    0  501  503 -0.00000000000E+00 -0.00000000000E+00 -0.55086292269E+03  0.55086292269E+03  0.00000000000E+00 0. -1.
         24    1    1    2    0    0  0.42859776677E+02  0.28153596624E+01 -0.30827432121E+01  0.91222836871E+02  0.80419002446E+02 0.  1.
          1    1    1    2  501    0  0.31856395699E+02  0.22606044850E+02 -0.45311577868E+03  0.45479640731E+03  0.00000000000E+00 0. -1.
         -2    1    1    2    0  502 -0.74716172375E+02 -0.25421404513E+02 -0.18456308536E+02  0.81051770780E+02  0.00000000000E+00 0.  1.
<mgrwt>
<rscale>  2 0.10457774E+03</rscale>
<asrwt>0</asrwt>
<pdfrwt beam="1">  1       21 0.11724322E-01 0.10457774E+03</pdfrwt>
<pdfrwt beam="2">  1       21 0.84748141E-01 0.10457774E+03</pdfrwt>
<totfact> 0.76949037E+04</totfact>
</mgrwt>
</event>
<event>
 5    1  0.1624116E+000  0.9179198E+02  0.7546771E-02  0.1298569E+00
         21   -1    0    0  503  502  0.00000000000E+00  0.00000000000E+00  0.18703372254E+02  0.18703372254E+02  0.00000000000E+00 0. -1.
         21   -1    0    0  501  503 -0.00000000000E+00 -0.00000000000E+00 -0.51784400790E+03  0.51784400790E+03  0.00000000000E+00 0.  1.
         24    1    1    2    0    0  0.40402186634E+02  0.59928280883E+02 -0.28691649694E+03  0.30661380873E+03  0.80419002446E+02 0.  0.
          1    1    1    2  501    0 -0.28699833818E+02 -0.23176795726E+02 -0.16443272207E+03  0.16851992288E+03  0.00000000000E+00 0. -1.
         -2    1    1    2    0  502 -0.11702352817E+02 -0.36751485158E+02 -0.47791416640E+02  0.61413648542E+02  0.00000000000E+00 0.  1.
<mgrwt>
<rscale>  2 0.91791981E+02</rscale>
<asrwt>0</asrwt>
<pdfrwt beam="1">  1       21 0.28774420E-02 0.91791981E+02</pdfrwt>
<pdfrwt beam="2">  1       21 0.79668306E-01 0.91791981E+02</pdfrwt>
<totfact> 0.94399736E+05</totfact>
</mgrwt>
</event>
<event>
 5    1  0.1624116E+000  0.1084288E+03  0.7546771E-02  0.1263507E+00
         21   -1    0    0  501  502  0.00000000000E+00  0.00000000000E+00  0.12249380371E+04  0.12249380371E+04  0.00000000000E+00 0. -1.
         21   -1    0    0  502  503 -0.00000000000E+00 -0.00000000000E+00 -0.12010762972E+02  0.12010762972E+02  0.00000000000E+00 0.  1.
         24    1    1    2    0    0 -0.36940809353E+02 -0.55865645703E+02  0.49385673383E+03  0.50482401217E+03  0.80419002446E+02 0.  1.
          1    1    1    2  501    0  0.16179943665E+02 -0.24409804488E+02  0.44059193190E+03  0.44156412851E+03  0.00000000000E+00 0. -1.
         -2    1    1    2    0  503  0.20760865689E+02  0.80275450191E+02  0.27847860840E+03  0.29056065939E+03  0.00000000000E+00 0.  1.
<mgrwt>
<rscale>  2 0.10842879E+03</rscale>
<asrwt>0</asrwt>
<pdfrwt beam="1">  1       21 0.18845191E+00 0.10842879E+03</pdfrwt>
<pdfrwt beam="2">  1       21 0.18478107E-02 0.10842879E+03</pdfrwt>
<totfact> 0.23289358E+05</totfact>
</mgrwt>
</event>
<event>
 5    1  0.1624116E+000  0.6957468E+02  0.7546771E-02  0.1361545E+00
         21   -1    0    0  501  502  0.00000000000E+00  0.00000000000E+00  0.14884526429E+03  0.14884526429E+03  0.00000000000E+00 0. -1.
         21   -1    0    0  502  503 -0.00000000000E+00 -0.00000000000E+00 -0.12097270769E+03  0.12097270769E+03  0.00000000000E+00 0.  1.
         24    1    1    2    0    0 -0.24530307378E+02  0.60303189010E+00 -0.97134242036E+02  0.12846936039E+03  0.80419002446E+02 0.  1.
          1    1    1    2  501    0  0.56321490051E+01 -0.24195251134E+02  0.97034086117E+02  0.10016359193E+03  0.00000000000E+00 0. -1.
         -2    1    1    2    0  503  0.18898158373E+02  0.23592219243E+02  0.27972712522E+02  0.41185019662E+02  0.00000000000E+00 0.  1.
<mgrwt>
<rscale>  2 0.69574685E+02</rscale>
<asrwt>0</asrwt>
<pdfrwt beam="1">  1       21 0.22899271E-01 0.69574685E+02</pdfrwt>
<pdfrwt beam="2">  1       21 0.18611186E-01 0.69574685E+02</pdfrwt>
<totfact> 0.47713482E+05</totfact>
</mgrwt>
</event>
<event>
 5    1  0.1624116E+000  0.1877582E+03  0.7546771E-02  0.1160499E+00
         21   -1    0    0  501  502  0.00000000000E+00  0.00000000000E+00  0.96702384496E+02  0.96702384496E+02  0.00000000000E+00 0. -1.
         21   -1    0    0  502  503 -0.00000000000E+00 -0.00000000000E+00 -0.69039692683E+03  0.69039692683E+03  0.00000000000E+00 0.  1.
         24    1    1    2    0    0  0.85354768691E+02 -0.13597093694E+03 -0.31552936313E+03  0.36304204603E+03  0.80419002446E+02 0.  1.
          1    1    1    2  501    0 -0.47231493750E+02 -0.72200409042E+01  0.46812926507E+02  0.66890904319E+02  0.00000000000E+00 0. -1.
         -2    1    1    2    0  503 -0.38123274941E+02  0.14319097784E+03 -0.32497810570E+03  0.35716636098E+03  0.00000000000E+00 0.  1.
<mgrwt>
<rscale>  2 0.18775816E+03</rscale>
<asrwt>0</asrwt>
<pdfrwt beam="1">  1       21 0.14877290E-01 0.18775816E+03</pdfrwt>
<pdfrwt beam="2">  1       21 0.10621491E+00 0.18775816E+03</pdfrwt>
<totfact> 0.28378787E+04</totfact>
</mgrwt>
</event>
<event>
 5    1  0.1624116E+000  0.9518129E+02  0.7546771E-02  0.1290768E+00
         21   -1    0    0  503  502  0.00000000000E+00  0.00000000000E+00  0.27412622768E+03  0.27412622768E+03  0.00000000000E+00 0.  1.
         21   -1    0    0  501  503 -0.00000000000E+00 -0.00000000000E+00 -0.56871030121E+02  0.56871030121E+02  0.00000000000E+00 0. -1.
         24    1    1    2    0    0 -0.56445339274E+02 -0.26972260124E+02  0.23458069976E+02  0.10455178690E+03  0.80419002446E+02 0. -1.
          1    1    1    2  501    0  0.48592153881E+02  0.46606253133E+02  0.57570222154E+02  0.88587079920E+02  0.00000000000E+00 0. -1.
         -2    1    1    2    0  502  0.78531853927E+01 -0.19633993009E+02  0.13622690543E+03  0.13785839099E+03  0.00000000000E+00 0.  1.
<mgrwt>
<rscale>  2 0.95181288E+02</rscale>
<asrwt>0</asrwt>
<pdfrwt beam="1">  1       21 0.42173265E-01 0.95181288E+02</pdfrwt>
<pdfrwt beam="2">  1       21 0.87493894E-02 0.95181288E+02</pdfrwt>
<totfact> 0.56014669E+05</totfact>
</mgrwt>
</event>
<event>
 5    1  0.1624116E+000  0.6981223E+02  0.7546771E-02  0.1360733E+00
         21   -1    0    0  501  502  0.00000000000E+00  0.00000000000E+00  0.27297167238E+02  0.27297167238E+02  0.00000000000E+00 0.  1.
         21   -1    0    0  502  503 -0.00000000000E+00 -0.00000000000E+00 -0.18936929212E+03  0.18936929212E+03  0.00000000000E+00 0. -1.
         24    1    1    2    0    0  0.44210909169E+01  0.83185479374E+01 -0.11882202229E+03  0.14378676303E+03  0.80419002446E+02 0. -1.
          1    1    1    2  501    0  0.16997143884E+01  0.24859559416E+02 -0.18763064100E+02  0.31191974894E+02  0.00000000000E+00 0. -1.
         -2    1    1    2    0  503 -0.61208053053E+01 -0.33178107353E+02 -0.24487038491E+02  0.41687721444E+02  0.00000000000E+00 0.  1.
<mgrwt>
<rscale>  2 0.69812230E+02</rscale>
<asrwt>0</asrwt>
<pdfrwt beam="1">  1       21 0.41995644E-02 0.69812230E+02</pdfrwt>
<pdfrwt beam="2">  1       21 0.29133736E-01 0.69812230E+02</pdfrwt>
<totfact> 0.38922686E+06</totfact>
</mgrwt>
</event>
<event>
 5    1  0.1624116E+000  0.6827431E+02  0.7546771E-02  0.1366062E+00
         21   -1    0    0  501  502  0.00000000000E+00  0.00000000000E+00  0.63200323085E+01  0.63200323085E+01  0.00000000000E+00 0.  1.
         21   -1    0    0  502  503 -0.00000000000E+00 -0.00000000000E+00 -0.10755580867E+04  0.10755580867E+04  0.00000000000E+00 0. -1.
         24    1    1    2    0    0 -0.23215404022E+02  0.17330432155E+02 -0.48915198951E+03  0.49656438017E+03  0.80419002446E+02 0.  1.
          1    1    1    2  501    0  0.15771794436E+01 -0.27229701863E+02 -0.77407842864E+02  0.82072640359E+02  0.00000000000E+00 0. -1.
         -2    1    1    2    0  503  0.21638224578E+02  0.98992697081E+01 -0.50267822200E+03  0.50324109846E+03  0.00000000000E+00 0.  1.
<mgrwt>
<rscale>  2 0.68274313E+02</rscale>
<asrwt>0</asrwt>
<pdfrwt beam="1">  1       21 0.97231246E-03 0.68274313E+02</pdfrwt>
<pdfrwt beam="2">  1       21 0.16547051E+00 0.68274313E+02</pdfrwt>
<totfact> 0.92375858E+05</totfact>
</mgrwt>
</event>
<event>
 5    1  0.1624116E+000  0.1118717E+03  0.7546771E-02  0.1257143E+00
         21   -1    0    0  501  502  0.00000000000E+00  0.00000000000E+00  0.15277219184E+03  0.15277219184E+03  0.00000000000E+00 0. -1.
         21   -1    0    0  502  503 -0.00000000000E+00 -0.00000000000E+00 -0.18630063097E+03  0.18630063097E+03  0.00000000000E+00 0.  1.
         24    1    1    2    0    0  0.84798834718E+01  0.55128433188E+02  0.95014845054E+02  0.13640413962E+03  0.80419002446E+02 0. -1.
          1    1    1    2  501    0 -0.35533597523E+02 -0.80993933325E+02 -0.24025073212E+02  0.91650738847E+02  0.00000000000E+00 0. -1.
         -2    1    1    2    0  503  0.27053714051E+02  0.25865500137E+02 -0.10451821098E+03  0.11101794435E+03  0.00000000000E+00 0.  1.
<mgrwt>
<rscale>  2 0.11187168E+03</rscale>
<asrwt>0</asrwt>
<pdfrwt beam="1">  1       21 0.23503414E-01 0.11187168E+03</pdfrwt>
<pdfrwt beam="2">  1       21 0.28661635E-01 0.11187168E+03</pdfrwt>
<totfact> 0.20275698E+05</totfact>
</mgrwt>
</event>
<event>
 5    1  0.1624116E+000  0.1535610E+03  0.7546771E-02  0.1196164E+00
         21   -1    0    0  503  502  0.00000000000E+00  0.00000000000E+00  0.77516725162E+03  0.77516725162E+03  0.00000000000E+00 0.  1.
         21   -1    0    0  501  503 -0.00000000000E+00 -0.00000000000E+00 -0.48225835180E+02  0.48225835180E+02  0.00000000000E+00 0.  1.
         24    1    1    2    0    0  0.33209290456E+02  0.69989465400E+02  0.99181043227E+02  0.14935018423E+03  0.80419002446E+02 0.  1.
          1    1    1    2  501    0 -0.23006126315E+00  0.60685974043E+02  0.44082507363E+02  0.75007385164E+02  0.00000000000E+00 0. -1.
         -2    1    1    2    0  502 -0.32979229193E+02 -0.13067543944E+03  0.58367786585E+03  0.59903551741E+03  0.00000000000E+00 0.  1.
<mgrwt>
<rscale>  2 0.15356103E+03</rscale>
<asrwt>0</asrwt>
<pdfrwt beam="1">  1       21 0.11925649E+00 0.15356103E+03</pdfrwt>
<pdfrwt beam="2">  1       21 0.74193599E-02 0.15356103E+03</pdfrwt>
<totfact> 0.74760474E+04</totfact>
</mgrwt>
</event>
<event>
 5    1  0.1624116E+000  0.1081862E+03  0.7546771E-02  0.1263966E+00
         21   -1    0    0  501  502  0.00000000000E+00  0.00000000000E+00  0.17890430205E+03  0.17890430205E+03  0.00000000000E+00 0. -1.
         21   -1    0    0  502  503 -0.00000000000E+00 -0.00000000000E+00 -0.11262216213E+03  0.11262216213E+03  0.00000000000E+00 0.  1.
         24    1    1    2    0    0  0.24745091715E+02 -0.33778758459E+02 -0.73193947047E+00  0.90670148212E+02  0.80419002446E+02 0.  1.
          1    1    1    2  501    0  0.46349698024E+02  0.28508580555E+02  0.10632919744E+03  0.11944426274E+03  0.00000000000E+00 0. -1.
         -2    1    1    2    0  503 -0.71094789739E+02  0.52701779041E+01 -0.39315118053E+02  0.81412053227E+02  0.00000000000E+00 0.  1.
<mgrwt>
<rscale>  2 0.10818622E+03</rscale>
<asrwt>0</asrwt>
<pdfrwt beam="1">  1       21 0.27523739E-01 0.10818622E+03</pdfrwt>
<pdfrwt beam="2">  1       21 0.17326487E-01 0.10818622E+03</pdfrwt>
<totfact> 0.38445750E+05</totfact>
</mgrwt>
</event>
<event>
 5    1  0.1624116E+000  0.7305336E+02  0.7546771E-02  0.1350007E+00
         21   -1    0    0  501  502  0.00000000000E+00  0.00000000000E+00  0.13833202766E+04  0.13833202766E+04  0.00000000000E+00 0. -1.
         21   -1    0    0  502  503 -0.00000000000E+00 -0.00000000000E+00 -0.71390155241E+01  0.71390155241E+01  0.00000000000E+00 0. -1.
         24    1    1    2    0    0 -0.75760448357E+01 -0.19921427966E+02  0.28305119671E+03  0.29502450011E+03  0.80419002446E+02 0. -1.
          1    1    1    2  501    0  0.22570536745E+02  0.34999923544E+02  0.92898437542E+03  0.92991741222E+03  0.00000000000E+00 0. -1.
         -2    1    1    2    0  503 -0.14994491910E+02 -0.15078495578E+02  0.16414568894E+03  0.16551737979E+03  0.00000000000E+00 0.  1.
<mgrwt>
<rscale>  2 0.73053358E+02</rscale>
<asrwt>0</asrwt>
<pdfrwt beam="1">  1       21 0.21281829E+00 0.73053358E+02</pdfrwt>
<pdfrwt beam="2">  1       21 0.10983112E-02 0.73053358E+02</pdfrwt>
<totfact> 0.38402141E+05</totfact>
</mgrwt>
</event>
<event>
 5    1  0.1624116E+000  0.9721653E+02  0.7546771E-02  0.1286261E+00
         21   -1    0    0  503  502  0.00000000000E+00  0.00000000000E+00  0.69627994550E+02  0.69627994550E+02  0.00000000000E+00 0. -1.
         21   -1    0    0  501  503 -0.00000000000E+00 -0.00000000000E+00 -0.14396352727E+03  0.14396352727E+03  0.00000000000E+00 0.  1.
         24    1    1    2    0    0  0.32974589334E+01 -0.13857623138E+02 -0.28296334999E+02  0.86433821408E+02  0.80419002446E+02 0.  0.
          1    1    1    2  501    0  0.39874693223E+02 -0.30997776460E+02 -0.40344439266E+02  0.64641527556E+02  0.00000000000E+00 0. -1.
         -2    1    1    2    0  502 -0.43172152157E+02  0.44855399597E+02 -0.56947584566E+01  0.62516172858E+02  0.00000000000E+00 0.  1.
<mgrwt>
<rscale>  2 0.97216525E+02</rscale>
<asrwt>0</asrwt>
<pdfrwt beam="1">  1       21 0.10711999E-01 0.97216525E+02</pdfrwt>
<pdfrwt beam="2">  1       21 0.22148235E-01 0.97216525E+02</pdfrwt>
<totfact> 0.13583017E+06</totfact>
</mgrwt>
</event>
<event>
 5    1  0.1624116E+000  0.7064536E+02  0.7546771E-02  0.1357912E+00
         21   -1    0    0  503  502  0.00000000000E+00  0.00000000000E+00  0.38148937718E+03  0.38148937718E+03  0.00000000000E+00 0.  1.
         21   -1    0    0  501  503 -0.00000000000E+00 -0.00000000000E+00 -0.13273092450E+02  0.13273092450E+02  0.00000000000E+00 0. -1.
         24    1    1    2    0    0 -0.26470368489E+02 -0.37866140913E+02  0.24679578536E+03  0.26364730354E+03  0.80419002446E+02 0.  0.
          1    1    1    2  501    0  0.21124353209E+02  0.17326422752E+02  0.55464643435E+02  0.61828552427E+02  0.00000000000E+00 0. -1.
         -2    1    1    2    0  502  0.53460152804E+01  0.20539718161E+02  0.65955855933E+02  0.69286613666E+02  0.00000000000E+00 0.  1.
<mgrwt>
<rscale>  2 0.70645363E+02</rscale>
<asrwt>0</asrwt>
<pdfrwt beam="1">  1       21 0.58690665E-01 0.70645363E+02</pdfrwt>
<pdfrwt beam="2">  1       21 0.20420145E-02 0.70645363E+02</pdfrwt>
<totfact> 0.31248907E+06</totfact>
</mgrwt>
</event>
<event>
 5    1  0.1624116E+000  0.1657796E+03  0.7546771E-02  0.1182322E+00
         21   -1    0    0  503  502  0.00000000000E+00  0.00000000000E+00  0.36356937086E+03  0.36356937086E+03  0.00000000000E+00 0.  1.
         21   -1    0    0  501  503 -0.00000000000E+00 -0.00000000000E+00 -0.18154609912E+03  0.18154609912E+03  0.00000000000E+00 0.  1.
         24    1    1    2    0    0 -0.60515080712E+02  0.12900923864E+03 -0.85395334372E+02  0.18456716321E+03  0.80419002446E+02 0.  1.
          1    1    1    2  501    0  0.37760413671E+02 -0.84798709482E+00 -0.21642991470E+02  0.43531448431E+02  0.00000000000E+00 0. -1.
         -2    1    1    2    0  502  0.22754667041E+02 -0.12816125155E+03  0.28906159759E+03  0.31701685834E+03  0.00000000000E+00 0.  1.
<mgrwt>
<rscale>  2 0.16577955E+03</rscale>
<asrwt>0</asrwt>
<pdfrwt beam="1">  1       21 0.55933749E-01 0.16577955E+03</pdfrwt>
<pdfrwt beam="2">  1       21 0.27930169E-01 0.16577955E+03</pdfrwt>
<totfact> 0.37377266E+04</totfact>
</mgrwt>
</event>
<event>
 5    1  0.1624116E+000  0.7808907E+02  0.7546771E-02  0.1334564E+00
         21   -1    0    0  501  502  0.00000000000E+00  0.00000000000E+00  0.79304905302E+02  0.79304905302E+02  0.00000000000E+00 0. -1.
         21   -1    0    0  502  503 -0.00000000000E+00 -0.00000000000E+00 -0.21161706801E+03  0.21161706801E+03  0.00000000000E+00 0.  1.
         24    1    1    2    0    0 -0.53735198154E+02  0.81978017215E+01 -0.25084859610E+02  0.10025538195E+03  0.80419002446E+02 0.  1.
          1    1    1    2  501    0  0.31338594441E+02  0.69158816462E+01  0.34072474191E+02  0.46806734750E+02  0.00000000000E+00 0. -1.
         -2    1    1    2    0  503  0.22396603713E+02 -0.15113683368E+02 -0.14129977729E+03  0.14385985662E+03  0.00000000000E+00 0.  1.
<mgrwt>
<rscale>  2 0.78089075E+02</rscale>
<asrwt>0</asrwt>
<pdfrwt beam="1">  1       21 0.12200755E-01 0.78089075E+02</pdfrwt>
<pdfrwt beam="2">  1       21 0.32556472E-01 0.78089075E+02</pdfrwt>
<totfact> 0.52186590E+05</totfact>
</mgrwt>
</event>
<event>
 5    1  0.1624116E+000  0.8083374E+02  0.7546771E-02  0.1326702E+00
         21   -1    0    0  503  502  0.00000000000E+00  0.00000000000E+00  0.33153507745E+03  0.33153507745E+03  0.00000000000E+00 0. -1.
         21   -1    0    0  501  503 -0.00000000000E+00 -0.00000000000E+00 -0.60387931818E+02  0.60387931818E+02  0.00000000000E+00 0. -1.
         24    1    1    2    0    0 -0.36994085589E+02 -0.17056629761E+02 -0.19764627182E+02  0.92289476266E+02  0.80419002446E+02 0. -1.
          1    1    1    2  501    0  0.42269713478E+02 -0.10424589390E+02  0.16471083147E+03  0.17036742278E+03  0.00000000000E+00 0. -1.
         -2    1    1    2    0  502 -0.52756278895E+01  0.27481219151E+02  0.12620094134E+03  0.12926611022E+03  0.00000000000E+00 0.  1.
<mgrwt>
<rscale>  2 0.80833737E+02</rscale>
<asrwt>0</asrwt>
<pdfrwt beam="1">  1       21 0.51005396E-01 0.80833737E+02</pdfrwt>
<pdfrwt beam="2">  1       21 0.92904512E-02 0.80833737E+02</pdfrwt>
<totfact> 0.34447503E+05</totfact>
</mgrwt>
</event>
<event>
 5    1  0.1624116E+000  0.8265739E+02  0.7546771E-02  0.1321675E+00
         21   -1    0    0  503  502  0.00000000000E+00  0.00000000000E+00  0.61707501871E+02  0.61707501871E+02  0.00000000000E+00 0. -1.
         21   -1    0    0  501  503 -0.00000000000E+00 -0.00000000000E+00 -0.16034645350E+03  0.16034645350E+03  0.00000000000E+00 0.  1.
         24    1    1    2    0    0  0.14911706138E+01 -0.35916130029E+02 -0.77676030632E+02  0.11744349141E+03  0.80419002446E+02 0.  1.
          1    1    1    2  501    0  0.96406992045E+01 -0.18940323773E+02 -0.40158904408E+02  0.45435850923E+02  0.00000000000E+00 0. -1.
         -2    1    1    2    0  502 -0.11131869818E+02  0.54856453802E+02  0.19195983408E+02  0.59174613040E+02  0.00000000000E+00 0.  1.
<mgrwt>
<rscale>  2 0.82657390E+02</rscale>
<asrwt>0</asrwt>
<pdfrwt beam="1">  1       21 0.94934618E-02 0.82657390E+02</pdfrwt>
<pdfrwt beam="2">  1       21 0.24668685E-01 0.82657390E+02</pdfrwt>
<totfact> 0.13644169E+06</totfact>
</mgrwt>
</event>
<event>
 5    1  0.1624116E+000  0.9777915E+02  0.7546771E-02  0.1285037E+00
         21   -1    0    0  503  502  0.00000000000E+00  0.00000000000E+00  0.44425135675E+02  0.44425135675E+02  0.00000000000E+00 0. -1.
         21   -1    0    0  501  503 -0.00000000000E+00 -0.00000000000E+00 -0.31541502727E+03  0.31541502727E+03  0.00000000000E+00 0.  1.
         24    1    1    2    0    0 -0.74241365517E+02  0.29431281745E+02 -0.21948662995E+03  0.24702141078E+03  0.80419002446E+02 0.  1.
          1    1    1    2  501    0  0.46242343665E+02 -0.28268768212E+02 -0.62489610348E+02  0.82718976089E+02  0.00000000000E+00 0. -1.
         -2    1    1    2    0  502  0.27999021853E+02 -0.11625135338E+01  0.10986348703E+02  0.30099776083E+02  0.00000000000E+00 0.  1.
<mgrwt>
<rscale>  2 0.97779149E+02</rscale>
<asrwt>0</asrwt>
<pdfrwt beam="1">  1       21 0.68346362E-02 0.97779149E+02</pdfrwt>
<pdfrwt beam="2">  1       21 0.48525389E-01 0.97779149E+02</pdfrwt>
<totfact> 0.64355962E+05</totfact>
</mgrwt>
</event>
<event>
 5    1  0.1624116E+000  0.1236725E+03  0.7546771E-02  0.1237159E+00
         21   -1    0    0  501  502  0.00000000000E+00  0.00000000000E+00  0.12260977092E+03  0.12260977092E+03  0.00000000000E+00 0. -1.
         21   -1    0    0  502  503 -0.00000000000E+00 -0.00000000000E+00 -0.24039733869E+03  0.24039733869E+03  0.00000000000E+00 0.  1.
         24    1    1    2    0    0 -0.21846779929E+01  0.89617207804E+02 -0.80216955932E+02  0.14469966388E+03  0.80419002446E+02 0. -1.
          1    1    1    2  501    0  0.40962529004E+02 -0.75032632896E+02  0.65192247690E+02  0.10750745993E+03  0.00000000000E+00 0. -1.
         -2    1    1    2    0  503 -0.38777851011E+02 -0.14584574908E+02 -0.10276285953E+03  0.11079998580E+03  0.00000000000E+00 0.  1.
<mgrwt>
<rscale>  2 0.12367251E+03</rscale>
<asrwt>0</asrwt>
<pdfrwt beam="1">  1       21 0.18863042E-01 0.12367251E+03</pdfrwt>
<pdfrwt beam="2">  1       21 0.36984205E-01 0.12367251E+03</pdfrwt>
<totfact> 0.18512237E+05</totfact>
</mgrwt>
</event>
<event>
 5    1  0.1624116E+000  0.8652127E+02  0.7546771E-02  0.1311502E+00
         21   -1    0    0  501  502  0.00000000000E+00  0.00000000000E+00  0.34125194169E+02  0.34125194169E+02  0.00000000000E+00 0. -1.
         21   -1    0    0  502  503 -0.00000000000E+00 -0.00000000000E+00 -0.61684329877E+03  0.61684329877E+03  0.00000000000E+00 0.  1.
         24    1    1    2    0    0 -0.33342971057E+02 -0.15937913829E+02 -0.96806356377E+02  0.13116576308E+03  0.80419002446E+02 0.  0.
          1    1    1    2  501    0  0.26479911740E+02  0.46339549947E+02 -0.26960971841E+02  0.59794929699E+02  0.00000000000E+00 0. -1.
         -2    1    1    2    0  503  0.68630593173E+01 -0.30401636118E+02 -0.45895077638E+03  0.46000780015E+03  0.00000000000E+00 0.  1.
<mgrwt>
<rscale>  2 0.86521270E+02</rscale>
<asrwt>0</asrwt>
<pdfrwt beam="1">  1       21 0.52500299E-02 0.86521270E+02</pdfrwt>
<pdfrwt beam="2">  1       21 0.94898969E-01 0.86521270E+02</pdfrwt>
<totfact> 0.23730378E+05</totfact>
</mgrwt>
</event>
<event>
 5    1  0.1624116E+000  0.9378453E+02  0.7546771E-02  0.1293937E+00
         21   -1    0    0  501  502  0.00000000000E+00  0.00000000000E+00  0.98927617947E+03  0.98927617947E+03  0.00000000000E+00 0.  1.
         21   -1    0    0  502  503 -0.00000000000E+00 -0.00000000000E+00 -0.10961729547E+02  0.10961729547E+02  0.00000000000E+00 0.  1.
         24    1    1    2    0    0 -0.25317599469E+02  0.66835120334E+02  0.69997657266E+03  0.70819653514E+03  0.80419002446E+02 0.  1.
          1    1    1    2  501    0  0.26377435580E+02 -0.19919849605E+02  0.18086240762E+03  0.18385804308E+03  0.00000000000E+00 0. -1.
         -2    1    1    2    0  503 -0.10598361108E+01 -0.46915270729E+02  0.97475469641E+02  0.10818333080E+03  0.00000000000E+00 0.  1.
<mgrwt>
<rscale>  2 0.93784529E+02</rscale>
<asrwt>0</asrwt>
<pdfrwt beam="1">  1       21 0.15219627E+00 0.93784529E+02</pdfrwt>
<pdfrwt beam="2">  1       21 0.16864207E-02 0.93784529E+02</pdfrwt>
<totfact> 0.48017807E+05</totfact>
</mgrwt>
</event>
<event>
 5    1  0.1624116E+000  0.1102446E+03  0.7546771E-02  0.1260118E+00
         21   -1    0    0  501  502  0.00000000000E+00  0.00000000000E+00  0.25351316381E+02  0.25351316381E+02  0.00000000000E+00 0.  1.
         21   -1    0    0  502  503 -0.00000000000E+00 -0.00000000000E+00 -0.13891310189E+04  0.13891310189E+04  0.00000000000E+00 0.  1.
         24    1    1    2    0    0  0.16072635310E+02  0.21287026528E+02 -0.23421578731E+03  0.24906970528E+03  0.80419002446E+02 0.  0.
          1    1    1    2  501    0 -0.66378356927E+02 -0.44952859398E+02 -0.76269563240E+02  0.11065212205E+03  0.00000000000E+00 0. -1.
         -2    1    1    2    0  503  0.50305721617E+02  0.23665832870E+02 -0.10532943520E+04  0.10547605080E+04  0.00000000000E+00 0.  1.
<mgrwt>
<rscale>  2 0.11024456E+03</rscale>
<asrwt>0</asrwt>
<pdfrwt beam="1">  1       21 0.39002015E-02 0.11024456E+03</pdfrwt>
<pdfrwt beam="2">  1       21 0.21371252E+00 0.11024456E+03</pdfrwt>
<totfact> 0.48061739E+04</totfact>
</mgrwt>
</event>
<event>
 5    1  0.1624116E+000  0.7936819E+02  0.7546771E-02  0.1330854E+00
         21   -1    0    0  503  502  0.00000000000E+00  0.00000000000E+00  0.17791564761E+03  0.17791564761E+03  0.00000000000E+00 0. -1.
         21   -1    0    0  501  503 -0.00000000000E+00 -0.00000000000E+00 -0.11823021767E+03  0.11823021767E+03  0.00000000000E+00 0. -1.
         24    1    1    2    0    0  0.28842787381E+02 -0.21262335037E+02  0.14878282153E+03  0.17288012382E+03  0.80419002446E+02 0. -1.
          1    1    1    2  501    0 -0.37068385305E+02 -0.99800382863E+01 -0.81483728563E+02  0.90073660822E+02  0.00000000000E+00 0. -1.
         -2    1    1    2    0  502  0.82255979238E+01  0.31242373323E+02 -0.76136630270E+01  0.33192080633E+02  0.00000000000E+00 0.  1.
<mgrwt>
<rscale>  2 0.79368189E+02</rscale>
<asrwt>0</asrwt>
<pdfrwt beam="1">  1       21 0.27371638E-01 0.79368189E+02</pdfrwt>
<pdfrwt beam="2">  1       21 0.18189264E-01 0.79368189E+02</pdfrwt>
<totfact> 0.35682770E+05</totfact>
</mgrwt>
</event>
<event>
 5    1  0.1624116E+000  0.8971851E+02  0.7546771E-02  0.1303535E+00
         21   -1    0    0  503  502  0.00000000000E+00  0.00000000000E+00  0.24421406163E+03  0.24421406163E+03  0.00000000000E+00 0.  1.
         21   -1    0    0  501  503 -0.00000000000E+00 -0.00000000000E+00 -0.92193103037E+02  0.92193103037E+02  0.00000000000E+00 0.  1.
         24    1    1    2    0    0 -0.77703993060E+01 -0.67704452378E+02 -0.36605146301E+02  0.11158595193E+03  0.80419002446E+02 0.  1.
          1    1    1    2  501    0 -0.10768432654E+02  0.32515116148E+02  0.23349417047E+01  0.34331383204E+02  0.00000000000E+00 0. -1.
         -2    1    1    2    0  502  0.18538831960E+02  0.35189336230E+02  0.18629116319E+03  0.19048982953E+03  0.00000000000E+00 0.  1.
<mgrwt>
<rscale>  2 0.89718507E+02</rscale>
<asrwt>0</asrwt>
<pdfrwt beam="1">  1       21 0.37571394E-01 0.89718507E+02</pdfrwt>
<pdfrwt beam="2">  1       21 0.14183554E-01 0.89718507E+02</pdfrwt>
<totfact> 0.30284082E+05</totfact>
</mgrwt>
</event>
<event>
 5    1  0.1624116E+000  0.2020499E+03  0.7546771E-02  0.1148021E+00
         21   -1    0    0  501  502  0.00000000000E+00  0.00000000000E+00  0.65793505134E+03  0.65793505134E+03  0.00000000000E+00 0. -1.
         21   -1    0    0  502  503 -0.00000000000E+00 -0.00000000000E+00 -0.78750642638E+02  0.78750642638E+02  0.00000000000E+00 0.  1.
         24    1    1    2    0    0 -0.14964082410E+03 -0.83998783677E+02  0.12143697548E+03  0.22508293330E+03  0.80419002446E+02 0.  1.
          1    1    1    2  501    0  0.12767844880E+03  0.11816651029E+03  0.42566456707E+03  0.45984283630E+03  0.00000000000E+00 0. -1.
         -2    1    1    2    0  503  0.21962375296E+02 -0.34167726609E+02  0.32082866155E+02  0.51759924372E+02  0.00000000000E+00 0.  1.
<mgrwt>
<rscale>  2 0.20204987E+03</rscale>
<asrwt>0</asrwt>
<pdfrwt beam="1">  1       21 0.10122077E+00 0.20204987E+03</pdfrwt>
<pdfrwt beam="2">  1       21 0.12115484E-01 0.20204987E+03</pdfrwt>
<totfact> 0.45782286E+04</totfact>
</mgrwt>
</event>
<event>
 5    1  0.1624116E+000  0.8161149E+02  0.7546771E-02  0.1324539E+00
         21   -1    0    0  503  502  0.00000000000E+00  0.00000000000E+00  0.32629123711E+02  0.32629123711E+02  0.00000000000E+00 0. -1.
         21   -1    0    0  501  503 -0.00000000000E+00 -0.00000000000E+00 -0.23209540543E+03  0.23209540543E+03  0.00000000000E+00 0. -1.
         24    1    1    2    0    0  0.42298973365E+02 -0.33826615395E+02 -0.81844300699E+02  0.12688242025E+03  0.80419002446E+02 0. -1.
          1    1    1    2  501    0 -0.36699691089E+02  0.51635769934E+01 -0.91262902807E+02  0.98501001427E+02  0.00000000000E+00 0. -1.
         -2    1    1    2    0  502 -0.55992822763E+01  0.28663038401E+02 -0.26359078214E+02  0.39341107467E+02  0.00000000000E+00 0.  1.
<mgrwt>
<rscale>  2 0.81611492E+02</rscale>
<asrwt>0</asrwt>
<pdfrwt beam="1">  1       21 0.50198652E-02 0.81611492E+02</pdfrwt>
<pdfrwt beam="2">  1       21 0.35706985E-01 0.81611492E+02</pdfrwt>
<totfact> 0.19805984E+06</totfact>
</mgrwt>
</event>
<event>
 5    1  0.1624116E+000  0.1055615E+03  0.7546771E-02  0.1269017E+00
         21   -1    0    0  501  502  0.00000000000E+00  0.00000000000E+00  0.60125581593E+02  0.60125581593E+02  0.00000000000E+00 0. -1.
         21   -1    0    0  502  503 -0.00000000000E+00 -0.00000000000E+00 -0.73128683259E+03  0.73128683259E+03  0.00000000000E+00 0. -1.
         24    1    1    2    0    0 -0.11881179133E+01  0.60800197061E+02 -0.60967856857E+03  0.61795893757E+03  0.80419002446E+02 0. -1.
          1    1    1    2  501    0  0.39513272429E+02 -0.13118485747E+01  0.35678410591E+02  0.53253813263E+02  0.00000000000E+00 0. -1.
         -2    1    1    2    0  503 -0.38325154516E+02 -0.59488348487E+02 -0.97161093020E+02  0.12019966336E+03  0.00000000000E+00 0.  1.
<mgrwt>
<rscale>  2 0.10556154E+03</rscale>
<asrwt>0</asrwt>
<pdfrwt beam="1">  1       21 0.92500899E-02 0.10556154E+03</pdfrwt>
<pdfrwt beam="2">  1       21 0.11250566E+00 0.10556154E+03</pdfrwt>
<totfact> 0.60380587E+04</totfact>
</mgrwt>
</event>
<event>
 5    1  0.1624116E+000  0.9255829E+02  0.7546771E-02  0.1296772E+00
         21   -1    0    0  503  502  0.00000000000E+00  0.00000000000E+00  0.81422265798E+02  0.81422265798E+02  0.00000000000E+00 0.  1.
         21   -1    0    0  501  503 -0.00000000000E+00 -0.00000000000E+00 -0.20565789393E+03  0.20565789393E+03  0.00000000000E+00 0.  1.
         24    1    1    2    0    0  0.29136903489E+02  0.44597231176E+02 -0.12556032113E+03  0.15833661096E+03  0.80419002446E+02 0.  1.
          1    1    1    2  501    0 -0.49824142483E+02 -0.46142826178E+02 -0.42601314727E+02  0.80165314184E+02  0.00000000000E+00 0. -1.
         -2    1    1    2    0  502  0.20687238993E+02  0.15455950017E+01  0.43926007722E+02  0.48578234586E+02  0.00000000000E+00 0.  1.
<mgrwt>
<rscale>  2 0.92558292E+02</rscale>
<asrwt>0</asrwt>
<pdfrwt beam="1">  1       21 0.12526502E-01 0.92558292E+02</pdfrwt>
<pdfrwt beam="2">  1       21 0.31639676E-01 0.92558292E+02</pdfrwt>
<totfact> 0.52660697E+05</totfact>
</mgrwt>
</event>
<event>
 5    1  0.1624116E+000  0.7486680E+02  0.7546771E-02  0.1344284E+00
         21   -1    0    0  501  502  0.00000000000E+00  0.00000000000E+00  0.84397688410E+02  0.84397688410E+02  0.00000000000E+00 0. -1.
         21   -1    0    0  502  503 -0.00000000000E+00 -0.00000000000E+00 -0.82193236663E+02  0.82193236663E+02  0.00000000000E+00 0.  1.
         24    1    1    2    0    0 -0.44070645599E+02  0.31444247259E+01  0.32082287324E+02  0.97203900769E+02  0.80419002446E+02 0. -1.
          1    1    1    2  501    0  0.18525800473E+02 -0.20085688699E+02 -0.11061496770E+01  0.27347097484E+02  0.00000000000E+00 0. -1.
         -2    1    1    2    0  503  0.25544845125E+02  0.16941263973E+02 -0.28771685901E+02  0.42039926820E+02  0.00000000000E+00 0.  1.
<mgrwt>
<rscale>  2 0.74866803E+02</rscale>
<asrwt>0</asrwt>
<pdfrwt beam="1">  1       21 0.12984260E-01 0.74866803E+02</pdfrwt>
<pdfrwt beam="2">  1       21 0.12645113E-01 0.74866803E+02</pdfrwt>
<totfact> 0.26329683E+06</totfact>
</mgrwt>
</event>
<event>
 5    1  0.1624116E+000  0.9789512E+02  0.7546771E-02  0.1284786E+00
         21   -1    0    0  501  502  0.00000000000E+00  0.00000000000E+00  0.18050357205E+03  0.18050357205E+03  0.00000000000E+00 0. -1.
         21   -1    0    0  502  503 -0.00000000000E+00 -0.00000000000E+00 -0.69261728421E+02  0.69261728421E+02  0.00000000000E+00 0. -1.
         24    1    1    2    0    0 -0.12389230308E+01 -0.59868720643E+02  0.34196795102E+01  0.10032302230E+03  0.80419002446E+02 0. -1.
          1    1    1    2  501    0  0.16789485826E+02  0.73164300711E+02  0.10457335620E+03  0.12872640972E+03  0.00000000000E+00 0. -1.
         -2    1    1    2    0  503 -0.15550562795E+02 -0.13295580069E+02  0.32488079203E+01  0.20715868447E+02  0.00000000000E+00 0.  1.
<mgrwt>
<rscale>  2 0.97895119E+02</rscale>
<asrwt>0</asrwt>
<pdfrwt beam="1">  1       21 0.27769780E-01 0.97895119E+02</pdfrwt>
<pdfrwt beam="2">  1       21 0.10655651E-01 0.97895119E+02</pdfrwt>
<totfact> 0.89733279E+05</totfact>
</mgrwt>
</event>
<event>
 5    1  0.1624116E+000  0.6289650E+02  0.7546771E-02  0.1386063E+00
         21   -1    0    0  501  502  0.00000000000E+00  0.00000000000E+00  0.99962322518E+03  0.99962322518E+03  0.00000000000E+00 0. -1.
         21   -1    0    0  502  503 -0.00000000000E+00 -0.00000000000E+00 -0.43805801450E+01  0.43805801450E+01  0.00000000000E+00 0. -1.
         24    1    1    2    0    0  0.42822145968E+01  0.39196169831E+01  0.48575622278E+03  0.49240229963E+03  0.80419002446E+02 0.  0.
          1    1    1    2  501    0  0.10410100813E+02 -0.20511950386E+02  0.31946356187E+03  0.32029061439E+03  0.00000000000E+00 0. -1.
         -2    1    1    2    0  503 -0.14692315410E+02  0.16592333403E+02  0.19002286039E+03  0.19131089130E+03  0.00000000000E+00 0.  1.
<mgrwt>
<rscale>  2 0.62896504E+02</rscale>
<asrwt>0</asrwt>
<pdfrwt beam="1">  1       21 0.15378801E+00 0.62896504E+02</pdfrwt>
<pdfrwt beam="2">  1       21 0.67393620E-03 0.62896504E+02</pdfrwt>
<totfact> 0.19588292E+06</totfact>
</mgrwt>
</event>
<event>
 5    1  0.1624116E+000  0.7287675E+02  0.7546771E-02  0.1350575E+00
         21   -1    0    0  503  502  0.00000000000E+00  0.00000000000E+00  0.26140015262E+02  0.26140015262E+02  0.00000000000E+00 0.  1.
         21   -1    0    0  501  503 -0.00000000000E+00 -0.00000000000E+00 -0.28832694447E+03  0.28832694447E+03  0.00000000000E+00 0. -1.
         24    1    1    2    0    0 -0.38117521365E+02 -0.19099703789E+02 -0.18198073241E+03  0.20347468403E+03  0.80419002446E+02 0. -1.
          1    1    1    2  501    0  0.33438323366E+02 -0.16324131090E+01 -0.83055170737E+02  0.89548576919E+02  0.00000000000E+00 0. -1.
         -2    1    1    2    0  502  0.46791979996E+01  0.20732116898E+02  0.28489739355E+01  0.21443698782E+02  0.00000000000E+00 0.  1.
<mgrwt>
<rscale>  2 0.72876752E+02</rscale>
<asrwt>0</asrwt>
<pdfrwt beam="1">  1       21 0.40215410E-02 0.72876752E+02</pdfrwt>
<pdfrwt beam="2">  1       21 0.44357989E-01 0.72876752E+02</pdfrwt>
<totfact> 0.18539365E+06</totfact>
</mgrwt>
</event>
<event>
 5    1  0.1624116E+000  0.8678667E+02  0.7546771E-02  0.1310825E+00
         21   -1    0    0  501  502  0.00000000000E+00  0.00000000000E+00  0.22870148087E+03  0.22870148087E+03  0.00000000000E+00 0.  1.
         21   -1    0    0  502  503 -0.00000000000E+00 -0.00000000000E+00 -0.55571039554E+02  0.55571039554E+02  0.00000000000E+00 0.  1.
         24    1    1    2    0    0  0.35373182518E+02  0.40797750736E+02  0.61210792591E+02  0.11458488378E+03  0.80419002446E+02 0.  1.
          1    1    1    2  501    0 -0.40922731014E+02 -0.58696193474E+01  0.12524695661E+03  0.13189360290E+03  0.00000000000E+00 0. -1.
         -2    1    1    2    0  503  0.55495484960E+01 -0.34928131389E+02 -0.13327307892E+02  0.37794033742E+02  0.00000000000E+00 0.  1.
<mgrwt>
<rscale>  2 0.86786667E+02</rscale>
<asrwt>0</asrwt>
<pdfrwt beam="1">  1       21 0.35184843E-01 0.86786667E+02</pdfrwt>
<pdfrwt beam="2">  1       21 0.85493908E-02 0.86786667E+02</pdfrwt>
<totfact> 0.83215277E+05</totfact>
</mgrwt>
</event>
<event>
 5    1  0.1624116E+000  0.9151367E+02  0.7546771E-02  0.1299227E+00
         21   -1    0    0  501  502  0.00000000000E+00  0.00000000000E+00  0.17750449882E+03  0.17750449882E+03  0.00000000000E+00 0. -1.
         21   -1    0    0  502  503 -0.00000000000E+00 -0.00000000000E+00 -0.63792627327E+02  0.63792627327E+02  0.00000000000E+00 0. -1.
         24    1    1    2    0    0 -0.67889373050E+02  0.25678637489E+02  0.24708408802E+02  0.11111291921E+03  0.80419002446E+02 0. -1.
          1    1    1    2  501    0  0.47782460604E+02 -0.91113425528E+01  0.91890789216E+02  0.10397161751E+03  0.00000000000E+00 0. -1.
         -2    1    1    2    0  503  0.20106912447E+02 -0.16567294936E+02 -0.28873265285E+01  0.26212589420E+02  0.00000000000E+00 0.  1.
<mgrwt>
<rscale>  2 0.91513671E+02</rscale>
<asrwt>0</asrwt>
<pdfrwt beam="1">  1       21 0.27308384E-01 0.91513671E+02</pdfrwt>
<pdfrwt beam="2">  1       21 0.98142504E-02 0.91513671E+02</pdfrwt>
<totfact> 0.10675017E+06</totfact>
</mgrwt>
</event>
<event>
 5    1  0.1624116E+000  0.1145983E+03  0.7546771E-02  0.1252284E+00
         21   -1    0    0  501  502  0.00000000000E+00  0.00000000000E+00  0.29523677604E+03  0.29523677604E+03  0.00000000000E+00 0. -1.
         21   -1    0    0  502  503 -0.00000000000E+00 -0.00000000000E+00 -0.10132789913E+03  0.10132789913E+03  0.00000000000E+00 0. -1.
         24    1    1    2    0    0 -0.17212699547E+02  0.97437657503E+02  0.46706707852E+02  0.13579067213E+03  0.80419002446E+02 0. -1.
          1    1    1    2  501    0  0.52894553288E+00 -0.66828375949E+02  0.19241017699E+03  0.20368600301E+03  0.00000000000E+00 0. -1.
         -2    1    1    2    0  503  0.16683754014E+02 -0.30609281554E+02 -0.45208007933E+02  0.57088000022E+02  0.00000000000E+00 0.  1.
<mgrwt>
<rscale>  2 0.11459826E+03</rscale>
<asrwt>0</asrwt>
<pdfrwt beam="1">  1       21 0.45421042E-01 0.11459826E+03</pdfrwt>
<pdfrwt beam="2">  1       21 0.15588908E-01 0.11459826E+03</pdfrwt>
<totfact> 0.17404158E+05</totfact>
</mgrwt>
</event>
<event>
 5    1  0.1624116E+000  0.8007803E+02  0.7546771E-02  0.1328830E+00
         21   -1    0    0  503  502  0.00000000000E+00  0.00000000000E+00  0.72410632934E+03  0.72410632934E+03  0.00000000000E+00 0.  1.
         21   -1    0    0  501  503 -0.00000000000E+00 -0.00000000000E+00 -0.30794757197E+02  0.30794757197E+02  0.00000000000E+00 0.  1.
         24    1    1    2    0    0  0.38096971109E+02  0.61618991576E+01  0.10595542813E+03  0.13850312962E+03  0.80419002446E+02 0.  1.
          1    1    1    2  501    0  0.11706416491E+02 -0.16362751442E+02 -0.59009560720E+01  0.20966666506E+02  0.00000000000E+00 0. -1.
         -2    1    1    2    0  502 -0.49803387601E+02  0.10200852284E+02  0.59325710009E+03  0.59543129042E+03  0.00000000000E+00 0.  1.
<mgrwt>
<rscale>  2 0.80078026E+02</rscale>
<asrwt>0</asrwt>
<pdfrwt beam="1">  1       21 0.11140096E+00 0.80078026E+02</pdfrwt>
<pdfrwt beam="2">  1       21 0.47376555E-02 0.80078026E+02</pdfrwt>
<totfact> 0.19445316E+05</totfact>
</mgrwt>
</event>
<event>
 5    1  0.1624116E+000  0.8939847E+02  0.7546771E-02  0.1304315E+00
         21   -1    0    0  501  502  0.00000000000E+00  0.00000000000E+00  0.29226413842E+02  0.29226413842E+02  0.00000000000E+00 0. -1.
         21   -1    0    0  502  503 -0.00000000000E+00 -0.00000000000E+00 -0.74134431746E+03  0.74134431746E+03  0.00000000000E+00 0. -1.
         24    1    1    2    0    0  0.47040632447E+01  0.64245262700E+02 -0.65124523715E+03  0.65934600694E+03  0.80419002446E+02 0. -1.
          1    1    1    2  501    0 -0.17693694550E+02 -0.10736765366E+02  0.87412144933E+01  0.22466726245E+02  0.00000000000E+00 0. -1.
         -2    1    1    2    0  503  0.12989631306E+02 -0.53508497334E+02 -0.69613880953E+02  0.88757998117E+02  0.00000000000E+00 0.  1.
<mgrwt>
<rscale>  2 0.89398471E+02</rscale>
<asrwt>0</asrwt>
<pdfrwt beam="1">  1       21 0.44963712E-02 0.89398471E+02</pdfrwt>
<pdfrwt beam="2">  1       21 0.11405298E+00 0.89398471E+02</pdfrwt>
<totfact> 0.19977306E+05</totfact>
</mgrwt>
</event>
<event>
 5    1  0.1624116E+000  0.1133939E+03  0.7546771E-02  0.1254411E+00
         21   -1    0    0  501  502  0.00000000000E+00  0.00000000000E+00  0.16981883049E+03  0.16981883049E+03  0.00000000000E+00 0. -1.
         21   -1    0    0  502  503 -0.00000000000E+00 -0.00000000000E+00 -0.13024304366E+03  0.13024304366E+03  0.00000000000E+00 0.  1.
         24    1    1    2    0    0 -0.64957013334E+02  0.54671098665E+00  0.16092988185E+02  0.10462271597E+03  0.80419002446E+02 0. -1.
          1    1    1    2  501    0  0.72726789488E+02  0.39400899862E+02  0.86973675032E+02  0.12002515140E+03  0.00000000000E+00 0. -1.
         -2    1    1    2    0  503 -0.77697761538E+01 -0.39947610849E+02 -0.63490876394E+02  0.75414006784E+02  0.00000000000E+00 0.  1.
<mgrwt>
<rscale>  2 0.11339394E+03</rscale>
<asrwt>0</asrwt>
<pdfrwt beam="1">  1       21 0.26125974E-01 0.11339394E+03</pdfrwt>
<pdfrwt beam="2">  1       21 0.20037391E-01 0.11339394E+03</pdfrwt>
<totfact> 0.32506383E+05</totfact>
</mgrwt>
</event>
<event>
 5    1  0.1624116E+000  0.8466784E+02  0.7546771E-02  0.1316303E+00
         21   -1    0    0  503  502  0.00000000000E+00  0.00000000000E+00  0.46419502975E+02  0.46419502975E+02  0.00000000000E+00 0.  1.
         21   -1    0    0  501  503 -0.00000000000E+00 -0.00000000000E+00 -0.30288950258E+03  0.30288950258E+03  0.00000000000E+00 0.  1.
         24    1    1    2    0    0  0.38416221217E+02 -0.35577834559E+01 -0.16342376443E+03  0.18618003816E+03  0.80419002446E+02 0.  1.
          1    1    1    2  501    0  0.20802928670E+02  0.20365087218E+01 -0.10119611249E+03  0.10333229114E+03  0.00000000000E+00 0. -1.
         -2    1    1    2    0  502 -0.59219149887E+02  0.15212747341E+01  0.81498773175E+01  0.59796676250E+02  0.00000000000E+00 0.  1.
<mgrwt>
<rscale>  2 0.84667839E+02</rscale>
<asrwt>0</asrwt>
<pdfrwt beam="1">  1       21 0.71414618E-02 0.84667839E+02</pdfrwt>
<pdfrwt beam="2">  1       21 0.46598386E-01 0.84667839E+02</pdfrwt>
<totfact> 0.64812293E+05</totfact>
</mgrwt>
</event>
<event>
 5    1  0.1624116E+000  0.6783181E+02  0.7546771E-02  0.1367625E+00
         21   -1    0    0  501  502  0.00000000000E+00  0.00000000000E+00  0.11836912453E+03  0.11836912453E+03  0.00000000000E+00 0.  1.
         21   -1    0    0  502  503 -0.00000000000E+00 -0.00000000000E+00 -0.39027392939E+02  0.39027392939E+02  0.00000000000E+00 0. -1.
         24    1    1    2    0    0  0.94093658340E+01 -0.13491568944E+02  0.45101562449E+02  0.93658558005E+02  0.80419002446E+02 0. -1.
          1    1    1    2  501    0  0.98499511674E+01  0.27860721177E+02  0.21466865655E+02  0.36524890740E+02  0.00000000000E+00 0. -1.
         -2    1    1    2    0  503 -0.19259317001E+02 -0.14369152234E+02  0.12773303483E+02  0.27213068720E+02  0.00000000000E+00 0.  1.
<mgrwt>
<rscale>  2 0.67831813E+02</rscale>
<asrwt>0</asrwt>
<pdfrwt beam="1">  1       21 0.18210634E-01 0.67831813E+02</pdfrwt>
<pdfrwt beam="2">  1       21 0.60042144E-02 0.67831813E+02</pdfrwt>
<totfact> 0.51121151E+06</totfact>
</mgrwt>
</event>
<event>
 5    1  0.1624116E+000  0.7102255E+02  0.7546771E-02  0.1356650E+00
         21   -1    0    0  503  502  0.00000000000E+00  0.00000000000E+00  0.77026609590E+01  0.77026609590E+01  0.00000000000E+00 0. -1.
         21   -1    0    0  501  503 -0.00000000000E+00 -0.00000000000E+00 -0.13137654448E+04  0.13137654448E+04  0.00000000000E+00 0. -1.
         24    1    1    2    0    0  0.26401272885E+02  0.15720056482E+02 -0.39305809020E+03  0.40237547839E+03  0.80419002446E+02 0. -1.
          1    1    1    2  501    0 -0.82754350420E+01 -0.31101264529E+02 -0.86427025339E+03  0.86486926317E+03  0.00000000000E+00 0. -1.
         -2    1    1    2    0  502 -0.18125837842E+02  0.15381208047E+02 -0.48734440273E+02  0.54223364219E+02  0.00000000000E+00 0.  1.
<mgrwt>
<rscale>  2 0.71022545E+02</rscale>
<asrwt>0</asrwt>
<pdfrwt beam="1">  1       21 0.11850254E-02 0.71022545E+02</pdfrwt>
<pdfrwt beam="2">  1       21 0.20211765E+00 0.71022545E+02</pdfrwt>
<totfact> 0.39555354E+05</totfact>
</mgrwt>
</event>
<event>
 5    1  0.1624116E+000  0.8004185E+02  0.7546771E-02  0.1328933E+00
         21   -1    0    0  503  502  0.00000000000E+00  0.00000000000E+00  0.12051764243E+04  0.12051764243E+04  0.00000000000E+00 0. -1.
         21   -1    0    0  501  503 -0.00000000000E+00 -0.00000000000E+00 -0.63812818727E+01  0.63812818727E+01  0.00000000000E+00 0.  1.
         24    1    1    2    0    0  0.17949245811E+02  0.22092729798E+02  0.71939351352E+03  0.72443392203E+03  0.80419002446E+02 0. -1.
          1    1    1    2  501    0 -0.34658576781E+01 -0.46373713633E+02  0.16423955631E+03  0.17069611988E+03  0.00000000000E+00 0. -1.
         -2    1    1    2    0  502 -0.14483388133E+02  0.24280983834E+02  0.31516207257E+03  0.31642766424E+03  0.00000000000E+00 0.  1.
<mgrwt>
<rscale>  2 0.80041852E+02</rscale>
<asrwt>0</asrwt>
<pdfrwt beam="1">  1       21 0.18541158E+00 0.80041852E+02</pdfrwt>
<pdfrwt beam="2">  1       21 0.98173663E-03 0.80041852E+02</pdfrwt>
<totfact> 0.67057355E+05</totfact>
</mgrwt>
</event>
<event>
 5    1  0.1624116E+000  0.1500979E+03  0.7546771E-02  0.1200353E+00
         21   -1    0    0  503  502  0.00000000000E+00  0.00000000000E+00  0.40867765270E+03  0.40867765270E+03  0.00000000000E+00 0.  1.
         21   -1    0    0  501  503 -0.00000000000E+00 -0.00000000000E+00 -0.64077522053E+02  0.64077522053E+02  0.00000000000E+00 0. -1.
         24    1    1    2    0    0  0.10372548469E+03 -0.36059245119E+01  0.17160169523E+03  0.21607021226E+03  0.80419002446E+02 0.  1.
          1    1    1    2  501    0 -0.33529863673E+02 -0.63485738537E+02  0.18391478185E+02  0.74114352357E+02  0.00000000000E+00 0. -1.
         -2    1    1    2    0  502 -0.70195621018E+02  0.67091663049E+02  0.15460695722E+03  0.18257061013E+03  0.00000000000E+00 0.  1.
<mgrwt>
<rscale>  2 0.15009793E+03</rscale>
<asrwt>0</asrwt>
<pdfrwt beam="1">  1       21 0.62873483E-01 0.15009793E+03</pdfrwt>
<pdfrwt beam="2">  1       21 0.98580806E-02 0.15009793E+03</pdfrwt>
<totfact> 0.19742641E+05</totfact>
</mgrwt>
</event>
<event>
 5    1  0.1624116E+000  0.1285296E+03  0.7546771E-02  0.1229654E+00
         21   -1    0    0  503  502  0.00000000000E+00  0.00000000000E+00  0.12200565460E+04  0.12200565460E+04  0.00000000000E+00 0.  1.
         21   -1    0    0  501  503 -0.00000000000E+00 -0.00000000000E+00 -0.79999636217E+02  0.79999636217E+02  0.00000000000E+00 0. -1.
         24    1    1    2    0    0 -0.66089858706E+02  0.51410558403E+02  0.59809909923E+02  0.13059615698E+03  0.80419002446E+02 0. -1.
          1    1    1    2  501    0  0.38217718616E+02  0.33980170329E+02 -0.27508559903E+02  0.58068639210E+02  0.00000000000E+00 0. -1.
         -2    1    1    2    0  502  0.27872140090E+02 -0.85390728732E+02  0.11077555598E+04  0.11113913861E+04  0.00000000000E+00 0.  1.
<mgrwt>
<rscale>  2 0.12852964E+03</rscale>
<asrwt>0</asrwt>
<pdfrwt beam="1">  1       21 0.18770099E+00 0.12852964E+03</pdfrwt>
<pdfrwt beam="2">  1       21 0.12307637E-01 0.12852964E+03</pdfrwt>
<totfact> 0.96209636E+03</totfact>
</mgrwt>
</event>
<event>
 5    1  0.1624116E+000  0.7730639E+02  0.7546771E-02  0.1336874E+00
         21   -1    0    0  503  502  0.00000000000E+00  0.00000000000E+00  0.12293964925E+03  0.12293964925E+03  0.00000000000E+00 0.  1.
         21   -1    0    0  501  503 -0.00000000000E+00 -0.00000000000E+00 -0.17310509419E+03  0.17310509419E+03  0.00000000000E+00 0. -1.
         24    1    1    2    0    0 -0.16753709053E+02  0.23146380478E+02 -0.71743767506E+02  0.11149361339E+03  0.80419002446E+02 0. -1.
          1    1    1    2  501    0 -0.17080650135E+02 -0.30210228889E+02 -0.74639671710E+02  0.82313347226E+02  0.00000000000E+00 0. -1.
         -2    1    1    2    0  502  0.33834359188E+02  0.70638484113E+01  0.96217994270E+02  0.10223778283E+03  0.00000000000E+00 0.  1.
<mgrwt>
<rscale>  2 0.77306394E+02</rscale>
<asrwt>0</asrwt>
<pdfrwt beam="1">  1       21 0.18913792E-01 0.77306394E+02</pdfrwt>
<pdfrwt beam="2">  1       21 0.26631553E-01 0.77306394E+02</pdfrwt>
<totfact> 0.35011485E+05</totfact>
</mgrwt>
</event>
<event>
 5    1  0.1624116E+000  0.7811281E+02  0.7546771E-02  0.1334494E+00
         21   -1    0    0  503  502  0.00000000000E+00  0.00000000000E+00  0.68224303864E+03  0.68224303864E+03  0.00000000000E+00 0.  1.
         21   -1    0    0  501  503 -0.00000000000E+00 -0.00000000000E+00 -0.46102172202E+02  0.46102172202E+02  0.00000000000E+00 0.  1.
         24    1    1    2    0    0 -0.14973206465E+02 -0.41101737231E+02  0.44717913573E+01  0.91655674061E+02  0.80419002446E+02 0.  1.
          1    1    1    2  501    0  0.31253304437E+02  0.16953125935E+02  0.15062138510E+03  0.15476103892E+03  0.00000000000E+00 0. -1.
         -2    1    1    2    0  502 -0.16280097971E+02  0.24148611296E+02  0.48104768998E+03  0.48192849786E+03  0.00000000000E+00 0.  1.
<mgrwt>
<rscale>  2 0.78112809E+02</rscale>
<asrwt>0</asrwt>
<pdfrwt beam="1">  1       21 0.10496046E+00 0.78112809E+02</pdfrwt>
<pdfrwt beam="2">  1       21 0.70926423E-02 0.78112809E+02</pdfrwt>
<totfact> 0.11400425E+05</totfact>
</mgrwt>
</event>
<event>
 5    1  0.1624116E+000  0.7688654E+02  0.7546771E-02  0.1338127E+00
         21   -1    0    0  501  502  0.00000000000E+00  0.00000000000E+00  0.27112645688E+03  0.27112645688E+03  0.00000000000E+00 0. -1.
         21   -1    0    0  502  503 -0.00000000000E+00 -0.00000000000E+00 -0.25677516382E+02  0.25677516382E+02  0.00000000000E+00 0.  1.
         24    1    1    2    0    0 -0.10995897996E+02 -0.45679915737E+01  0.72176753925E+02  0.10871281471E+03  0.80419002446E+02 0.  1.
          1    1    1    2  501    0  0.39739084147E+02 -0.89183432209E+01  0.11004861726E+03  0.11734321376E+03  0.00000000000E+00 0. -1.
         -2    1    1    2    0  503 -0.28743186151E+02  0.13486334795E+02  0.63223569313E+02  0.70747944797E+02  0.00000000000E+00 0.  1.
<mgrwt>
<rscale>  2 0.76886536E+02</rscale>
<asrwt>0</asrwt>
<pdfrwt beam="1">  1       21 0.41711760E-01 0.76886536E+02</pdfrwt>
<pdfrwt beam="2">  1       21 0.39503873E-02 0.76886536E+02</pdfrwt>
<totfact> 0.21622344E+06</totfact>
</mgrwt>
</event>
<event>
 5    1  0.1624116E+000  0.8468706E+02  0.7546771E-02  0.1316253E+00
         21   -1    0    0  501  502  0.00000000000E+00  0.00000000000E+00  0.79999053411E+02  0.79999053411E+02  0.00000000000E+00 0. -1.
         21   -1    0    0  502  503 -0.00000000000E+00 -0.00000000000E+00 -0.16634249045E+03  0.16634249045E+03  0.00000000000E+00 0. -1.
         24    1    1    2    0    0 -0.15298989218E+02  0.28473642725E+02 -0.94245184949E+02  0.12803975258E+03  0.80419002446E+02 0. -1.
          1    1    1    2  501    0 -0.21736615229E+02  0.14379731639E+02  0.43998032117E+02  0.51137891566E+02  0.00000000000E+00 0. -1.
         -2    1    1    2    0  503  0.37035604447E+02 -0.42853374364E+02 -0.36096284212E+02  0.67163899716E+02  0.00000000000E+00 0.  1.
<mgrwt>
<rscale>  2 0.84687061E+02</rscale>
<asrwt>0</asrwt>
<pdfrwt beam="1">  1       21 0.12307547E-01 0.84687061E+02</pdfrwt>
<pdfrwt beam="2">  1       21 0.25591152E-01 0.84687061E+02</pdfrwt>
<totfact> 0.81176331E+05</totfact>
</mgrwt>
</event>
<event>
 5    1  0.1624116E+000  0.8051379E+02  0.7546771E-02  0.1327600E+00
         21   -1    0    0  503  502  0.00000000000E+00  0.00000000000E+00  0.39922799466E+02  0.39922799466E+02  0.00000000000E+00 0. -1.
         21   -1    0    0  501  503 -0.00000000000E+00 -0.00000000000E+00 -0.22340518312E+03  0.22340518312E+03  0.00000000000E+00 0.  1.
         24    1    1    2    0    0  0.19118320933E+02  0.19948622090E+02 -0.16404381815E+03  0.18477296325E+03  0.80419002446E+02 0.  1.
          1    1    1    2  501    0  0.26325389931E+02 -0.14955704497E+02 -0.98893292744E+01  0.31851186564E+02  0.00000000000E+00 0. -1.
         -2    1    1    2    0  502 -0.45443710864E+02 -0.49929175937E+01 -0.95492362229E+01  0.46703832772E+02  0.00000000000E+00 0.  1.
<mgrwt>
<rscale>  2 0.80513792E+02</rscale>
<asrwt>0</asrwt>
<pdfrwt beam="1">  1       21 0.61419692E-02 0.80513792E+02</pdfrwt>
<pdfrwt beam="2">  1       21 0.34370028E-01 0.80513792E+02</pdfrwt>
<totfact> 0.15224579E+06</totfact>
</mgrwt>
</event>
<event>
 5    1  0.1624116E+000  0.1000085E+03  0.7546771E-02  0.1280278E+00
         21   -1    0    0  501  502  0.00000000000E+00  0.00000000000E+00  0.85622413187E+02  0.85622413187E+02  0.00000000000E+00 0.  1.
         21   -1    0    0  502  503 -0.00000000000E+00 -0.00000000000E+00 -0.12076901219E+03  0.12076901219E+03  0.00000000000E+00 0. -1.
         24    1    1    2    0    0 -0.11270522210E+02 -0.35795260852E+02 -0.28146370645E+02  0.93100802925E+02  0.80419002446E+02 0. -1.
          1    1    1    2  501    0 -0.45565022955E+02  0.30219080304E+01  0.70200903716E+01  0.46201568305E+02  0.00000000000E+00 0. -1.
         -2    1    1    2    0  503  0.56835545165E+02  0.32773352821E+02 -0.14020318733E+02  0.67089054150E+02  0.00000000000E+00 0.  1.
<mgrwt>
<rscale>  2 0.10000854E+03</rscale>
<asrwt>0</asrwt>
<pdfrwt beam="1">  1       21 0.13172679E-01 0.10000854E+03</pdfrwt>
<pdfrwt beam="2">  1       21 0.18579848E-01 0.10000854E+03</pdfrwt>
<totfact> 0.13051579E+06</totfact>
</mgrwt>
</event>
<event>
 5    1  0.1624116E+000  0.7672642E+02  0.7546771E-02  0.1338607E+00
         21   -1    0    0  501  502  0.00000000000E+00  0.00000000000E+00  0.10598277631E+02  0.10598277631E+02  0.00000000000E+00 0. -1.
         21   -1    0    0  502  503 -0.00000000000E+00 -0.00000000000E+00 -0.77695089645E+03  0.77695089645E+03  0.00000000000E+00 0. -1.
         24    1    1    2    0    0  0.32208546299E+02 -0.22611851399E+01 -0.25391002806E+03  0.26829092738E+03  0.80419002446E+02 0. -1.
          1    1    1    2  501    0 -0.27004777183E+02  0.28957532185E+02 -0.13114964151E+03  0.13699644203E+03  0.00000000000E+00 0. -1.
         -2    1    1    2    0  503 -0.52037691159E+01 -0.26696347045E+02 -0.38129294924E+03  0.38226180466E+03  0.00000000000E+00 0.  1.
<mgrwt>
<rscale>  2 0.76726419E+02</rscale>
<asrwt>0</asrwt>
<pdfrwt beam="1">  1       21 0.16305037E-02 0.76726419E+02</pdfrwt>
<pdfrwt beam="2">  1       21 0.11953095E+00 0.76726419E+02</pdfrwt>
<totfact> 0.92273373E+05</totfact>
</mgrwt>
</event>
<event>
 5    1  0.1624116E+000  0.9004835E+02  0.7546771E-02  0.1302735E+00
         21   -1    0    0  503  502  0.00000000000E+00  0.00000000000E+00  0.35305177194E+03  0.35305177194E+03  0.00000000000E+00 0.  1.
         21   -1    0    0  501  503 -0.00000000000E+00 -0.00000000000E+00 -0.35161677491E+03  0.35161677491E+03  0.00000000000E+00 0. -1.
         24    1    1    2    0    0 -0.61488638534E+01  0.13353128367E+02 -0.38958721432E+02  0.90559993893E+02  0.80419002446E+02 0.  0.
          1    1    1    2  501    0  0.30305476180E+02 -0.47604328026E+02 -0.28271530835E+03  0.28829245483E+03  0.00000000000E+00 0. -1.
         -2    1    1    2    0  502 -0.24156612327E+02  0.34251199659E+02  0.32310902681E+03  0.32581609813E+03  0.00000000000E+00 0.  1.
<mgrwt>
<rscale>  2 0.90048346E+02</rscale>
<asrwt>0</asrwt>
<pdfrwt beam="1">  1       21 0.54315657E-01 0.90048346E+02</pdfrwt>
<pdfrwt beam="2">  1       21 0.54094888E-01 0.90048346E+02</pdfrwt>
<totfact> 0.11304336E+04</totfact>
</mgrwt>
</event>
<event>
 5    1  0.1624116E+000  0.7442663E+02  0.7546771E-02  0.1345656E+00
         21   -1    0    0  503  502  0.00000000000E+00  0.00000000000E+00  0.69172950989E+03  0.69172950989E+03  0.00000000000E+00 0. -1.
         21   -1    0    0  501  503 -0.00000000000E+00 -0.00000000000E+00 -0.97352885383E+01  0.97352885383E+01  0.00000000000E+00 0. -1.
         24    1    1    2    0    0  0.71699906789E+01  0.45705252611E+01  0.30299700619E+03  0.31360277452E+03  0.80419002446E+02 0. -1.
          1    1    1    2  501    0 -0.29906827107E+02  0.18844050211E+02  0.84976951495E+02  0.92035856172E+02  0.00000000000E+00 0. -1.
         -2    1    1    2    0  502  0.22736836428E+02 -0.23414575472E+02  0.29402026367E+03  0.29582616774E+03  0.00000000000E+00 0.  1.
<mgrwt>
<rscale>  2 0.74426630E+02</rscale>
<asrwt>0</asrwt>
<pdfrwt beam="1">  1       21 0.10641989E+00 0.74426630E+02</pdfrwt>
<pdfrwt beam="2">  1       21 0.14977372E-02 0.74426630E+02</pdfrwt>
<totfact> 0.13864723E+06</totfact>
</mgrwt>
</event>
<event>
 5    1  0.1624116E+000  0.1458979E+03  0.7546771E-02  0.1205606E+00
         21   -1    0    0  501  502  0.00000000000E+00  0.00000000000E+00  0.18427928623E+03  0.18427928623E+03  0.00000000000E+00 0.  1.
         21   -1    0    0  502  503 -0.00000000000E+00 -0.00000000000E+00 -0.16080214815E+03  0.16080214815E+03  0.00000000000E+00 0. -1.
         24    1    1    2    0    0 -0.12546218575E+03 -0.28692132223E+02  0.10095842592E+03  0.18227401961E+03  0.80419002446E+02 0.  1.
          1    1    1    2  501    0  0.11907915367E+03  0.90961173519E+01 -0.52592921009E+02  0.13049367621E+03  0.00000000000E+00 0. -1.
         -2    1    1    2    0  503  0.63830320829E+01  0.19596014871E+02 -0.24888366827E+02  0.32313738576E+02  0.00000000000E+00 0.  1.
<mgrwt>
<rscale>  2 0.14589792E+03</rscale>
<asrwt>0</asrwt>
<pdfrwt beam="1">  1       21 0.28350659E-01 0.14589792E+03</pdfrwt>
<pdfrwt beam="2">  1       21 0.24738792E-01 0.14589792E+03</pdfrwt>
<totfact> 0.18629034E+05</totfact>
</mgrwt>
</event>
<event>
 5    1  0.1624116E+000  0.6319397E+02  0.7546771E-02  0.1384897E+00
         21   -1    0    0  501  502  0.00000000000E+00  0.00000000000E+00  0.65415826736E+02  0.65415826736E+02  0.00000000000E+00 0. -1.
         21   -1    0    0  502  503 -0.00000000000E+00 -0.00000000000E+00 -0.10102236428E+03  0.10102236428E+03  0.00000000000E+00 0. -1.
         24    1    1    2    0    0 -0.25541670621E+01  0.10505623318E+02 -0.15024723785E+02  0.82521816327E+02  0.80419002446E+02 0. -1.
          1    1    1    2  501    0  0.19168490846E+02  0.76469050771E+01  0.24817274667E+02  0.32276978180E+02  0.00000000000E+00 0. -1.
         -2    1    1    2    0  503 -0.16614323784E+02 -0.18152528396E+02 -0.45399088423E+02  0.51639396507E+02  0.00000000000E+00 0.  1.
<mgrwt>
<rscale>  2 0.63193969E+02</rscale>
<asrwt>0</asrwt>
<pdfrwt beam="1">  1       21 0.10063973E-01 0.63193969E+02</pdfrwt>
<pdfrwt beam="2">  1       21 0.15541902E-01 0.63193969E+02</pdfrwt>
<totfact> 0.28195340E+06</totfact>
</mgrwt>
</event>
<event>
 5    1  0.1624116E+000  0.7485358E+02  0.7546771E-02  0.1344325E+00
         21   -1    0    0  501  502  0.00000000000E+00  0.00000000000E+00  0.48595087069E+02  0.48595087069E+02  0.00000000000E+00 0.  1.
         21   -1    0    0  502  503 -0.00000000000E+00 -0.00000000000E+00 -0.13058984981E+03  0.13058984981E+03  0.00000000000E+00 0.  1.
         24    1    1    2    0    0  0.39179537720E+01 -0.40254094010E+02 -0.27055685742E+02  0.93994513306E+02  0.80419002446E+02 0.  1.
          1    1    1    2  501    0 -0.21957408844E+02  0.92621590739E+01 -0.60984141847E+01  0.24598903419E+02  0.00000000000E+00 0. -1.
         -2    1    1    2    0  503  0.18039455072E+02  0.30991934936E+02 -0.48840662813E+02  0.60591520152E+02  0.00000000000E+00 0.  1.
<mgrwt>
<rscale>  2 0.74853582E+02</rscale>
<asrwt>0</asrwt>
<pdfrwt beam="1">  1       21 0.74761671E-02 0.74853582E+02</pdfrwt>
<pdfrwt beam="2">  1       21 0.20090747E-01 0.74853582E+02</pdfrwt>
<totfact> 0.29814062E+06</totfact>
</mgrwt>
</event>
<event>
 5    1  0.1624116E+000  0.8173655E+02  0.7546771E-02  0.1324194E+00
         21   -1    0    0  501  502  0.00000000000E+00  0.00000000000E+00  0.18493658524E+04  0.18493658524E+04  0.00000000000E+00 0. -1.
         21   -1    0    0  502  503 -0.00000000000E+00 -0.00000000000E+00 -0.55940796153E+01  0.55940796153E+01  0.00000000000E+00 0. -1.
         24    1    1    2    0    0  0.28849115614E+02 -0.53924036485E+01  0.13238934147E+04  0.13266583354E+04  0.80419002446E+02 0.  0.
          1    1    1    2  501    0  0.10279956091E+02 -0.25834120062E+02  0.35255502104E+03  0.35364971669E+03  0.00000000000E+00 0. -1.
         -2    1    1    2    0  503 -0.39129071705E+02  0.31226523711E+02  0.16732333709E+03  0.17465187995E+03  0.00000000000E+00 0.  1.
<mgrwt>
<rscale>  2 0.81736553E+02</rscale>
<asrwt>0</asrwt>
<pdfrwt beam="1">  1       21 0.28451734E+00 0.81736553E+02</pdfrwt>
<pdfrwt beam="2">  1       21 0.86062911E-03 0.81736553E+02</pdfrwt>
<totfact> 0.22106053E+05</totfact>
</mgrwt>
</event>
<event>
 5    1  0.1624116E+000  0.8203512E+02  0.7546771E-02  0.1323373E+00
         21   -1    0    0  501  502  0.00000000000E+00  0.00000000000E+00  0.16113713398E+03  0.16113713398E+03  0.00000000000E+00 0.  1.
         21   -1    0    0  502  503 -0.00000000000E+00 -0.00000000000E+00 -0.90290128930E+02  0.90290128930E+02  0.00000000000E+00 0.  1.
         24    1    1    2    0    0 -0.19748306903E+02  0.69251852584E+01  0.71423548161E+02  0.10957414386E+03  0.80419002446E+02 0.  1.
          1    1    1    2  501    0 -0.25996401503E+02  0.15247278767E+02  0.57348231972E+02  0.64785122608E+02  0.00000000000E+00 0. -1.
         -2    1    1    2    0  503  0.45744708406E+02 -0.22172464026E+02 -0.57924775079E+02  0.77067996446E+02  0.00000000000E+00 0.  1.
<mgrwt>
<rscale>  2 0.82035117E+02</rscale>
<asrwt>0</asrwt>
<pdfrwt beam="1">  1       21 0.24790328E-01 0.82035117E+02</pdfrwt>
<pdfrwt beam="2">  1       21 0.13890789E-01 0.82035117E+02</pdfrwt>
<totfact> 0.69570045E+05</totfact>
</mgrwt>
</event>
<event>
 5    1  0.1624116E+000  0.7686753E+02  0.7546771E-02  0.1338184E+00
         21   -1    0    0  503  502  0.00000000000E+00  0.00000000000E+00  0.40814139538E+03  0.40814139538E+03  0.00000000000E+00 0.  1.
         21   -1    0    0  501  503 -0.00000000000E+00 -0.00000000000E+00 -0.40588847367E+02  0.40588847367E+02  0.00000000000E+00 0. -1.
         24    1    1    2    0    0 -0.11632368573E+02  0.83375038373E+01  0.13055319443E+03  0.15400057954E+03  0.80419002446E+02 0. -1.
          1    1    1    2  501    0  0.39059930032E+02  0.83566092019E+01 -0.13513237761E+02  0.42167744145E+02  0.00000000000E+00 0. -1.
         -2    1    1    2    0  502 -0.27427561459E+02 -0.16694113039E+02  0.25051259134E+03  0.25256191906E+03  0.00000000000E+00 0.  1.
<mgrwt>
<rscale>  2 0.76867527E+02</rscale>
<asrwt>0</asrwt>
<pdfrwt beam="1">  1       21 0.62790981E-01 0.76867527E+02</pdfrwt>
<pdfrwt beam="2">  1       21 0.62444383E-02 0.76867527E+02</pdfrwt>
<totfact> 0.43951043E+05</totfact>
</mgrwt>
</event>
<event>
 5    1  0.1624116E+000  0.6215597E+02  0.7546771E-02  0.1389001E+00
         21   -1    0    0  501  502  0.00000000000E+00  0.00000000000E+00  0.35982104179E+02  0.35982104179E+02  0.00000000000E+00 0. -1.
         21   -1    0    0  502  503 -0.00000000000E+00 -0.00000000000E+00 -0.60797963073E+03  0.60797963073E+03  0.00000000000E+00 0.  1.
         24    1    1    2    0    0 -0.35992768967E+01 -0.94857091802E+00 -0.22837563464E+02  0.83681687604E+02  0.80419002446E+02 0. -1.
          1    1    1    2  501    0 -0.20083843954E+02 -0.36725334352E+00 -0.13744445045E+02  0.24339380284E+02  0.00000000000E+00 0. -1.
         -2    1    1    2    0  503  0.23683120851E+02  0.13158242615E+01 -0.53541551804E+03  0.53594066702E+03  0.00000000000E+00 0.  1.
<mgrwt>
<rscale>  2 0.62155972E+02</rscale>
<asrwt>0</asrwt>
<pdfrwt beam="1">  1       21 0.55357082E-02 0.62155972E+02</pdfrwt>
<pdfrwt beam="2">  1       21 0.93535331E-01 0.62155972E+02</pdfrwt>
<totfact> 0.22635720E+05</totfact>
</mgrwt>
</event>
<event>
 5    1  0.1624116E+000  0.8162503E+02  0.7546771E-02  0.1324502E+00
         21   -1    0    0  501  502  0.00000000000E+00  0.00000000000E+00  0.32978313694E+02  0.32978313694E+02  0.00000000000E+00 0.  1.
         21   -1    0    0  502  503 -0.00000000000E+00 -0.00000000000E+00 -0.79461383247E+03  0.79461383247E+03  0.00000000000E+00 0.  1.
         24    1    1    2    0    0 -0.23168481773E+02 -0.10960831114E+02 -0.97155513154E+02  0.12869859384E+03  0.80419002446E+02 0.  1.
          1    1    1    2  501    0 -0.27210511346E+02  0.80771623126E+01  0.38652882798E+01  0.28645993301E+02  0.00000000000E+00 0. -1.
         -2    1    1    2    0  503  0.50378993118E+02  0.28836688011E+01 -0.66834529391E+03  0.67024755903E+03  0.00000000000E+00 0.  1.
<mgrwt>
<rscale>  2 0.81625030E+02</rscale>
<asrwt>0</asrwt>
<pdfrwt beam="1">  1       21 0.50735868E-02 0.81625030E+02</pdfrwt>
<pdfrwt beam="2">  1       21 0.12224828E+00 0.81625030E+02</pdfrwt>
<totfact> 0.13904869E+05</totfact>
</mgrwt>
</event>
<event>
 5    1  0.1624116E+000  0.8493487E+02  0.7546771E-02  0.1315603E+00
         21   -1    0    0  503  502  0.00000000000E+00  0.00000000000E+00  0.10203271162E+04  0.10203271162E+04  0.00000000000E+00 0.  1.
         21   -1    0    0  501  503 -0.00000000000E+00 -0.00000000000E+00 -0.87697876298E+01  0.87697876298E+01  0.00000000000E+00 0. -1.
         24    1    1    2    0    0  0.19737152825E+02  0.32218534131E+02  0.64367217222E+03  0.64977586165E+03  0.80419002446E+02 0.  0.
          1    1    1    2  501    0 -0.38451837955E+02 -0.44362468590E+02  0.16347409114E+03  0.17369614543E+03  0.00000000000E+00 0. -1.
         -2    1    1    2    0  502  0.18714685130E+02  0.12143934459E+02  0.20441106525E+03  0.20562489679E+03  0.00000000000E+00 0.  1.
<mgrwt>
<rscale>  2 0.84934875E+02</rscale>
<asrwt>0</asrwt>
<pdfrwt beam="1">  1       21 0.15697331E+00 0.84934875E+02</pdfrwt>
<pdfrwt beam="2">  1       21 0.13491989E-02 0.84934875E+02</pdfrwt>
<totfact> 0.63285057E+05</totfact>
</mgrwt>
</event>
<event>
 5    1  0.1624116E+000  0.9897704E+02  0.7546771E-02  0.1282462E+00
         21   -1    0    0  501  502  0.00000000000E+00  0.00000000000E+00  0.24138103909E+03  0.24138103909E+03  0.00000000000E+00 0.  1.
         21   -1    0    0  502  503 -0.00000000000E+00 -0.00000000000E+00 -0.54887582738E+02  0.54887582738E+02  0.00000000000E+00 0. -1.
         24    1    1    2    0    0  0.42793847034E+02 -0.58289595156E+01  0.53619917270E+02  0.10586596051E+03  0.80419002446E+02 0.  1.
          1    1    1    2  501    0 -0.60922396005E+02  0.36517344655E+02  0.13720243691E+03  0.15449777827E+03  0.00000000000E+00 0. -1.
         -2    1    1    2    0  503  0.18128548970E+02 -0.30688385139E+02 -0.43288978274E+01  0.35904883047E+02  0.00000000000E+00 0.  1.
<mgrwt>
<rscale>  2 0.98977040E+02</rscale>
<asrwt>0</asrwt>
<pdfrwt beam="1">  1       21 0.37135544E-01 0.98977040E+02</pdfrwt>
<pdfrwt beam="2">  1       21 0.84442436E-02 0.98977040E+02</pdfrwt>
<totfact> 0.76604130E+05</totfact>
</mgrwt>
</event>
<event>
 5    1  0.1624116E+000  0.6699626E+02  0.7546771E-02  0.1370616E+00
         21   -1    0    0  503  502  0.00000000000E+00  0.00000000000E+00  0.23967399698E+03  0.23967399698E+03  0.00000000000E+00 0.  1.
         21   -1    0    0  501  503 -0.00000000000E+00 -0.00000000000E+00 -0.13561318251E+03  0.13561318251E+03  0.00000000000E+00 0. -1.
         24    1    1    2    0    0  0.16326619092E+02 -0.33740116612E+02  0.81251557007E+02  0.12030787767E+03  0.80419002446E+02 0.  0.
          1    1    1    2  501    0 -0.19632250437E+02  0.11437368902E+02 -0.11404193017E+03  0.11628327697E+03  0.00000000000E+00 0. -1.
         -2    1    1    2    0  502  0.33056313441E+01  0.22302747710E+02  0.13685118764E+03  0.13869602486E+03  0.00000000000E+00 0.  1.
<mgrwt>
<rscale>  2 0.66996263E+02</rscale>
<asrwt>0</asrwt>
<pdfrwt beam="1">  1       21 0.36872923E-01 0.66996263E+02</pdfrwt>
<pdfrwt beam="2">  1       21 0.20863567E-01 0.66996263E+02</pdfrwt>
<totfact> 0.15788934E+05</totfact>
</mgrwt>
</event>
<event>
 5    1  0.1624116E+000  0.8203462E+02  0.7546771E-02  0.1323375E+00
         21   -1    0    0  501  502  0.00000000000E+00  0.00000000000E+00  0.11740408612E+03  0.11740408612E+03  0.00000000000E+00 0. -1.
         21   -1    0    0  502  503 -0.00000000000E+00 -0.00000000000E+00 -0.10977214382E+03  0.10977214382E+03  0.00000000000E+00 0. -1.
         24    1    1    2    0    0 -0.45115600997E+02 -0.40163528878E+02  0.81707003656E+02  0.12958308881E+03  0.80419002446E+02 0. -1.
          1    1    1    2  501    0  0.23865696212E+02  0.33673713847E+02 -0.49937971141E+02  0.64786506478E+02  0.00000000000E+00 0. -1.
         -2    1    1    2    0  503  0.21249904785E+02  0.64898150312E+01 -0.24137090219E+02  0.32806634645E+02  0.00000000000E+00 0.  1.
<mgrwt>
<rscale>  2 0.82034617E+02</rscale>
<asrwt>0</asrwt>
<pdfrwt beam="1">  1       21 0.18062167E-01 0.82034617E+02</pdfrwt>
<pdfrwt beam="2">  1       21 0.16888022E-01 0.82034617E+02</pdfrwt>
<totfact> 0.87804847E+05</totfact>
</mgrwt>
</event>
<event>
 5    1  0.1624116E+000  0.8591085E+02  0.7546771E-02  0.1313068E+00
         21   -1    0    0  503  502  0.00000000000E+00  0.00000000000E+00  0.44839410729E+03  0.44839410729E+03  0.00000000000E+00 0. -1.
         21   -1    0    0  501  503 -0.00000000000E+00 -0.00000000000E+00 -0.21587966350E+02  0.21587966350E+02  0.00000000000E+00 0.  1.
         24    1    1    2    0    0 -0.26802241712E+02  0.51556531060E+02  0.14334114738E+03  0.17432824367E+03  0.80419002446E+02 0.  1.
          1    1    1    2  501    0  0.58810639625E+01 -0.51348611286E+02  0.11736360924E+03  0.12823994529E+03  0.00000000000E+00 0. -1.
         -2    1    1    2    0  502  0.20921177750E+02 -0.20791977370E+00  0.16610138432E+03  0.16741388468E+03  0.00000000000E+00 0.  1.
<mgrwt>
<rscale>  2 0.85910845E+02</rscale>
<asrwt>0</asrwt>
<pdfrwt beam="1">  1       21 0.68983702E-01 0.85910845E+02</pdfrwt>
<pdfrwt beam="2">  1       21 0.33212259E-02 0.85910845E+02</pdfrwt>
<totfact> 0.10219835E+06</totfact>
</mgrwt>
</event>
<event>
 5    1  0.1674713E+000  0.2018920E+03  0.7546771E-02  0.1148153E+00
         21   -1    0    0  501  502  0.00000000000E+00  0.00000000000E+00  0.39188437504E+03  0.39188437504E+03  0.00000000000E+00 0.  1.
         21   -1    0    0  502  503 -0.00000000000E+00 -0.00000000000E+00 -0.11611152272E+03  0.11611152272E+03  0.00000000000E+00 0.  1.
         24    1    1    2    0    0  0.92112660720E+02  0.16528910028E+03  0.21571542723E+03  0.29800266850E+03  0.80419002446E+02 0.  1.
          1    1    1    2  501    0 -0.54905362826E+02 -0.41228729762E+02  0.38416380848E+02  0.78677985118E+02  0.00000000000E+00 0. -1.
         -2    1    1    2    0  503 -0.37207297894E+02 -0.12406037051E+03  0.21641044243E+02  0.13131524414E+03  0.00000000000E+00 0.  1.
<mgrwt>
<rscale>  2 0.20189195E+03</rscale>
<asrwt>0</asrwt>
<pdfrwt beam="1">  1       21 0.60289903E-01 0.20189195E+03</pdfrwt>
<pdfrwt beam="2">  1       21 0.17863311E-01 0.20189195E+03</pdfrwt>
<totfact> 0.72721122E+04</totfact>
</mgrwt>
</event>
<event>
 5    1  0.1624116E+000  0.1081803E+03  0.7546771E-02  0.1263977E+00
         21   -1    0    0  503  502  0.00000000000E+00  0.00000000000E+00  0.14563236686E+04  0.14563236686E+04  0.00000000000E+00 0.  1.
         21   -1    0    0  501  503 -0.00000000000E+00 -0.00000000000E+00 -0.13746338761E+02  0.13746338761E+02  0.00000000000E+00 0.  1.
         24    1    1    2    0    0  0.46288682678E+01  0.74832778407E+02  0.61415510094E+03  0.62391912546E+03  0.80419002446E+02 0.  1.
          1    1    1    2  501    0 -0.32206844515E+02 -0.66811715588E+01  0.30526711543E+02  0.44875371917E+02  0.00000000000E+00 0. -1.
         -2    1    1    2    0  502  0.27577976247E+02 -0.68151606848E+02  0.79789551736E+03  0.80127550999E+03  0.00000000000E+00 0.  1.
<mgrwt>
<rscale>  2 0.10818031E+03</rscale>
<asrwt>0</asrwt>
<pdfrwt beam="1">  1       21 0.22404967E+00 0.10818031E+03</pdfrwt>
<pdfrwt beam="2">  1       21 0.21148225E-02 0.10818031E+03</pdfrwt>
<totfact> 0.11339235E+05</totfact>
</mgrwt>
</event>
<event>
 5    1  0.1624116E+000  0.9227169E+02  0.7546771E-02  0.1297442E+00
         21   -1    0    0  503  502  0.00000000000E+00  0.00000000000E+00  0.25046550226E+02  0.25046550226E+02  0.00000000000E+00 0.  1.
         21   -1    0    0  501  503 -0.00000000000E+00 -0.00000000000E+00 -0.78234099009E+03  0.78234099009E+03  0.00000000000E+00 0.  1.
         24    1    1    2    0    0  0.57083865989E+02  0.39183511766E+02 -0.27991177561E+03  0.29935218962E+03  0.80419002446E+02 0.  1.
          1    1    1    2  501    0 -0.36639784463E+02 -0.44162820105E+02 -0.48288782569E+03  0.48628539016E+03  0.00000000000E+00 0. -1.
         -2    1    1    2    0  502 -0.20444081526E+02  0.49793083391E+01  0.55051614325E+01  0.21749960538E+02  0.00000000000E+00 0.  1.
<mgrwt>
<rscale>  2 0.92271685E+02</rscale>
<asrwt>0</asrwt>
<pdfrwt beam="1">  1       21 0.38533158E-02 0.92271685E+02</pdfrwt>
<pdfrwt beam="2">  1       21 0.12036014E+00 0.92271685E+02</pdfrwt>
<totfact> 0.22633204E+05</totfact>
</mgrwt>
</event>
<event>
 5    1  0.1624116E+000  0.1303055E+03  0.7546771E-02  0.1227003E+00
         21   -1    0    0  501  502  0.00000000000E+00  0.00000000000E+00  0.14333607238E+02  0.14333607238E+02  0.00000000000E+00 0.  1.
         21   -1    0    0  502  503 -0.00000000000E+00 -0.00000000000E+00 -0.11901148139E+04  0.11901148139E+04  0.00000000000E+00 0.  1.
         24    1    1    2    0    0 -0.10841784356E+03 -0.27080481303E+02 -0.62598108341E+03  0.64094252005E+03  0.80419002446E+02 0.  1.
          1    1    1    2  501    0  0.79194229287E+02 -0.52315605177E+01 -0.32781210472E+03  0.33728307277E+03  0.00000000000E+00 0. -1.
         -2    1    1    2    0  503  0.29223614275E+02  0.32312041821E+02 -0.22198801850E+03  0.22622282828E+03  0.00000000000E+00 0.  1.
<mgrwt>
<rscale>  2 0.13030552E+03</rscale>
<asrwt>0</asrwt>
<pdfrwt beam="1">  1       21 0.22051692E-02 0.13030552E+03</pdfrwt>
<pdfrwt beam="2">  1       21 0.18309468E+00 0.13030552E+03</pdfrwt>
<totfact> 0.18757092E+05</totfact>
</mgrwt>
</event>
<event>
 5    1  0.1624116E+000  0.7305026E+02  0.7546771E-02  0.1350017E+00
         21   -1    0    0  501  502  0.00000000000E+00  0.00000000000E+00  0.15151820121E+04  0.15151820121E+04  0.00000000000E+00 0. -1.
         21   -1    0    0  502  503 -0.00000000000E+00 -0.00000000000E+00 -0.43547429749E+01  0.43547429749E+01  0.00000000000E+00 0.  1.
         24    1    1    2    0    0 -0.95470073436E+01 -0.20382900976E+02  0.70838346897E+03  0.71328883565E+03  0.80419002446E+02 0.  1.
          1    1    1    2  501    0 -0.17878909504E+02 -0.10938201514E+02  0.54961061126E+03  0.55001011234E+03  0.00000000000E+00 0. -1.
         -2    1    1    2    0  503  0.27425916847E+02  0.31321102490E+02  0.25283318889E+03  0.25623780709E+03  0.00000000000E+00 0.  1.
<mgrwt>
<rscale>  2 0.73050264E+02</rscale>
<asrwt>0</asrwt>
<pdfrwt beam="1">  1       21 0.23310450E+00 0.73050264E+02</pdfrwt>
<pdfrwt beam="2">  1       21 0.66996167E-03 0.73050264E+02</pdfrwt>
<totfact> 0.63070392E+05</totfact>
</mgrwt>
</event>
<event>
 5    1  0.1624116E+000  0.7953486E+02  0.7546771E-02  0.1330377E+00
         21   -1    0    0  501  502  0.00000000000E+00  0.00000000000E+00  0.26154613698E+02  0.26154613698E+02  0.00000000000E+00 0. -1.
         21   -1    0    0  502  503 -0.00000000000E+00 -0.00000000000E+00 -0.26782673545E+03  0.26782673545E+03  0.00000000000E+00 0. -1.
         24    1    1    2    0    0  0.38520246998E+02  0.26040492649E+02 -0.98000737374E+02  0.13503065269E+03  0.80419002446E+02 0. -1.
          1    1    1    2  501    0 -0.20047521038E+02 -0.38836004147E+02 -0.11102847835E+03  0.11932083357E+03  0.00000000000E+00 0. -1.
         -2    1    1    2    0  503 -0.18472725960E+02  0.12795511498E+02 -0.32642906028E+02  0.39629862892E+02  0.00000000000E+00 0.  1.
<mgrwt>
<rscale>  2 0.79534859E+02</rscale>
<asrwt>0</asrwt>
<pdfrwt beam="1">  1       21 0.40237867E-02 0.79534859E+02</pdfrwt>
<pdfrwt beam="2">  1       21 0.41204114E-01 0.79534859E+02</pdfrwt>
<totfact> 0.21524795E+06</totfact>
</mgrwt>
</event>
<event>
 5    1  0.1624116E+000  0.1479247E+03  0.7546771E-02  0.1203047E+00
         21   -1    0    0  501  502  0.00000000000E+00  0.00000000000E+00  0.19916017279E+02  0.19916017279E+02  0.00000000000E+00 0. -1.
         21   -1    0    0  502  503 -0.00000000000E+00 -0.00000000000E+00 -0.11489113389E+04  0.11489113389E+04  0.00000000000E+00 0. -1.
         24    1    1    2    0    0 -0.57577074203E+02  0.10557233039E+03 -0.52545020623E+03  0.54500070788E+03  0.80419002446E+02 0. -1.
          1    1    1    2  501    0  0.35895002237E+02 -0.11992565586E+03 -0.41417002209E+03  0.43267472923E+03  0.00000000000E+00 0. -1.
         -2    1    1    2    0  503  0.21682071965E+02  0.14353325466E+02 -0.18937509333E+03  0.19115191909E+03  0.00000000000E+00 0.  1.
<mgrwt>
<rscale>  2 0.14792472E+03</rscale>
<asrwt>0</asrwt>
<pdfrwt beam="1">  1       21 0.30640021E-02 0.14792472E+03</pdfrwt>
<pdfrwt beam="2">  1       21 0.17675562E+00 0.14792472E+03</pdfrwt>
<totfact> 0.11977953E+05</totfact>
</mgrwt>
</event>
<event>
 5    1  0.1624116E+000  0.1068614E+03  0.7546771E-02  0.1266495E+00
         21   -1    0    0  501  502  0.00000000000E+00  0.00000000000E+00  0.33933507496E+02  0.33933507496E+02  0.00000000000E+00 0. -1.
         21   -1    0    0  502  503 -0.00000000000E+00 -0.00000000000E+00 -0.34944858141E+03  0.34944858141E+03  0.00000000000E+00 0. -1.
         24    1    1    2    0    0 -0.66763502871E+02  0.43020345615E+02 -0.16770262275E+03  0.20223625067E+03  0.80419002446E+02 0. -1.
          1    1    1    2  501    0  0.50795463014E+02 -0.59170943632E+02 -0.90306481486E+02  0.11931739283E+03  0.00000000000E+00 0. -1.
         -2    1    1    2    0  503  0.15968039857E+02  0.16150598017E+02 -0.57505969674E+02  0.61828445406E+02  0.00000000000E+00 0.  1.
<mgrwt>
<rscale>  2 0.10686144E+03</rscale>
<asrwt>0</asrwt>
<pdfrwt beam="1">  1       21 0.52205398E-02 0.10686144E+03</pdfrwt>
<pdfrwt beam="2">  1       21 0.53761318E-01 0.10686144E+03</pdfrwt>
<totfact> 0.82121218E+05</totfact>
</mgrwt>
</event>
<event>
 5    1  0.1624116E+000  0.8283589E+02  0.7546771E-02  0.1321191E+00
         21   -1    0    0  503  502  0.00000000000E+00  0.00000000000E+00  0.83316004838E+02  0.83316004838E+02  0.00000000000E+00 0.  1.
         21   -1    0    0  501  503 -0.00000000000E+00 -0.00000000000E+00 -0.44718367069E+03  0.44718367069E+03  0.00000000000E+00 0. -1.
         24    1    1    2    0    0 -0.32914506687E+02  0.19293850159E+02 -0.23594893533E+03  0.25217996242E+03  0.80419002446E+02 0.  0.
          1    1    1    2  501    0  0.24890285712E+02  0.22833250743E+02 -0.19543653798E+03  0.19833387013E+03  0.00000000000E+00 0. -1.
         -2    1    1    2    0  502  0.80242209750E+01 -0.42127100902E+02  0.67517807464E+02  0.79985842982E+02  0.00000000000E+00 0.  1.
<mgrwt>
<rscale>  2 0.82835887E+02</rscale>
<asrwt>0</asrwt>
<pdfrwt beam="1">  1       21 0.12817847E-01 0.82835887E+02</pdfrwt>
<pdfrwt beam="2">  1       21 0.68797488E-01 0.82835887E+02</pdfrwt>
<totfact> 0.10521985E+05</totfact>
</mgrwt>
</event>
<event>
 5    1  0.1624116E+000  0.1071282E+03  0.7546771E-02  0.1265982E+00
         21   -1    0    0  501  502  0.00000000000E+00  0.00000000000E+00  0.21717660621E+03  0.21717660621E+03  0.00000000000E+00 0. -1.
         21   -1    0    0  502  503 -0.00000000000E+00 -0.00000000000E+00 -0.97147078081E+02  0.97147078081E+02  0.00000000000E+00 0. -1.
         24    1    1    2    0    0  0.30034931460E+02 -0.16680118612E+02  0.61677137880E+02  0.10701218976E+03  0.80419002446E+02 0. -1.
          1    1    1    2  501    0 -0.39607934397E+02  0.65778764099E+02  0.11081866072E+03  0.13481991633E+03  0.00000000000E+00 0. -1.
         -2    1    1    2    0  503  0.95730029367E+01 -0.49098645487E+02 -0.52466270475E+02  0.72491578210E+02  0.00000000000E+00 0.  1.
<mgrwt>
<rscale>  2 0.10712822E+03</rscale>
<asrwt>0</asrwt>
<pdfrwt beam="1">  1       21 0.33411786E-01 0.10712822E+03</pdfrwt>
<pdfrwt beam="2">  1       21 0.14945704E-01 0.10712822E+03</pdfrwt>
<totfact> 0.34587794E+05</totfact>
</mgrwt>
</event>
<event>
 5    1  0.1624116E+000  0.1147374E+03  0.7546771E-02  0.1252040E+00
         21   -1    0    0  503  502  0.00000000000E+00  0.00000000000E+00  0.15747428922E+04  0.15747428922E+04  0.00000000000E+00 0.  1.
         21   -1    0    0  501  503 -0.00000000000E+00 -0.00000000000E+00 -0.91785694968E+01  0.91785694968E+01  0.00000000000E+00 0. -1.
         24    1    1    2    0    0  0.37401203767E+02 -0.89012285165E+02  0.77390875572E+03  0.78404337577E+03  0.80419002446E+02 0. -1.
          1    1    1    2  501    0  0.71949461868E+01  0.23438709794E+02  0.76351059470E+02  0.80191175634E+02  0.00000000000E+00 0. -1.
         -2    1    1    2    0  502 -0.44596149954E+02  0.65573575371E+02  0.71530450747E+03  0.71968691025E+03  0.00000000000E+00 0.  1.
<mgrwt>
<rscale>  2 0.11473742E+03</rscale>
<asrwt>0</asrwt>
<pdfrwt beam="1">  1       21 0.24226792E+00 0.11473742E+03</pdfrwt>
<pdfrwt beam="2">  1       21 0.14120889E-02 0.11473742E+03</pdfrwt>
<totfact> 0.16857865E+05</totfact>
</mgrwt>
</event>
<event>
 5    1  0.1624116E+000  0.1186250E+03  0.7546771E-02  0.1245383E+00
         21   -1    0    0  503  502  0.00000000000E+00  0.00000000000E+00  0.10423482466E+03  0.10423482466E+03  0.00000000000E+00 0.  1.
         21   -1    0    0  501  503 -0.00000000000E+00 -0.00000000000E+00 -0.10331553955E+04  0.10331553955E+04  0.00000000000E+00 0. -1.
         24    1    1    2    0    0 -0.23119645431E+02 -0.64539920615E+02 -0.13213979417E+03  0.16919828757E+03  0.80419002446E+02 0.  0.
          1    1    1    2  501    0  0.64662982158E+02  0.14015305198E+02 -0.86856169630E+03  0.87107815397E+03  0.00000000000E+00 0. -1.
         -2    1    1    2    0  502 -0.41543336727E+02  0.50524615418E+02  0.71780919591E+02  0.97113778666E+02  0.00000000000E+00 0.  1.
<mgrwt>
<rscale>  2 0.11862499E+03</rscale>
<asrwt>0</asrwt>
<pdfrwt beam="1">  1       21 0.16036127E-01 0.11862499E+03</pdfrwt>
<pdfrwt beam="2">  1       21 0.15894698E+00 0.11862499E+03</pdfrwt>
<totfact> 0.95157483E+03</totfact>
</mgrwt>
</event>
<event>
 5    1  0.1624116E+000  0.7938251E+02  0.7546771E-02  0.1330813E+00
         21   -1    0    0  501  502  0.00000000000E+00  0.00000000000E+00  0.18885914338E+02  0.18885914338E+02  0.00000000000E+00 0.  1.
         21   -1    0    0  502  503 -0.00000000000E+00 -0.00000000000E+00 -0.36483672672E+03  0.36483672672E+03  0.00000000000E+00 0. -1.
         24    1    1    2    0    0 -0.16914354205E+01  0.50173934744E+02 -0.17909464089E+03  0.20263857242E+03  0.80419002446E+02 0.  0.
          1    1    1    2  501    0  0.20676016586E+02 -0.26888119953E+02 -0.49940557598E+02  0.60369925871E+02  0.00000000000E+00 0. -1.
         -2    1    1    2    0  503 -0.18984581165E+02 -0.23285814791E+02 -0.11691561389E+03  0.12071414277E+03  0.00000000000E+00 0.  1.
<mgrwt>
<rscale>  2 0.79382507E+02</rscale>
<asrwt>0</asrwt>
<pdfrwt beam="1">  1       21 0.29055250E-02 0.79382507E+02</pdfrwt>
<pdfrwt beam="2">  1       21 0.56128733E-01 0.79382507E+02</pdfrwt>
<totfact> 0.19575469E+06</totfact>
</mgrwt>
</event>
<event>
 5    1  0.1624116E+000  0.6389727E+02  0.7546771E-02  0.1382168E+00
         21   -1    0    0  501  502  0.00000000000E+00  0.00000000000E+00  0.13725113301E+02  0.13725113301E+02  0.00000000000E+00 0.  1.
         21   -1    0    0  502  503 -0.00000000000E+00 -0.00000000000E+00 -0.67856226389E+03  0.67856226389E+03  0.00000000000E+00 0.  1.
         24    1    1    2    0    0 -0.89680429674E+00  0.29072911656E+02 -0.18151471422E+03  0.20065105503E+03  0.80419002446E+02 0.  1.
          1    1    1    2  501    0 -0.14892676769E+02 -0.14693325922E+02 -0.24084841456E+02  0.31902433073E+02  0.00000000000E+00 0. -1.
         -2    1    1    2    0  503  0.15789481066E+02 -0.14379585734E+02 -0.45923759492E+03  0.45973388910E+03  0.00000000000E+00 0.  1.
<mgrwt>
<rscale>  2 0.63897270E+02</rscale>
<asrwt>0</asrwt>
<pdfrwt beam="1">  1       21 0.21115555E-02 0.63897270E+02</pdfrwt>
<pdfrwt beam="2">  1       21 0.10439421E+00 0.63897270E+02</pdfrwt>
<totfact> 0.83968330E+05</totfact>
</mgrwt>
</event>
<event>
 5    1  0.1624116E+000  0.1021309E+03  0.7546771E-02  0.1275878E+00
         21   -1    0    0  503  502  0.00000000000E+00  0.00000000000E+00  0.35367578272E+03  0.35367578272E+03  0.00000000000E+00 0.  1.
         21   -1    0    0  501  503 -0.00000000000E+00 -0.00000000000E+00 -0.31402659948E+02  0.31402659948E+02  0.00000000000E+00 0.  1.
         24    1    1    2    0    0 -0.71844104120E+02 -0.33595497190E+02  0.15372233564E+03  0.19075640267E+03  0.80419002446E+02 0.  1.
          1    1    1    2  501    0  0.24753959611E+02 -0.10417394813E+02  0.23863875218E+02  0.35927220482E+02  0.00000000000E+00 0. -1.
         -2    1    1    2    0  502  0.47090144509E+02  0.44012892003E+02  0.14468691191E+03  0.15839481952E+03  0.00000000000E+00 0.  1.
<mgrwt>
<rscale>  2 0.10213093E+03</rscale>
<asrwt>0</asrwt>
<pdfrwt beam="1">  1       21 0.54411656E-01 0.10213093E+03</pdfrwt>
<pdfrwt beam="2">  1       21 0.48311787E-02 0.10213093E+03</pdfrwt>
<totfact> 0.91139808E+05</totfact>
</mgrwt>
</event>
<event>
 5    1  0.1624116E+000  0.1323726E+03  0.7546771E-02  0.1223977E+00
         21   -1    0    0  501  502  0.00000000000E+00  0.00000000000E+00  0.60526023865E+03  0.60526023865E+03  0.00000000000E+00 0. -1.
         21   -1    0    0  502  503 -0.00000000000E+00 -0.00000000000E+00 -0.99797300623E+02  0.99797300623E+02  0.00000000000E+00 0.  1.
         24    1    1    2    0    0  0.97379271428E+02 -0.14302911455E+02  0.29346623109E+03  0.31980766176E+03  0.80419002446E+02 0. -1.
          1    1    1    2  501    0 -0.11554428320E+03  0.17373894728E+01  0.28576531468E+03  0.30824554332E+03  0.00000000000E+00 0. -1.
         -2    1    1    2    0  503  0.18165011771E+02  0.12565521982E+02 -0.73768607743E+02  0.77004334188E+02  0.00000000000E+00 0.  1.
<mgrwt>
<rscale>  2 0.13237265E+03</rscale>
<asrwt>0</asrwt>
<pdfrwt beam="1">  1       21 0.93116958E-01 0.13237265E+03</pdfrwt>
<pdfrwt beam="2">  1       21 0.15353431E-01 0.13237265E+03</pdfrwt>
<totfact> 0.37763191E+04</totfact>
</mgrwt>
</event>
<event>
 5    1  0.1624116E+000  0.8114622E+02  0.7546771E-02  0.1325830E+00
         21   -1    0    0  503  502  0.00000000000E+00  0.00000000000E+00  0.67526104519E+02  0.67526104519E+02  0.00000000000E+00 0. -1.
         21   -1    0    0  501  503 -0.00000000000E+00 -0.00000000000E+00 -0.12866277929E+03  0.12866277929E+03  0.00000000000E+00 0.  1.
         24    1    1    2    0    0  0.60972808141E+02  0.15065573955E+01 -0.69916855339E+02  0.12278247295E+03  0.80419002446E+02 0. -1.
          1    1    1    2  501    0 -0.34723785149E+02 -0.41874418187E+01 -0.14839561946E+02  0.37993269440E+02  0.00000000000E+00 0. -1.
         -2    1    1    2    0  502 -0.26249022992E+02  0.26808844232E+01  0.23619742511E+02  0.35413141426E+02  0.00000000000E+00 0.  1.
<mgrwt>
<rscale>  2 0.81146220E+02</rscale>
<asrwt>0</asrwt>
<pdfrwt beam="1">  1       21 0.10388631E-01 0.81146220E+02</pdfrwt>
<pdfrwt beam="2">  1       21 0.19794274E-01 0.81146220E+02</pdfrwt>
<totfact> 0.17510021E+06</totfact>
</mgrwt>
</event>
<event>
 5    1  0.1624116E+000  0.1204981E+03  0.7546771E-02  0.1242278E+00
         21   -1    0    0  501  502  0.00000000000E+00  0.00000000000E+00  0.10458991171E+03  0.10458991171E+03  0.00000000000E+00 0.  1.
         21   -1    0    0  502  503 -0.00000000000E+00 -0.00000000000E+00 -0.16982888517E+03  0.16982888517E+03  0.00000000000E+00 0.  1.
         24    1    1    2    0    0 -0.53571955036E+02  0.78385636849E+02  0.12632677288E+02  0.12506423518E+03  0.80419002446E+02 0.  1.
          1    1    1    2  501    0  0.36188603069E+02  0.95167504585E-01  0.17259611763E+01  0.36229863248E+02  0.00000000000E+00 0. -1.
         -2    1    1    2    0  503  0.17383351967E+02 -0.78480804353E+02 -0.79597611922E+02  0.11312469846E+03  0.00000000000E+00 0.  1.
<mgrwt>
<rscale>  2 0.12049813E+03</rscale>
<asrwt>0</asrwt>
<pdfrwt beam="1">  1       21 0.16090756E-01 0.12049813E+03</pdfrwt>
<pdfrwt beam="2">  1       21 0.26127521E-01 0.12049813E+03</pdfrwt>
<totfact> 0.48469765E+05</totfact>
</mgrwt>
</event>
<event>
 5    1  0.1624116E+000  0.7447101E+02  0.7546771E-02  0.1345517E+00
         21   -1    0    0  503  502  0.00000000000E+00  0.00000000000E+00  0.29494227649E+03  0.29494227649E+03  0.00000000000E+00 0.  1.
         21   -1    0    0  501  503 -0.00000000000E+00 -0.00000000000E+00 -0.38572806323E+02  0.38572806323E+02  0.00000000000E+00 0. -1.
         24    1    1    2    0    0  0.40971604218E+02 -0.97511049271E+01  0.10271575615E+03  0.13708208824E+03  0.80419002446E+02 0.  1.
          1    1    1    2  501    0 -0.13446114807E+02 -0.15701705057E+02 -0.13786087851E+02  0.24847490081E+02  0.00000000000E+00 0. -1.
         -2    1    1    2    0  502 -0.27525489411E+02  0.25452809984E+02  0.16743980187E+03  0.17158550449E+03  0.00000000000E+00 0.  1.
<mgrwt>
<rscale>  2 0.74471008E+02</rscale>
<asrwt>0</asrwt>
<pdfrwt beam="1">  1       21 0.45375733E-01 0.74471008E+02</pdfrwt>
<pdfrwt beam="2">  1       21 0.59342781E-02 0.74471008E+02</pdfrwt>
<totfact> 0.93188969E+05</totfact>
</mgrwt>
</event>
<event>
 5    1  0.1624116E+000  0.1000884E+03  0.7546771E-02  0.1280110E+00
         21   -1    0    0  501  502  0.00000000000E+00  0.00000000000E+00  0.89337143068E+03  0.89337143068E+03  0.00000000000E+00 0. -1.
         21   -1    0    0  502  503 -0.00000000000E+00 -0.00000000000E+00 -0.22958457948E+02  0.22958457948E+02  0.00000000000E+00 0. -1.
         24    1    1    2    0    0 -0.29055727713E+02 -0.78653055530E+02  0.43942005041E+03  0.45451923514E+03  0.80419002446E+02 0. -1.
          1    1    1    2  501    0  0.22453136162E+02  0.54165894502E+02  0.43245011421E+03  0.43640713643E+03  0.00000000000E+00 0. -1.
         -2    1    1    2    0  503  0.66025915515E+01  0.24487161028E+02 -0.14571918882E+01  0.25403517052E+02  0.00000000000E+00 0.  1.
<mgrwt>
<rscale>  2 0.10008837E+03</rscale>
<asrwt>0</asrwt>
<pdfrwt beam="1">  1       21 0.13744173E+00 0.10008837E+03</pdfrwt>
<pdfrwt beam="2">  1       21 0.35320712E-02 0.10008837E+03</pdfrwt>
<totfact> 0.18791155E+05</totfact>
</mgrwt>
</event>
<event>
 5    1  0.1624116E+000  0.8258718E+02  0.7546771E-02  0.1321866E+00
         21   -1    0    0  503  502  0.00000000000E+00  0.00000000000E+00  0.13475233628E+03  0.13475233628E+03  0.00000000000E+00 0.  1.
         21   -1    0    0  501  503 -0.00000000000E+00 -0.00000000000E+00 -0.87750947194E+03  0.87750947194E+03  0.00000000000E+00 0. -1.
         24    1    1    2    0    0  0.16010447557E+02  0.24739199214E+02 -0.46774699245E+03  0.47552374000E+03  0.80419002446E+02 0. -1.
          1    1    1    2  501    0 -0.32828958424E+02  0.15209968734E+02 -0.40144885623E+03  0.40307600750E+03  0.00000000000E+00 0. -1.
         -2    1    1    2    0  502  0.16818510867E+02 -0.39949167947E+02  0.12643871301E+03  0.13366206072E+03  0.00000000000E+00 0.  1.
<mgrwt>
<rscale>  2 0.82587180E+02</rscale>
<asrwt>0</asrwt>
<pdfrwt beam="1">  1       21 0.20731129E-01 0.82587180E+02</pdfrwt>
<pdfrwt beam="2">  1       21 0.13500146E+00 0.82587180E+02</pdfrwt>
<totfact> 0.94723581E+03</totfact>
</mgrwt>
</event>
<event>
 5    1  0.2415318E+000  0.8412080E+02  0.7546771E-02  0.1317748E+00
         21   -1    0    0  501  502  0.00000000000E+00  0.00000000000E+00  0.96027453109E+03  0.96027453109E+03  0.00000000000E+00 0. -1.
         21   -1    0    0  502  503 -0.00000000000E+00 -0.00000000000E+00 -0.20200605561E+03  0.20200605561E+03  0.00000000000E+00 0.  1.
         24    1    1    2    0    0  0.21681018100E+02 -0.19652879674E+01  0.25059079285E+03  0.26407743243E+03  0.80419002446E+02 0.  0.
          1    1    1    2  501    0  0.24020375222E+02 -0.22653488379E+02  0.69909379331E+03  0.69987305335E+03  0.00000000000E+00 0. -1.
         -2    1    1    2    0  503 -0.45701393322E+02  0.24618776347E+02 -0.19141611068E+03  0.19833010092E+03  0.00000000000E+00 0.  1.
<mgrwt>
<rscale>  2 0.84120802E+02</rscale>
<asrwt>0</asrwt>
<pdfrwt beam="1">  1       21 0.14773454E+00 0.84120802E+02</pdfrwt>
<pdfrwt beam="2">  1       21 0.31077855E-01 0.84120802E+02</pdfrwt>
<totfact> 0.35357074E+03</totfact>
</mgrwt>
</event>
<event>
 5    1  0.1624116E+000  0.1522871E+03  0.7546771E-02  0.1197690E+00
         21   -1    0    0  503  502  0.00000000000E+00  0.00000000000E+00  0.15153926503E+03  0.15153926503E+03  0.00000000000E+00 0.  1.
         21   -1    0    0  501  503 -0.00000000000E+00 -0.00000000000E+00 -0.40559931594E+03  0.40559931594E+03  0.00000000000E+00 0. -1.
         24    1    1    2    0    0  0.67200559647E+02  0.77838442787E+02 -0.20952121138E+02  0.13221552756E+03  0.80419002446E+02 0.  1.
          1    1    1    2  501    0  0.42796019812E+02 -0.74509884855E+01 -0.28211563892E+03  0.28544044959E+03  0.00000000000E+00 0. -1.
         -2    1    1    2    0  502 -0.10999657946E+03 -0.70387454302E+02  0.49007709146E+02  0.13948260383E+03  0.00000000000E+00 0.  1.
<mgrwt>
<rscale>  2 0.15228712E+03</rscale>
<asrwt>0</asrwt>
<pdfrwt beam="1">  1       21 0.23313733E-01 0.15228712E+03</pdfrwt>
<pdfrwt beam="2">  1       21 0.62399894E-01 0.15228712E+03</pdfrwt>
<totfact> 0.42066153E+04</totfact>
</mgrwt>
</event>
<event>
 5    1  0.1624116E+000  0.9207021E+02  0.7546771E-02  0.1297914E+00
         21   -1    0    0  501  502  0.00000000000E+00  0.00000000000E+00  0.56173671515E+03  0.56173671515E+03  0.00000000000E+00 0. -1.
         21   -1    0    0  502  503 -0.00000000000E+00 -0.00000000000E+00 -0.15854194818E+02  0.15854194818E+02  0.00000000000E+00 0. -1.
         24    1    1    2    0    0 -0.25521273400E+02  0.64095803267E+02  0.25095624930E+03  0.27240753001E+03  0.80419002446E+02 0. -1.
          1    1    1    2  501    0  0.22967185213E+01 -0.51901730219E+02  0.20764625746E+03  0.21404680038E+03  0.00000000000E+00 0. -1.
         -2    1    1    2    0  503  0.23224554879E+02 -0.12194073049E+02  0.87280013579E+02  0.91136579578E+02  0.00000000000E+00 0.  1.
<mgrwt>
<rscale>  2 0.92070209E+02</rscale>
<asrwt>0</asrwt>
<pdfrwt beam="1">  1       21 0.86421018E-01 0.92070209E+02</pdfrwt>
<pdfrwt beam="2">  1       21 0.24391073E-02 0.92070209E+02</pdfrwt>
<totfact> 0.10290762E+06</totfact>
</mgrwt>
</event>
<event>
 5    1  0.1624116E+000  0.1052289E+03  0.7546771E-02  0.1269669E+00
         21   -1    0    0  501  502  0.00000000000E+00  0.00000000000E+00  0.12061223977E+04  0.12061223977E+04  0.00000000000E+00 0.  1.
         21   -1    0    0  502  503 -0.00000000000E+00 -0.00000000000E+00 -0.24737870724E+02  0.24737870724E+02  0.00000000000E+00 0.  1.
         24    1    1    2    0    0  0.63937063922E+02 -0.92198999464E+01  0.10020540516E+03  0.14380992273E+03  0.80419002446E+02 0.  1.
          1    1    1    2  501    0  0.21273394319E+02 -0.19706677567E+01  0.38403919331E+03  0.38463299759E+03  0.00000000000E+00 0. -1.
         -2    1    1    2    0  503 -0.85210458241E+02  0.11190567703E+02  0.69713992852E+03  0.70241734811E+03  0.00000000000E+00 0.  1.
<mgrwt>
<rscale>  2 0.10522891E+03</rscale>
<asrwt>0</asrwt>
<pdfrwt beam="1">  1       21 0.18555725E+00 0.10522891E+03</pdfrwt>
<pdfrwt beam="2">  1       21 0.38058272E-02 0.10522891E+03</pdfrwt>
<totfact> 0.75342463E+04</totfact>
</mgrwt>
</event>
<event>
 5    1  0.1624116E+000  0.9083997E+02  0.7546771E-02  0.1300830E+00
         21   -1    0    0  501  502  0.00000000000E+00  0.00000000000E+00  0.11169467384E+03  0.11169467384E+03  0.00000000000E+00 0. -1.
         21   -1    0    0  502  503 -0.00000000000E+00 -0.00000000000E+00 -0.20591379333E+03  0.20591379333E+03  0.00000000000E+00 0.  1.
         24    1    1    2    0    0  0.40969548707E+02  0.13404817574E+02  0.27605301038E+01  0.91285428937E+02  0.80419002446E+02 0.  1.
          1    1    1    2  501    0  0.14547377679E+02  0.20685112065E+02  0.55237159321E+02  0.60750669366E+02  0.00000000000E+00 0. -1.
         -2    1    1    2    0  503 -0.55516926386E+02 -0.34089929640E+02 -0.15221680891E+03  0.16557236887E+03  0.00000000000E+00 0.  1.
<mgrwt>
<rscale>  2 0.90839972E+02</rscale>
<asrwt>0</asrwt>
<pdfrwt beam="1">  1       21 0.17183796E-01 0.90839972E+02</pdfrwt>
<pdfrwt beam="2">  1       21 0.31679045E-01 0.90839972E+02</pdfrwt>
<totfact> 0.29902767E+05</totfact>
</mgrwt>
</event>
<event>
 5    1  0.1624116E+000  0.6837498E+02  0.7546771E-02  0.1365708E+00
         21   -1    0    0  501  502  0.00000000000E+00  0.00000000000E+00  0.17814355112E+03  0.17814355112E+03  0.00000000000E+00 0.  1.
         21   -1    0    0  502  503 -0.00000000000E+00 -0.00000000000E+00 -0.86946471343E+02  0.86946471343E+02  0.00000000000E+00 0.  1.
         24    1    1    2    0    0 -0.87072799459E+01 -0.32415568514E+02  0.14966292680E+03  0.17318427590E+03  0.80419002446E+02 0.  1.
          1    1    1    2  501    0 -0.11373946962E+02  0.26238642682E+02  0.12263742084E+01  0.28624063879E+02  0.00000000000E+00 0. -1.
         -2    1    1    2    0  503  0.20081226908E+02  0.61769258323E+01 -0.59692221235E+02  0.63281682680E+02  0.00000000000E+00 0.  1.
<mgrwt>
<rscale>  2 0.68374982E+02</rscale>
<asrwt>0</asrwt>
<pdfrwt beam="1">  1       21 0.27406700E-01 0.68374982E+02</pdfrwt>
<pdfrwt beam="2">  1       21 0.13376380E-01 0.68374982E+02</pdfrwt>
<totfact> 0.61492131E+05</totfact>
</mgrwt>
</event>
<event>
 5    1  0.1624116E+000  0.8401475E+02  0.7546771E-02  0.1318029E+00
         21   -1    0    0  501  502  0.00000000000E+00  0.00000000000E+00  0.10835284793E+03  0.10835284793E+03  0.00000000000E+00 0. -1.
         21   -1    0    0  502  503 -0.00000000000E+00 -0.00000000000E+00 -0.92684586979E+02  0.92684586979E+02  0.00000000000E+00 0.  1.
         24    1    1    2    0    0  0.87080739569E+01  0.10811090951E+02  0.24514521084E+02  0.85210844016E+02  0.80419002446E+02 0.  0.
          1    1    1    2  501    0  0.67264894474E+01  0.36262848219E+02  0.34124881774E+02  0.50246864354E+02  0.00000000000E+00 0. -1.
         -2    1    1    2    0  503 -0.15434563404E+02 -0.47073939170E+02 -0.42971141905E+02  0.65579726540E+02  0.00000000000E+00 0.  1.
<mgrwt>
<rscale>  2 0.84014748E+02</rscale>
<asrwt>0</asrwt>
<pdfrwt beam="1">  1       21 0.16669669E-01 0.84014748E+02</pdfrwt>
<pdfrwt beam="2">  1       21 0.14259167E-01 0.84014748E+02</pdfrwt>
<totfact> 0.13734764E+06</totfact>
</mgrwt>
</event>
<event>
 5    1  0.2991599E+000  0.9457687E+02  0.7546771E-02  0.1292132E+00
         21   -1    0    0  503  502  0.00000000000E+00  0.00000000000E+00  0.34790689811E+03  0.34790689811E+03  0.00000000000E+00 0.  1.
         21   -1    0    0  501  503 -0.00000000000E+00 -0.00000000000E+00 -0.22257271192E+03  0.22257271192E+03  0.00000000000E+00 0. -1.
         24    1    1    2    0    0 -0.40190523268E+02 -0.15522869946E+02  0.14696657701E+03  0.17298158389E+03  0.80419002446E+02 0.  1.
          1    1    1    2  501    0  0.34354814867E+02 -0.33835135266E+02 -0.20341051649E+03  0.20904762114E+03  0.00000000000E+00 0. -1.
         -2    1    1    2    0  502  0.58357084009E+01  0.49358005212E+02  0.18177812567E+03  0.18845040500E+03  0.00000000000E+00 0.  1.
<mgrwt>
<rscale>  2 0.94576866E+02</rscale>
<asrwt>0</asrwt>
<pdfrwt beam="1">  1       21 0.53524138E-01 0.94576866E+02</pdfrwt>
<pdfrwt beam="2">  1       21 0.34241956E-01 0.94576866E+02</pdfrwt>
<totfact> 0.28958994E+04</totfact>
</mgrwt>
</event>
<event>
 5    1  0.1624116E+000  0.7442512E+02  0.7546771E-02  0.1345661E+00
         21   -1    0    0  503  502  0.00000000000E+00  0.00000000000E+00  0.21401764367E+04  0.21401764367E+04  0.00000000000E+00 0. -1.
         21   -1    0    0  501  503 -0.00000000000E+00 -0.00000000000E+00 -0.35688204188E+01  0.35688204188E+01  0.00000000000E+00 0.  1.
         24    1    1    2    0    0  0.25335851309E+02  0.40663521048E+02  0.87921472147E+03  0.88418390039E+03  0.80419002446E+02 0.  0.
          1    1    1    2  501    0 -0.22776476259E+02 -0.10692988043E+02  0.18015987373E+03  0.18190846040E+03  0.00000000000E+00 0. -1.
         -2    1    1    2    0  502 -0.25593750499E+01 -0.29970533005E+02  0.10772330211E+04  0.10776528963E+04  0.00000000000E+00 0.  1.
<mgrwt>
<rscale>  2 0.74425121E+02</rscale>
<asrwt>0</asrwt>
<pdfrwt beam="1">  1       21 0.32925689E+00 0.74425121E+02</pdfrwt>
<pdfrwt beam="2">  1       21 0.54905101E-03 0.74425121E+02</pdfrwt>
<totfact> 0.25521608E+05</totfact>
</mgrwt>
</event>
<event>
 5    1  0.1624116E+000  0.8993527E+02  0.7546771E-02  0.1303009E+00
         21   -1    0    0  501  502  0.00000000000E+00  0.00000000000E+00  0.24063460966E+03  0.24063460966E+03  0.00000000000E+00 0. -1.
         21   -1    0    0  502  503 -0.00000000000E+00 -0.00000000000E+00 -0.90657277216E+02  0.90657277216E+02  0.00000000000E+00 0.  1.
         24    1    1    2    0    0  0.10194520170E+01 -0.43088576898E+01  0.40343653818E+02  0.90080141512E+02  0.80419002446E+02 0. -1.
          1    1    1    2  501    0 -0.66019690352E+01  0.51443627292E+02  0.16225721792E+03  0.17034505438E+03  0.00000000000E+00 0. -1.
         -2    1    1    2    0  503  0.55825170182E+01 -0.47134769602E+02 -0.52623539301E+02  0.70866690979E+02  0.00000000000E+00 0.  1.
<mgrwt>
<rscale>  2 0.89935270E+02</rscale>
<asrwt>0</asrwt>
<pdfrwt beam="1">  1       21 0.37020709E-01 0.89935270E+02</pdfrwt>
<pdfrwt beam="2">  1       21 0.13947274E-01 0.89935270E+02</pdfrwt>
<totfact> 0.32116402E+05</totfact>
</mgrwt>
</event>
<event>
 5    1  0.1624116E+000  0.7982323E+02  0.7546771E-02  0.1329554E+00
         21   -1    0    0  501  502  0.00000000000E+00  0.00000000000E+00  0.42042621932E+03  0.42042621932E+03  0.00000000000E+00 0. -1.
         21   -1    0    0  502  503 -0.00000000000E+00 -0.00000000000E+00 -0.36176760075E+02  0.36176760075E+02  0.00000000000E+00 0.  1.
         24    1    1    2    0    0  0.16174594151E+02 -0.22260847411E+02  0.44859463551E+02  0.96108013443E+02  0.80419002446E+02 0.  1.
          1    1    1    2  501    0  0.30801945687E+01 -0.24180251546E+02  0.28645634811E+03  0.28749158516E+03  0.00000000000E+00 0. -1.
         -2    1    1    2    0  503 -0.19254788719E+02  0.46441098957E+02  0.52933647577E+02  0.73003380790E+02  0.00000000000E+00 0.  1.
<mgrwt>
<rscale>  2 0.79823232E+02</rscale>
<asrwt>0</asrwt>
<pdfrwt beam="1">  1       21 0.64680953E-01 0.79823232E+02</pdfrwt>
<pdfrwt beam="2">  1       21 0.55656557E-02 0.79823232E+02</pdfrwt>
<totfact> 0.50033542E+05</totfact>
</mgrwt>
</event>
<event>
 5    1  0.1624116E+000  0.7316472E+02  0.7546771E-02  0.1349650E+00
         21   -1    0    0  501  502  0.00000000000E+00  0.00000000000E+00  0.44897872732E+01  0.44897872732E+01  0.00000000000E+00 0.  1.
         21   -1    0    0  502  503 -0.00000000000E+00 -0.00000000000E+00 -0.21862900911E+04  0.21862900911E+04  0.00000000000E+00 0.  1.
         24    1    1    2    0    0  0.16621719158E+02 -0.13717850703E+02 -0.68378431759E+03  0.68883428335E+03  0.80419002446E+02 0.  1.
          1    1    1    2  501    0  0.18259042733E+02  0.20591746782E+02 -0.10723343704E+03  0.11070872909E+03  0.00000000000E+00 0. -1.
         -2    1    1    2    0  503 -0.34880761891E+02 -0.68738960784E+01 -0.13907825492E+04  0.13912368660E+04  0.00000000000E+00 0.  1.
<mgrwt>
<rscale>  2 0.73164724E+02</rscale>
<asrwt>0</asrwt>
<pdfrwt beam="1">  1       21 0.69073856E-03 0.73164724E+02</pdfrwt>
<pdfrwt beam="2">  1       21 0.33635132E+00 0.73164724E+02</pdfrwt>
<totfact> 0.16454823E+05</totfact>
</mgrwt>
</event>
<event>
 5    1  0.1624116E+000  0.9698027E+02  0.7546771E-02  0.1286777E+00
         21   -1    0    0  503  502  0.00000000000E+00  0.00000000000E+00  0.77257810960E+01  0.77257810960E+01  0.00000000000E+00 0. -1.
         21   -1    0    0  501  503 -0.00000000000E+00 -0.00000000000E+00 -0.13008103815E+04  0.13008103815E+04  0.00000000000E+00 0. -1.
         24    1    1    2    0    0  0.52781949462E+01  0.55313990471E+02 -0.78942995767E+03  0.79545859157E+03  0.80419002446E+02 0. -1.
          1    1    1    2  501    0  0.32064090271E+02 -0.48671342558E+02 -0.25717515450E+03  0.26369691990E+03  0.00000000000E+00 0. -1.
         -2    1    1    2    0  502 -0.37342285217E+02 -0.66426479129E+01 -0.24647948824E+03  0.24938065113E+03  0.00000000000E+00 0.  1.
<mgrwt>
<rscale>  2 0.96980273E+02</rscale>
<asrwt>0</asrwt>
<pdfrwt beam="1">  1       21 0.11885822E-02 0.96980273E+02</pdfrwt>
<pdfrwt beam="2">  1       21 0.20012458E+00 0.96980273E+02</pdfrwt>
<totfact> 0.39867395E+05</totfact>
</mgrwt>
</event>
<event>
 5    1  0.1624116E+000  0.7617356E+02  0.7546771E-02  0.1340275E+00
         21   -1    0    0  503  502  0.00000000000E+00  0.00000000000E+00  0.19088665903E+03  0.19088665903E+03  0.00000000000E+00 0.  1.
         21   -1    0    0  501  503 -0.00000000000E+00 -0.00000000000E+00 -0.38481575531E+03  0.38481575531E+03  0.00000000000E+00 0. -1.
         24    1    1    2    0    0 -0.58635142062E+00  0.20590532121E+02 -0.57247433898E+02  0.10084046045E+03  0.80419002446E+02 0. -1.
          1    1    1    2  501    0 -0.27139361272E+02 -0.29619662379E+02 -0.30317980338E+03  0.30582979336E+03  0.00000000000E+00 0. -1.
         -2    1    1    2    0  502  0.27725712692E+02  0.90291302577E+01  0.16649814100E+03  0.16903216053E+03  0.00000000000E+00 0.  1.
<mgrwt>
<rscale>  2 0.76173556E+02</rscale>
<asrwt>0</asrwt>
<pdfrwt beam="1">  1       21 0.29367179E-01 0.76173556E+02</pdfrwt>
<pdfrwt beam="2">  1       21 0.59202423E-01 0.76173556E+02</pdfrwt>
<totfact> 0.32104212E+04</totfact>
</mgrwt>
</event>
<event>
 5    1  0.1624116E+000  0.6447880E+02  0.7546771E-02  0.1379943E+00
         21   -1    0    0  501  502  0.00000000000E+00  0.00000000000E+00  0.12471077363E+03  0.12471077363E+03  0.00000000000E+00 0. -1.
         21   -1    0    0  502  503 -0.00000000000E+00 -0.00000000000E+00 -0.36436207343E+02  0.36436207343E+02  0.00000000000E+00 0.  1.
         24    1    1    2    0    0  0.13621357507E+02 -0.55316925731E+01  0.38599072165E+02  0.90406002729E+02  0.80419002446E+02 0.  1.
          1    1    1    2  501    0 -0.53193888169E+01  0.25253596196E+02  0.39158572568E+02  0.46898121751E+02  0.00000000000E+00 0. -1.
         -2    1    1    2    0  503 -0.83019686906E+01 -0.19721903623E+02  0.10516921552E+02  0.23842856490E+02  0.00000000000E+00 0.  1.
<mgrwt>
<rscale>  2 0.64478797E+02</rscale>
<asrwt>0</asrwt>
<pdfrwt beam="1">  1       21 0.19186273E-01 0.64478797E+02</pdfrwt>
<pdfrwt beam="2">  1       21 0.56055704E-02 0.64478797E+02</pdfrwt>
<totfact> 0.51954085E+06</totfact>
</mgrwt>
</event>
<event>
 5    1  0.1624116E+000  0.1009354E+03  0.7546771E-02  0.1278341E+00
         21   -1    0    0  503  502  0.00000000000E+00  0.00000000000E+00  0.31647860750E+02  0.31647860750E+02  0.00000000000E+00 0.  1.
         21   -1    0    0  501  503 -0.00000000000E+00 -0.00000000000E+00 -0.14970539166E+04  0.14970539166E+04  0.00000000000E+00 0. -1.
         24    1    1    2    0    0 -0.23764812745E+02 -0.52647552217E+02 -0.52295447665E+03  0.53224536793E+03  0.80419002446E+02 0.  1.
          1    1    1    2  501    0  0.11994643674E+02 -0.23191586462E+02 -0.91435546998E+03  0.91472818183E+03  0.00000000000E+00 0. -1.
         -2    1    1    2    0  502  0.11770169071E+02  0.75839138679E+02 -0.28096109260E+02  0.81728227627E+02  0.00000000000E+00 0.  1.
<mgrwt>
<rscale>  2 0.10093536E+03</rscale>
<asrwt>0</asrwt>
<pdfrwt beam="1">  1       21 0.48689010E-02 0.10093536E+03</pdfrwt>
<pdfrwt beam="2">  1       21 0.23031602E+00 0.10093536E+03</pdfrwt>
<totfact> 0.26830781E+04</totfact>
</mgrwt>
</event>
<event>
 5    1  0.1624116E+000  0.8617539E+02  0.7546771E-02  0.1312387E+00
         21   -1    0    0  503  502  0.00000000000E+00  0.00000000000E+00  0.17419203255E+03  0.17419203255E+03  0.00000000000E+00 0.  1.
         21   -1    0    0  501  503 -0.00000000000E+00 -0.00000000000E+00 -0.11007283779E+03  0.11007283779E+03  0.00000000000E+00 0. -1.
         24    1    1    2    0    0 -0.17250052274E+02 -0.52276069753E+01  0.76847215883E+02  0.11268363999E+03  0.80419002446E+02 0.  0.
          1    1    1    2  501    0 -0.49880178760E+01 -0.39591089225E+02 -0.79022253921E+02  0.88525992132E+02  0.00000000000E+00 0. -1.
         -2    1    1    2    0  502  0.22238070150E+02  0.44818696200E+02  0.66294232794E+02  0.83055238214E+02  0.00000000000E+00 0.  1.
<mgrwt>
<rscale>  2 0.86175389E+02</rscale>
<asrwt>0</asrwt>
<pdfrwt beam="1">  1       21 0.26798774E-01 0.86175389E+02</pdfrwt>
<pdfrwt beam="2">  1       21 0.16934283E-01 0.86175389E+02</pdfrwt>
<totfact> 0.42224796E+05</totfact>
</mgrwt>
</event>
<event>
 5    1  0.1624116E+000  0.6537393E+02  0.7546771E-02  0.1376570E+00
         21   -1    0    0  501  502  0.00000000000E+00  0.00000000000E+00  0.20750084511E+02  0.20750084511E+02  0.00000000000E+00 0.  1.
         21   -1    0    0  502  503 -0.00000000000E+00 -0.00000000000E+00 -0.82534376381E+03  0.82534376381E+03  0.00000000000E+00 0.  1.
         24    1    1    2    0    0  0.19068054638E+02  0.12264361739E+02 -0.10894140176E+03  0.13729330009E+03  0.80419002446E+02 0.  1.
          1    1    1    2  501    0 -0.49258304063E+01 -0.26602694565E+02 -0.22063626483E+02  0.34910897681E+02  0.00000000000E+00 0. -1.
         -2    1    1    2    0  503 -0.14142224232E+02  0.14338332826E+02 -0.67358865106E+03  0.67388965055E+03  0.00000000000E+00 0.  1.
<mgrwt>
<rscale>  2 0.65373933E+02</rscale>
<asrwt>0</asrwt>
<pdfrwt beam="1">  1       21 0.31923211E-02 0.65373933E+02</pdfrwt>
<pdfrwt beam="2">  1       21 0.12697595E+00 0.65373933E+02</pdfrwt>
<totfact> 0.27312790E+05</totfact>
</mgrwt>
</event>
<event>
 5    1  0.1624116E+000  0.8516046E+02  0.7546771E-02  0.1315013E+00
         21   -1    0    0  501  502  0.00000000000E+00  0.00000000000E+00  0.97844135875E+03  0.97844135875E+03  0.00000000000E+00 0. -1.
         21   -1    0    0  502  503 -0.00000000000E+00 -0.00000000000E+00 -0.71600546427E+02  0.71600546427E+02  0.00000000000E+00 0.  1.
         24    1    1    2    0    0  0.21882378061E+02 -0.11084209825E+02  0.31733668562E+02  0.89866233101E+02  0.80419002446E+02 0. -1.
          1    1    1    2  501    0  0.30407241285E+02 -0.64672998121E+01  0.89937800333E+03  0.89991511776E+03  0.00000000000E+00 0. -1.
         -2    1    1    2    0  503 -0.52289619346E+02  0.17551509637E+02 -0.24270859575E+02  0.60260554315E+02  0.00000000000E+00 0.  1.
<mgrwt>
<rscale>  2 0.85160458E+02</rscale>
<asrwt>0</asrwt>
<pdfrwt beam="1">  1       21 0.15052943E+00 0.85160458E+02</pdfrwt>
<pdfrwt beam="2">  1       21 0.11015469E-01 0.85160458E+02</pdfrwt>
<totfact> 0.22193413E+04</totfact>
</mgrwt>
</event>
<event>
 5    1  0.1624116E+000  0.7912717E+02  0.7546771E-02  0.1331547E+00
         21   -1    0    0  503  502  0.00000000000E+00  0.00000000000E+00  0.70967854000E+02  0.70967854000E+02  0.00000000000E+00 0.  1.
         21   -1    0    0  501  503 -0.00000000000E+00 -0.00000000000E+00 -0.26957356262E+03  0.26957356262E+03  0.00000000000E+00 0. -1.
         24    1    1    2    0    0 -0.22068330251E+02 -0.25023393469E+02 -0.17889846565E+02  0.88884441750E+02  0.80419002446E+02 0. -1.
          1    1    1    2  501    0  0.43896786602E+02  0.11033926956E+02 -0.20867475383E+03  0.21352711375E+03  0.00000000000E+00 0. -1.
         -2    1    1    2    0  502 -0.21828456351E+02  0.13989466514E+02  0.27958891776E+02  0.38129861125E+02  0.00000000000E+00 0.  1.
<mgrwt>
<rscale>  2 0.79127168E+02</rscale>
<asrwt>0</asrwt>
<pdfrwt beam="1">  1       21 0.10918131E-01 0.79127168E+02</pdfrwt>
<pdfrwt beam="2">  1       21 0.41472856E-01 0.79127168E+02</pdfrwt>
<totfact> 0.39512255E+05</totfact>
</mgrwt>
</event>
<event>
 5    1  0.1624116E+000  0.6888106E+02  0.7546771E-02  0.1363940E+00
         21   -1    0    0  503  502  0.00000000000E+00  0.00000000000E+00  0.24042528358E+02  0.24042528358E+02  0.00000000000E+00 0. -1.
         21   -1    0    0  501  503 -0.00000000000E+00 -0.00000000000E+00 -0.13189348388E+04  0.13189348388E+04  0.00000000000E+00 0. -1.
         24    1    1    2    0    0  0.56107895698E+01 -0.22992087087E+02 -0.77023489861E+02  0.11384178044E+03  0.80419002446E+02 0. -1.
          1    1    1    2  501    0 -0.26457877425E+02  0.62265886468E+01 -0.11906871116E+04  0.11909973079E+04  0.00000000000E+00 0. -1.
         -2    1    1    2    0  502  0.20847087855E+02  0.16765498441E+02 -0.27181709043E+02  0.38138278888E+02  0.00000000000E+00 0.  1.
<mgrwt>
<rscale>  2 0.68881064E+02</rscale>
<asrwt>0</asrwt>
<pdfrwt beam="1">  1       21 0.36988500E-02 0.68881064E+02</pdfrwt>
<pdfrwt beam="2">  1       21 0.20291308E+00 0.68881064E+02</pdfrwt>
<totfact> 0.63959979E+04</totfact>
</mgrwt>
</event>
<event>
 5    1  0.1624116E+000  0.6632327E+02  0.7546771E-02  0.1373062E+00
         21   -1    0    0  501  502  0.00000000000E+00  0.00000000000E+00  0.10030282007E+04  0.10030282007E+04  0.00000000000E+00 0. -1.
         21   -1    0    0  502  503 -0.00000000000E+00 -0.00000000000E+00 -0.17417248260E+02  0.17417248260E+02  0.00000000000E+00 0. -1.
         24    1    1    2    0    0  0.61958932338E+01 -0.13484096067E+02  0.12583124363E+03  0.15006974301E+03  0.80419002446E+02 0. -1.
          1    1    1    2  501    0  0.21012309981E+02  0.10525893682E+02  0.82841791501E+03  0.82875120121E+03  0.00000000000E+00 0. -1.
         -2    1    1    2    0  503 -0.27208203214E+02  0.29582023854E+01  0.31361793790E+02  0.41624504720E+02  0.00000000000E+00 0.  1.
<mgrwt>
<rscale>  2 0.66323270E+02</rscale>
<asrwt>0</asrwt>
<pdfrwt beam="1">  1       21 0.15431199E+00 0.66323270E+02</pdfrwt>
<pdfrwt beam="2">  1       21 0.26795774E-02 0.66323270E+02</pdfrwt>
<totfact> 0.22371699E+05</totfact>
</mgrwt>
</event>
<event>
 5    1  0.1624116E+000  0.1140828E+03  0.7546771E-02  0.1253191E+00
         21   -1    0    0  501  502  0.00000000000E+00  0.00000000000E+00  0.17542156555E+03  0.17542156555E+03  0.00000000000E+00 0.  1.
         21   -1    0    0  502  503 -0.00000000000E+00 -0.00000000000E+00 -0.81298223590E+02  0.81298223590E+02  0.00000000000E+00 0. -1.
         24    1    1    2    0    0  0.95752333581E+02  0.27023305908E+02  0.82143899762E+02  0.15203159103E+03  0.80419002446E+02 0.  0.
          1    1    1    2  501    0 -0.60978906443E+02 -0.23240031819E+02  0.21021666323E+02  0.68559729907E+02  0.00000000000E+00 0. -1.
         -2    1    1    2    0  503 -0.34773427138E+02 -0.37832740884E+01 -0.90422241233E+01  0.36128468205E+02  0.00000000000E+00 0.  1.
<mgrwt>
<rscale>  2 0.11408281E+03</rscale>
<asrwt>0</asrwt>
<pdfrwt beam="1">  1       21 0.26987933E-01 0.11408281E+03</pdfrwt>
<pdfrwt beam="2">  1       21 0.12507419E-01 0.11408281E+03</pdfrwt>
<totfact> 0.71573596E+05</totfact>
</mgrwt>
</event>
<event>
 5    1  0.1624116E+000  0.7473334E+02  0.7546771E-02  0.1344699E+00
         21   -1    0    0  503  502  0.00000000000E+00  0.00000000000E+00  0.29047577837E+03  0.29047577837E+03  0.00000000000E+00 0.  1.
         21   -1    0    0  501  503 -0.00000000000E+00 -0.00000000000E+00 -0.29222043435E+02  0.29222043435E+02  0.00000000000E+00 0. -1.
         24    1    1    2    0    0 -0.52746786757E+01 -0.72108996155E+01  0.88142857993E+02  0.11965031834E+03  0.80419002446E+02 0.  0.
          1    1    1    2  501    0 -0.30891032130E+02 -0.28267834490E+01  0.98776144225E+01  0.32554782097E+02  0.00000000000E+00 0. -1.
         -2    1    1    2    0  502  0.36165710806E+02  0.10037683065E+02  0.16323326252E+03  0.16749272137E+03  0.00000000000E+00 0.  1.
<mgrwt>
<rscale>  2 0.74733343E+02</rscale>
<asrwt>0</asrwt>
<pdfrwt beam="1">  1       21 0.44688579E-01 0.74733343E+02</pdfrwt>
<pdfrwt beam="2">  1       21 0.44956992E-02 0.74733343E+02</pdfrwt>
<totfact> 0.15227221E+06</totfact>
</mgrwt>
</event>
<event>
 5    1  0.1624116E+000  0.7748628E+02  0.7546771E-02  0.1336340E+00
         21   -1    0    0  503  502  0.00000000000E+00  0.00000000000E+00  0.25629974509E+03  0.25629974509E+03  0.00000000000E+00 0.  1.
         21   -1    0    0  501  503 -0.00000000000E+00 -0.00000000000E+00 -0.20089360843E+03  0.20089360843E+03  0.00000000000E+00 0.  1.
         24    1    1    2    0    0 -0.36923099148E+02  0.15028718539E+02 -0.16436284026E+03  0.18727396200E+03  0.80419002446E+02 0.  1.
          1    1    1    2  501    0  0.34909160998E+02  0.12898160069E+02 -0.99319592634E+01  0.38518253719E+02  0.00000000000E+00 0. -1.
         -2    1    1    2    0  502  0.20139381499E+01 -0.27926878608E+02  0.22970093618E+03  0.23140113781E+03  0.00000000000E+00 0.  1.
<mgrwt>
<rscale>  2 0.77486284E+02</rscale>
<asrwt>0</asrwt>
<pdfrwt beam="1">  1       21 0.39430730E-01 0.77486284E+02</pdfrwt>
<pdfrwt beam="2">  1       21 0.30906709E-01 0.77486284E+02</pdfrwt>
<totfact> 0.66213275E+04</totfact>
</mgrwt>
</event>
<event>
 5    1  0.1624116E+000  0.6887657E+02  0.7546771E-02  0.1363956E+00
         21   -1    0    0  503  502  0.00000000000E+00  0.00000000000E+00  0.11270426625E+03  0.11270426625E+03  0.00000000000E+00 0. -1.
         21   -1    0    0  501  503 -0.00000000000E+00 -0.00000000000E+00 -0.62513841909E+02  0.62513841909E+02  0.00000000000E+00 0.  1.
         24    1    1    2    0    0 -0.34845392935E+02  0.27408711387E+02  0.41824209218E+01  0.91924683670E+02  0.80419002446E+02 0.  0.
          1    1    1    2  501    0  0.23487458361E+02 -0.10920520040E+02 -0.68315440530E+01  0.26787841502E+02  0.00000000000E+00 0. -1.
         -2    1    1    2    0  502  0.11357934575E+02 -0.16488191347E+02  0.52839547467E+02  0.56505582982E+02  0.00000000000E+00 0.  1.
<mgrwt>
<rscale>  2 0.68876574E+02</rscale>
<asrwt>0</asrwt>
<pdfrwt beam="1">  1       21 0.17339118E-01 0.68876574E+02</pdfrwt>
<pdfrwt beam="2">  1       21 0.96175142E-02 0.68876574E+02</pdfrwt>
<totfact> 0.25207423E+06</totfact>
</mgrwt>
</event>
<event>
 5    1  0.1624116E+000  0.1075025E+03  0.7546771E-02  0.1265266E+00
         21   -1    0    0  503  502  0.00000000000E+00  0.00000000000E+00  0.11359800188E+03  0.11359800188E+03  0.00000000000E+00 0.  1.
         21   -1    0    0  501  503 -0.00000000000E+00 -0.00000000000E+00 -0.11249742708E+03  0.11249742708E+03  0.00000000000E+00 0.  1.
         24    1    1    2    0    0 -0.69841045207E+02  0.49258240147E+02  0.33165682521E+02  0.12194803922E+03  0.80419002446E+02 0.  1.
          1    1    1    2  501    0  0.45371338512E+02 -0.31818985717E+01 -0.23775455944E+02  0.51322072662E+02  0.00000000000E+00 0. -1.
         -2    1    1    2    0  502  0.24469706694E+02 -0.46076341575E+02 -0.82896517775E+01  0.52825317086E+02  0.00000000000E+00 0.  1.
<mgrwt>
<rscale>  2 0.10750253E+03</rscale>
<asrwt>0</asrwt>
<pdfrwt beam="1">  1       21 0.17476616E-01 0.10750253E+03</pdfrwt>
<pdfrwt beam="2">  1       21 0.17307297E-01 0.10750253E+03</pdfrwt>
<totfact> 0.89536463E+05</totfact>
</mgrwt>
</event>
<event>
 5    1  0.1624116E+000  0.8271761E+02  0.7546771E-02  0.1321511E+00
         21   -1    0    0  503  502  0.00000000000E+00  0.00000000000E+00  0.28501756123E+03  0.28501756123E+03  0.00000000000E+00 0.  1.
         21   -1    0    0  501  503 -0.00000000000E+00 -0.00000000000E+00 -0.53205511434E+02  0.53205511434E+02  0.00000000000E+00 0. -1.
         24    1    1    2    0    0 -0.39826936860E+02 -0.20214427768E+02  0.90421659549E+02  0.12898876098E+03  0.80419002446E+02 0. -1.
          1    1    1    2  501    0 -0.11197886051E+02  0.19417408498E+02 -0.25947333319E+02  0.34288372828E+02  0.00000000000E+00 0. -1.
         -2    1    1    2    0  502  0.51024822911E+02  0.79701927031E+00  0.16733772356E+03  0.17494593885E+03  0.00000000000E+00 0.  1.
<mgrwt>
<rscale>  2 0.82717611E+02</rscale>
<asrwt>0</asrwt>
<pdfrwt beam="1">  1       21 0.43848855E-01 0.82717611E+02</pdfrwt>
<pdfrwt beam="2">  1       21 0.81854635E-02 0.82717611E+02</pdfrwt>
<totfact> 0.58063363E+05</totfact>
</mgrwt>
</event>
<event>
 5    1  0.1624116E+000  0.1548478E+03  0.7546771E-02  0.1194639E+00
         21   -1    0    0  501  502  0.00000000000E+00  0.00000000000E+00  0.67576675673E+02  0.67576675673E+02  0.00000000000E+00 0.  1.
         21   -1    0    0  502  503 -0.00000000000E+00 -0.00000000000E+00 -0.40409867055E+03  0.40409867055E+03  0.00000000000E+00 0. -1.
         24    1    1    2    0    0 -0.96981341820E+02  0.66469758932E+01 -0.16442587263E+03  0.20725020264E+03  0.80419002446E+02 0.  1.
          1    1    1    2  501    0  0.13437756934E+03 -0.32274569048E+02 -0.74934304042E+02  0.15720727996E+03  0.00000000000E+00 0. -1.
         -2    1    1    2    0  503 -0.37396227521E+02  0.25627593155E+02 -0.97161818208E+02  0.10721786363E+03  0.00000000000E+00 0.  1.
<mgrwt>
<rscale>  2 0.15484783E+03</rscale>
<asrwt>0</asrwt>
<pdfrwt beam="1">  1       21 0.10396412E-01 0.15484783E+03</pdfrwt>
<pdfrwt beam="2">  1       21 0.62169026E-01 0.15484783E+03</pdfrwt>
<totfact> 0.18398687E+05</totfact>
</mgrwt>
</event>
<event>
 5    1  0.1624116E+000  0.6590376E+02  0.7546771E-02  0.1374604E+00
         21   -1    0    0  501  502  0.00000000000E+00  0.00000000000E+00  0.23681028108E+02  0.23681028108E+02  0.00000000000E+00 0.  1.
         21   -1    0    0  502  503 -0.00000000000E+00 -0.00000000000E+00 -0.27474904340E+03  0.27474904340E+03  0.00000000000E+00 0. -1.
         24    1    1    2    0    0 -0.16132125519E+02  0.23992539855E+02 -0.17164675793E+03  0.19174387319E+03  0.80419002446E+02 0. -1.
          1    1    1    2  501    0 -0.89441409090E+01 -0.18688091633E+02  0.24817500098E+01  0.20866276826E+02  0.00000000000E+00 0. -1.
         -2    1    1    2    0  503  0.25076266428E+02 -0.53044482223E+01 -0.81903007371E+02  0.85819921494E+02  0.00000000000E+00 0.  1.
<mgrwt>
<rscale>  2 0.65903761E+02</rscale>
<asrwt>0</asrwt>
<pdfrwt beam="1">  1       21 0.36432353E-02 0.65903761E+02</pdfrwt>
<pdfrwt beam="2">  1       21 0.42269082E-01 0.65903761E+02</pdfrwt>
<totfact> 0.23852903E+06</totfact>
</mgrwt>
</event>
<event>
 5    1  0.1624116E+000  0.7395381E+02  0.7546771E-02  0.1347142E+00
         21   -1    0    0  501  502  0.00000000000E+00  0.00000000000E+00  0.10253694495E+04  0.10253694495E+04  0.00000000000E+00 0. -1.
         21   -1    0    0  502  503 -0.00000000000E+00 -0.00000000000E+00 -0.10597512090E+02  0.10597512090E+02  0.00000000000E+00 0. -1.
         24    1    1    2    0    0  0.22780835649E+02 -0.37542567085E+02  0.24485342740E+03  0.26143608718E+03  0.80419002446E+02 0. -1.
          1    1    1    2  501    0 -0.27571344227E+02  0.11622501545E+02  0.68413456022E+03  0.68478854988E+03  0.00000000000E+00 0. -1.
         -2    1    1    2    0  503  0.47905085786E+01  0.25920065540E+02  0.85783949834E+02  0.89742324569E+02  0.00000000000E+00 0.  1.
<mgrwt>
<rscale>  2 0.73953805E+02</rscale>
<asrwt>0</asrwt>
<pdfrwt beam="1">  1       21 0.15774907E+00 0.73953805E+02</pdfrwt>
<pdfrwt beam="2">  1       21 0.16303873E-02 0.73953805E+02</pdfrwt>
<totfact> 0.46487247E+05</totfact>
</mgrwt>
</event>
<event>
 5    1  0.1624116E+000  0.7791581E+02  0.7546771E-02  0.1335072E+00
         21   -1    0    0  501  502  0.00000000000E+00  0.00000000000E+00  0.90311856708E+03  0.90311856708E+03  0.00000000000E+00 0. -1.
         21   -1    0    0  502  503 -0.00000000000E+00 -0.00000000000E+00 -0.13656217314E+02  0.13656217314E+02  0.00000000000E+00 0. -1.
         24    1    1    2    0    0  0.56232213212E+02  0.46726749923E+01  0.22585703663E+03  0.24629760990E+03  0.80419002446E+02 0. -1.
          1    1    1    2  501    0 -0.21372298395E+02 -0.74196359514E+01  0.57165168835E+03  0.57209918627E+03  0.00000000000E+00 0. -1.
         -2    1    1    2    0  503 -0.34859914817E+02  0.27469609591E+01  0.91953624795E+02  0.98377988232E+02  0.00000000000E+00 0.  1.
<mgrwt>
<rscale>  2 0.77915812E+02</rscale>
<asrwt>0</asrwt>
<pdfrwt beam="1">  1       21 0.13894127E+00 0.77915812E+02</pdfrwt>
<pdfrwt beam="2">  1       21 0.21009572E-02 0.77915812E+02</pdfrwt>
<totfact> 0.42758261E+05</totfact>
</mgrwt>
</event>
<event>
 5    1  0.1624116E+000  0.7657330E+02  0.7546771E-02  0.1339067E+00
         21   -1    0    0  503  502  0.00000000000E+00  0.00000000000E+00  0.16667328247E+03  0.16667328247E+03  0.00000000000E+00 0. -1.
         21   -1    0    0  501  503 -0.00000000000E+00 -0.00000000000E+00 -0.68301983840E+02  0.68301983840E+02  0.00000000000E+00 0.  1.
         24    1    1    2    0    0  0.48412715983E+01 -0.34324815742E+02  0.13327146398E+03  0.15946827255E+03  0.80419002446E+02 0. -1.
          1    1    1    2  501    0  0.23397352810E+02  0.28265976333E+02 -0.27024611321E+02  0.45571165813E+02  0.00000000000E+00 0. -1.
         -2    1    1    2    0  502 -0.28238624408E+02  0.60588394089E+01 -0.78755540254E+01  0.29935827943E+02  0.00000000000E+00 0.  1.
<mgrwt>
<rscale>  2 0.76573298E+02</rscale>
<asrwt>0</asrwt>
<pdfrwt beam="1">  1       21 0.25642043E-01 0.76573298E+02</pdfrwt>
<pdfrwt beam="2">  1       21 0.10507998E-01 0.76573298E+02</pdfrwt>
<totfact> 0.10630577E+06</totfact>
</mgrwt>
</event>
<event>
 5    1  0.1624116E+000  0.8111044E+02  0.7546771E-02  0.1325929E+00
         21   -1    0    0  501  502  0.00000000000E+00  0.00000000000E+00  0.34484293894E+02  0.34484293894E+02  0.00000000000E+00 0.  1.
         21   -1    0    0  502  503 -0.00000000000E+00 -0.00000000000E+00 -0.38702900686E+03  0.38702900686E+03  0.00000000000E+00 0.  1.
         24    1    1    2    0    0  0.84558076974E+01  0.43701602351E+02 -0.44658195479E+02  0.10219051379E+03  0.80419002446E+02 0.  1.
          1    1    1    2  501    0 -0.21036848869E+02  0.36141813392E+01 -0.28115183301E+02  0.35299785398E+02  0.00000000000E+00 0. -1.
         -2    1    1    2    0  503  0.12581041171E+02 -0.47315783690E+02 -0.27977133418E+03  0.28402300156E+03  0.00000000000E+00 0.  1.
<mgrwt>
<rscale>  2 0.81110435E+02</rscale>
<asrwt>0</asrwt>
<pdfrwt beam="1">  1       21 0.53052758E-02 0.81110435E+02</pdfrwt>
<pdfrwt beam="2">  1       21 0.59542926E-01 0.81110435E+02</pdfrwt>
<totfact> 0.64512019E+05</totfact>
</mgrwt>
</event>
<event>
 5    1  0.1624116E+000  0.8862339E+02  0.7546771E-02  0.1306220E+00
         21   -1    0    0  501  502  0.00000000000E+00  0.00000000000E+00  0.23044529086E+02  0.23044529086E+02  0.00000000000E+00 0. -1.
         21   -1    0    0  502  503 -0.00000000000E+00 -0.00000000000E+00 -0.39008125433E+03  0.39008125433E+03  0.00000000000E+00 0.  1.
         24    1    1    2    0    0  0.16300970071E+02 -0.24104806536E+02 -0.12123651415E+03  0.14836533167E+03  0.80419002446E+02 0. -1.
          1    1    1    2  501    0 -0.22904647681E+02  0.55290907339E+02 -0.10955732877E+03  0.12483795740E+03  0.00000000000E+00 0. -1.
         -2    1    1    2    0  503  0.66036776102E+01 -0.31186100803E+02 -0.13624288232E+03  0.13992249435E+03  0.00000000000E+00 0.  1.
<mgrwt>
<rscale>  2 0.88623387E+02</rscale>
<asrwt>0</asrwt>
<pdfrwt beam="1">  1       21 0.35453125E-02 0.88623387E+02</pdfrwt>
<pdfrwt beam="2">  1       21 0.60012496E-01 0.88623387E+02</pdfrwt>
<totfact> 0.12356599E+06</totfact>
</mgrwt>
</event>
<event>
 5    1  0.2674542E+000  0.1138641E+03  0.7546771E-02  0.1253577E+00
         21   -1    0    0  501  502  0.00000000000E+00  0.00000000000E+00  0.16380165258E+03  0.16380165258E+03  0.00000000000E+00 0. -1.
         21   -1    0    0  502  503 -0.00000000000E+00 -0.00000000000E+00 -0.27707367938E+03  0.27707367938E+03  0.00000000000E+00 0.  1.
         24    1    1    2    0    0  0.80498403932E+02 -0.31149433289E+02  0.12151737113E+03  0.16936341893E+03  0.80419002446E+02 0. -1.
          1    1    1    2  501    0 -0.43782555915E+02 -0.18896221959E+02 -0.27322486113E+02  0.54959054342E+02  0.00000000000E+00 0. -1.
         -2    1    1    2    0  503 -0.36715848017E+02  0.50045655248E+02 -0.20746691183E+03  0.21655285869E+03  0.00000000000E+00 0.  1.
<mgrwt>
<rscale>  2 0.11386409E+03</rscale>
<asrwt>0</asrwt>
<pdfrwt beam="1">  1       21 0.25200255E-01 0.11386409E+03</pdfrwt>
<pdfrwt beam="2">  1       21 0.42626719E-01 0.11386409E+03</pdfrwt>
<totfact> 0.81702803E+04</totfact>
</mgrwt>
</event>
<event>
 5    1  0.1661784E+000  0.8632800E+02  0.7546771E-02  0.1311996E+00
         21   -1    0    0  501  502  0.00000000000E+00  0.00000000000E+00  0.15159757290E+03  0.15159757290E+03  0.00000000000E+00 0. -1.
         21   -1    0    0  502  503 -0.00000000000E+00 -0.00000000000E+00 -0.38219648272E+03  0.38219648272E+03  0.00000000000E+00 0.  1.
         24    1    1    2    0    0  0.33931127688E+02  0.27118392308E+02  0.72917125685E+02  0.11692241787E+03  0.80419002446E+02 0. -1.
          1    1    1    2  501    0 -0.34160316664E+02 -0.48802801187E+02  0.40588955436E+02  0.72084006143E+02  0.00000000000E+00 0. -1.
         -2    1    1    2    0  503  0.22918897654E+00  0.21684408879E+02 -0.34410499095E+03  0.34478763161E+03  0.00000000000E+00 0.  1.
<mgrwt>
<rscale>  2 0.86328002E+02</rscale>
<asrwt>0</asrwt>
<pdfrwt beam="1">  1       21 0.23322704E-01 0.86328002E+02</pdfrwt>
<pdfrwt beam="2">  1       21 0.58799458E-01 0.86328002E+02</pdfrwt>
<totfact> 0.49702520E+04</totfact>
</mgrwt>
</event>
<event>
 5    1  0.1624116E+000  0.6502671E+02  0.7546771E-02  0.1377871E+00
         21   -1    0    0  501  502  0.00000000000E+00  0.00000000000E+00  0.39282808830E+02  0.39282808830E+02  0.00000000000E+00 0.  1.
         21   -1    0    0  502  503 -0.00000000000E+00 -0.00000000000E+00 -0.16837826034E+03  0.16837826034E+03  0.00000000000E+00 0.  1.
         24    1    1    2    0    0  0.79929434747E+01 -0.34581113726E+02 -0.21497381225E+02  0.90493612624E+02  0.80419002446E+02 0.  1.
          1    1    1    2  501    0 -0.15324472105E+02  0.15903510424E+02 -0.31516063919E+02  0.38484066495E+02  0.00000000000E+00 0. -1.
         -2    1    1    2    0  503  0.73315286303E+01  0.18677603302E+02 -0.76082006365E+02  0.78683390050E+02  0.00000000000E+00 0.  1.
<mgrwt>
<rscale>  2 0.65026711E+02</rscale>
<asrwt>0</asrwt>
<pdfrwt beam="1">  1       21 0.60435090E-02 0.65026711E+02</pdfrwt>
<pdfrwt beam="2">  1       21 0.25904348E-01 0.65026711E+02</pdfrwt>
<totfact> 0.26470988E+06</totfact>
</mgrwt>
</event>
<event>
 5    1  0.1624116E+000  0.1005873E+03  0.7546771E-02  0.1279066E+00
         21   -1    0    0  503  502  0.00000000000E+00  0.00000000000E+00  0.19490569178E+03  0.19490569178E+03  0.00000000000E+00 0.  1.
         21   -1    0    0  501  503 -0.00000000000E+00 -0.00000000000E+00 -0.12383222380E+03  0.12383222380E+03  0.00000000000E+00 0. -1.
         24    1    1    2    0    0 -0.61219476222E+02 -0.34945894514E+02  0.13894173715E+02  0.10783924995E+03  0.80419002446E+02 0. -1.
          1    1    1    2  501    0  0.51583965126E+02 -0.62182385012E+01 -0.64070370137E+02  0.82489904096E+02  0.00000000000E+00 0. -1.
         -2    1    1    2    0  502  0.96355110951E+01  0.41164133015E+02  0.12124966440E+03  0.12840876153E+03  0.00000000000E+00 0.  1.
<mgrwt>
<rscale>  2 0.10058732E+03</rscale>
<asrwt>0</asrwt>
<pdfrwt beam="1">  1       21 0.29985491E-01 0.10058732E+03</pdfrwt>
<pdfrwt beam="2">  1       21 0.19051111E-01 0.10058732E+03</pdfrwt>
<totfact> 0.27496157E+05</totfact>
</mgrwt>
</event>
<event>
 5    1  0.1624116E+000  0.8080238E+02  0.7546771E-02  0.1326790E+00
         21   -1    0    0  501  502  0.00000000000E+00  0.00000000000E+00  0.42979624296E+03  0.42979624296E+03  0.00000000000E+00 0. -1.
         21   -1    0    0  502  503 -0.00000000000E+00 -0.00000000000E+00 -0.34425450231E+02  0.34425450231E+02  0.00000000000E+00 0.  1.
         24    1    1    2    0    0  0.35773061393E+02 -0.21446590642E+02  0.46469995633E+02  0.10181524748E+03  0.80419002446E+02 0.  1.
          1    1    1    2  501    0 -0.17771053414E+02  0.40847952144E+02  0.32051643931E+03  0.32359720858E+03  0.00000000000E+00 0. -1.
         -2    1    1    2    0  503 -0.18002007979E+02 -0.19401361502E+02  0.28384357790E+02  0.38809237129E+02  0.00000000000E+00 0.  1.
<mgrwt>
<rscale>  2 0.80802376E+02</rscale>
<asrwt>0</asrwt>
<pdfrwt beam="1">  1       21 0.66122495E-01 0.80802376E+02</pdfrwt>
<pdfrwt beam="2">  1       21 0.52962234E-02 0.80802376E+02</pdfrwt>
<totfact> 0.51858679E+05</totfact>
</mgrwt>
</event>
<event>
 5    1  0.1624116E+000  0.6838169E+02  0.7546771E-02  0.1365684E+00
         21   -1    0    0  501  502  0.00000000000E+00  0.00000000000E+00  0.24548057827E+02  0.24548057827E+02  0.00000000000E+00 0.  1.
         21   -1    0    0  502  503 -0.00000000000E+00 -0.00000000000E+00 -0.25301221446E+03  0.25301221446E+03  0.00000000000E+00 0. -1.
         24    1    1    2    0    0  0.31131098249E+02  0.13939308693E+02 -0.11246328543E+03  0.14240314649E+03  0.80419002446E+02 0. -1.
          1    1    1    2  501    0 -0.24357499429E+02  0.86336332368E+01 -0.11951635250E+02  0.28472249410E+02  0.00000000000E+00 0. -1.
         -2    1    1    2    0  503 -0.67735988199E+01 -0.22572941930E+02 -0.10404923595E+03  0.10668487638E+03  0.00000000000E+00 0.  1.
<mgrwt>
<rscale>  2 0.68381687E+02</rscale>
<asrwt>0</asrwt>
<pdfrwt beam="1">  1       21 0.37766244E-02 0.68381687E+02</pdfrwt>
<pdfrwt beam="2">  1       21 0.38924955E-01 0.68381687E+02</pdfrwt>
<totfact> 0.26504593E+06</totfact>
</mgrwt>
</event>
<event>
 5    1  0.1624116E+000  0.6602740E+02  0.7546771E-02  0.1374148E+00
         21   -1    0    0  503  502  0.00000000000E+00  0.00000000000E+00  0.18030535455E+02  0.18030535455E+02  0.00000000000E+00 0.  1.
         21   -1    0    0  501  503 -0.00000000000E+00 -0.00000000000E+00 -0.31038403887E+03  0.31038403887E+03  0.00000000000E+00 0. -1.
         24    1    1    2    0    0  0.35948935698E+02  0.60817378926E+01 -0.17197602716E+03  0.19331912317E+03  0.80419002446E+02 0.  0.
          1    1    1    2  501    0 -0.18881971942E+02  0.90582807931E+01 -0.10617674603E+03  0.10822237622E+03  0.00000000000E+00 0. -1.
         -2    1    1    2    0  502 -0.17066963756E+02 -0.15140018686E+02 -0.14200730224E+02  0.26873074936E+02  0.00000000000E+00 0.  1.
<mgrwt>
<rscale>  2 0.66027396E+02</rscale>
<asrwt>0</asrwt>
<pdfrwt beam="1">  1       21 0.27739286E-02 0.66027396E+02</pdfrwt>
<pdfrwt beam="2">  1       21 0.47751390E-01 0.66027396E+02</pdfrwt>
<totfact> 0.29068768E+06</totfact>
</mgrwt>
</event>
<event>
 5    1  0.1624116E+000  0.7122854E+02  0.7546771E-02  0.1355964E+00
         21   -1    0    0  503  502  0.00000000000E+00  0.00000000000E+00  0.10926575519E+02  0.10926575519E+02  0.00000000000E+00 0.  1.
         21   -1    0    0  501  503 -0.00000000000E+00 -0.00000000000E+00 -0.61757803871E+03  0.61757803871E+03  0.00000000000E+00 0. -1.
         24    1    1    2    0    0  0.16794468253E+02  0.46108552845E+01 -0.48642600824E+03  0.49333638787E+03  0.80419002446E+02 0. -1.
          1    1    1    2  501    0 -0.27042489392E+01  0.26176274930E+02 -0.68141768448E+02  0.73046635369E+02  0.00000000000E+00 0. -1.
         -2    1    1    2    0  502 -0.14090219314E+02 -0.30787130215E+02 -0.52083686502E+02  0.62121590987E+02  0.00000000000E+00 0.  1.
<mgrwt>
<rscale>  2 0.71228540E+02</rscale>
<asrwt>0</asrwt>
<pdfrwt beam="1">  1       21 0.16810119E-02 0.71228540E+02</pdfrwt>
<pdfrwt beam="2">  1       21 0.95011989E-01 0.71228540E+02</pdfrwt>
<totfact> 0.14981148E+06</totfact>
</mgrwt>
</event>
<event>
 5    1  0.1624116E+000  0.1647910E+03  0.7546771E-02  0.1183391E+00
         21   -1    0    0  503  502  0.00000000000E+00  0.00000000000E+00  0.25687262440E+03  0.25687262440E+03  0.00000000000E+00 0.  1.
         21   -1    0    0  501  503 -0.00000000000E+00 -0.00000000000E+00 -0.16077741330E+03  0.16077741330E+03  0.00000000000E+00 0. -1.
         24    1    1    2    0    0  0.84243936483E+02  0.12706826016E+03  0.12031027104E+03  0.21020266612E+03  0.80419002446E+02 0.  1.
          1    1    1    2  501    0 -0.66369795181E+02 -0.66062223380E+02 -0.79776518199E+02  0.12301812845E+03  0.00000000000E+00 0. -1.
         -2    1    1    2    0  502 -0.17874141302E+02 -0.61006036778E+02  0.55561458263E+02  0.84429243127E+02  0.00000000000E+00 0.  1.
<mgrwt>
<rscale>  2 0.16479103E+03</rscale>
<asrwt>0</asrwt>
<pdfrwt beam="1">  1       21 0.39518865E-01 0.16479103E+03</pdfrwt>
<pdfrwt beam="2">  1       21 0.24734987E-01 0.16479103E+03</pdfrwt>
<totfact> 0.96469567E+04</totfact>
</mgrwt>
</event>
<event>
 5    1  0.1624116E+000  0.7332960E+02  0.7546771E-02  0.1349123E+00
         21   -1    0    0  503  502  0.00000000000E+00  0.00000000000E+00  0.12761841660E+03  0.12761841660E+03  0.00000000000E+00 0.  1.
         21   -1    0    0  501  503 -0.00000000000E+00 -0.00000000000E+00 -0.10247468788E+03  0.10247468788E+03  0.00000000000E+00 0.  1.
         24    1    1    2    0    0  0.30017414639E+02 -0.37703270296E+02 -0.46820869875E+02  0.10479499789E+03  0.80419002446E+02 0.  1.
          1    1    1    2  501    0 -0.21106426265E+02  0.91690363482E+01 -0.18814126972E+02  0.29724128767E+02  0.00000000000E+00 0. -1.
         -2    1    1    2    0  502 -0.89109883742E+01  0.28534233948E+02  0.90778725565E+02  0.95573977818E+02  0.00000000000E+00 0.  1.
<mgrwt>
<rscale>  2 0.73329604E+02</rscale>
<asrwt>0</asrwt>
<pdfrwt beam="1">  1       21 0.19633603E-01 0.73329604E+02</pdfrwt>
<pdfrwt beam="2">  1       21 0.15765337E-01 0.73329604E+02</pdfrwt>
<totfact> 0.85182673E+05</totfact>
</mgrwt>
</event>
<event>
 5    1  0.1624116E+000  0.8394338E+02  0.7546771E-02  0.1318219E+00
         21   -1    0    0  503  502  0.00000000000E+00  0.00000000000E+00  0.15989689832E+03  0.15989689832E+03  0.00000000000E+00 0.  1.
         21   -1    0    0  501  503 -0.00000000000E+00 -0.00000000000E+00 -0.12017514522E+03  0.12017514522E+03  0.00000000000E+00 0. -1.
         24    1    1    2    0    0 -0.36467983313E+02 -0.22232866164E+02 -0.42055168657E+02  0.10029988689E+03  0.80419002446E+02 0. -1.
          1    1    1    2  501    0  0.30708982103E+02  0.44367191428E+02 -0.32659602076E+02  0.63072488969E+02  0.00000000000E+00 0. -1.
         -2    1    1    2    0  502  0.57590012093E+01 -0.22134325264E+02  0.11443652384E+03  0.11669966769E+03  0.00000000000E+00 0.  1.
<mgrwt>
<rscale>  2 0.83943383E+02</rscale>
<asrwt>0</asrwt>
<pdfrwt beam="1">  1       21 0.24599523E-01 0.83943383E+02</pdfrwt>
<pdfrwt beam="2">  1       21 0.18488484E-01 0.83943383E+02</pdfrwt>
<totfact> 0.42301210E+05</totfact>
</mgrwt>
</event>
<event>
 5    1  0.1624116E+000  0.8683504E+02  0.7546771E-02  0.1310702E+00
         21   -1    0    0  501  502  0.00000000000E+00  0.00000000000E+00  0.59955507514E+02  0.59955507514E+02  0.00000000000E+00 0.  1.
         21   -1    0    0  502  503 -0.00000000000E+00 -0.00000000000E+00 -0.13288588490E+03  0.13288588490E+03  0.00000000000E+00 0. -1.
         24    1    1    2    0    0 -0.51999716671E+02  0.20588356077E+02 -0.62347075878E+02  0.11611298276E+03  0.80419002446E+02 0. -1.
          1    1    1    2  501    0  0.13706673303E+01 -0.24868290163E+02 -0.40494889149E+00  0.24909326931E+02  0.00000000000E+00 0. -1.
         -2    1    1    2    0  503  0.50629049341E+02  0.42799340859E+01 -0.10178352620E+02  0.51819082730E+02  0.00000000000E+00 0.  1.
<mgrwt>
<rscale>  2 0.86835039E+02</rscale>
<asrwt>0</asrwt>
<pdfrwt beam="1">  1       21 0.92239243E-02 0.86835039E+02</pdfrwt>
<pdfrwt beam="2">  1       21 0.20443982E-01 0.86835039E+02</pdfrwt>
<totfact> 0.20324574E+06</totfact>
</mgrwt>
</event>
<event>
 5    1  0.1624116E+000  0.1187178E+03  0.7546771E-02  0.1245227E+00
         21   -1    0    0  503  502  0.00000000000E+00  0.00000000000E+00  0.22610506869E+04  0.22610506869E+04  0.00000000000E+00 0.  1.
         21   -1    0    0  501  503 -0.00000000000E+00 -0.00000000000E+00 -0.13846003887E+02  0.13846003887E+02  0.00000000000E+00 0.  1.
         24    1    1    2    0    0  0.44540681856E+02 -0.94887949148E+02  0.19496418574E+04  0.19541131450E+04  0.80419002446E+02 0.  1.
          1    1    1    2  501    0 -0.16528373251E+02  0.24422423269E+02  0.27662712556E+02  0.40433495355E+02  0.00000000000E+00 0. -1.
         -2    1    1    2    0  502 -0.28012308605E+02  0.70465525879E+02  0.26990011308E+03  0.28035005050E+03  0.00000000000E+00 0.  1.
<mgrwt>
<rscale>  2 0.11871781E+03</rscale>
<asrwt>0</asrwt>
<pdfrwt beam="1">  1       21 0.34785366E+00 0.11871781E+03</pdfrwt>
<pdfrwt beam="2">  1       21 0.21301562E-02 0.11871781E+03</pdfrwt>
<totfact> 0.22087395E+04</totfact>
</mgrwt>
</event>
<event>
 5    1  0.1624116E+000  0.7000781E+02  0.7546771E-02  0.1360066E+00
         21   -1    0    0  501  502  0.00000000000E+00  0.00000000000E+00  0.33312256653E+02  0.33312256653E+02  0.00000000000E+00 0.  1.
         21   -1    0    0  502  503 -0.00000000000E+00 -0.00000000000E+00 -0.24663422749E+03  0.24663422749E+03  0.00000000000E+00 0.  1.
         24    1    1    2    0    0  0.67631364855E+01 -0.30349495357E+02 -0.11452866307E+03  0.14335572016E+03  0.80419002446E+02 0.  1.
          1    1    1    2  501    0 -0.21186742917E+02  0.11391627881E+01  0.96872429930E+01  0.23324202968E+02  0.00000000000E+00 0. -1.
         -2    1    1    2    0  503  0.14423606431E+02  0.29210332569E+02 -0.10848055076E+03  0.11326656102E+03  0.00000000000E+00 0.  1.
<mgrwt>
<rscale>  2 0.70007812E+02</rscale>
<asrwt>0</asrwt>
<pdfrwt beam="1">  1       21 0.51249624E-02 0.70007812E+02</pdfrwt>
<pdfrwt beam="2">  1       21 0.37943729E-01 0.70007812E+02</pdfrwt>
<totfact> 0.16895399E+06</totfact>
</mgrwt>
</event>
<event>
 5    1  0.1624116E+000  0.9467400E+02  0.7546771E-02  0.1291912E+00
         21   -1    0    0  501  502  0.00000000000E+00  0.00000000000E+00  0.15543875725E+03  0.15543875725E+03  0.00000000000E+00 0. -1.
         21   -1    0    0  502  503 -0.00000000000E+00 -0.00000000000E+00 -0.87639641583E+02  0.87639641583E+02  0.00000000000E+00 0.  1.
         24    1    1    2    0    0 -0.16038683725E+02  0.10177984293E+02  0.28467253136E+02  0.87398118947E+02  0.80419002446E+02 0. -1.
          1    1    1    2  501    0  0.58530097545E+02 -0.22132608533E+02  0.75893412781E+02  0.98363787964E+02  0.00000000000E+00 0. -1.
         -2    1    1    2    0  503 -0.42491413820E+02  0.11954624240E+02 -0.36561550252E+02  0.57316491920E+02  0.00000000000E+00 0.  1.
<mgrwt>
<rscale>  2 0.94674005E+02</rscale>
<asrwt>0</asrwt>
<pdfrwt beam="1">  1       21 0.23913655E-01 0.94674005E+02</pdfrwt>
<pdfrwt beam="2">  1       21 0.13483022E-01 0.94674005E+02</pdfrwt>
<totfact> 0.78565763E+05</totfact>
</mgrwt>
</event>
<event>
 5    1  0.1624116E+000  0.1241701E+03  0.7546771E-02  0.1236372E+00
         21   -1    0    0  503  502  0.00000000000E+00  0.00000000000E+00  0.36011035293E+03  0.36011035293E+03  0.00000000000E+00 0. -1.
         21   -1    0    0  501  503 -0.00000000000E+00 -0.00000000000E+00 -0.10093400856E+03  0.10093400856E+03  0.00000000000E+00 0.  1.
         24    1    1    2    0    0  0.53009076088E+02  0.93389588548E+02  0.22804356433E+03  0.26458015909E+03  0.80419002446E+02 0. -1.
          1    1    1    2  501    0 -0.50191622574E+02 -0.50504896438E+02 -0.61667268533E+02  0.94195517670E+02  0.00000000000E+00 0. -1.
         -2    1    1    2    0  502 -0.28174535145E+01 -0.42884692109E+02  0.92800048570E+02  0.10226868473E+03  0.00000000000E+00 0.  1.
<mgrwt>
<rscale>  2 0.12417013E+03</rscale>
<asrwt>0</asrwt>
<pdfrwt beam="1">  1       21 0.55401592E-01 0.12417013E+03</pdfrwt>
<pdfrwt beam="2">  1       21 0.15528309E-01 0.12417013E+03</pdfrwt>
<totfact> 0.11601728E+05</totfact>
</mgrwt>
</event>
<event>
 5    1  0.1624116E+000  0.9719343E+02  0.7546771E-02  0.1286311E+00
         21   -1    0    0  501  502  0.00000000000E+00  0.00000000000E+00  0.38360456075E+03  0.38360456075E+03  0.00000000000E+00 0.  1.
         21   -1    0    0  502  503 -0.00000000000E+00 -0.00000000000E+00 -0.29914843498E+02  0.29914843498E+02  0.00000000000E+00 0. -1.
         24    1    1    2    0    0 -0.44527721101E+02 -0.42566690835E+02  0.18451457764E+03  0.21049343560E+03  0.80419002446E+02 0.  1.
          1    1    1    2  501    0  0.63617158508E+02  0.31031240510E+02  0.16604647303E+03  0.18050349567E+03  0.00000000000E+00 0. -1.
         -2    1    1    2    0  503 -0.19089437407E+02  0.11535450326E+02  0.31286665927E+01  0.22522472985E+02  0.00000000000E+00 0.  1.
<mgrwt>
<rscale>  2 0.97193428E+02</rscale>
<asrwt>0</asrwt>
<pdfrwt beam="1">  1       21 0.59016083E-01 0.97193428E+02</pdfrwt>
<pdfrwt beam="2">  1       21 0.46022839E-02 0.97193428E+02</pdfrwt>
<totfact> 0.83357154E+05</totfact>
</mgrwt>
</event>
<event>
 5    1  0.2118980E+000  0.9550151E+02  0.7546771E-02  0.1290051E+00
         21   -1    0    0  503  502  0.00000000000E+00  0.00000000000E+00  0.16149849978E+03  0.16149849978E+03  0.00000000000E+00 0.  1.
         21   -1    0    0  501  503 -0.00000000000E+00 -0.00000000000E+00 -0.39960758893E+03  0.39960758893E+03  0.00000000000E+00 0. -1.
         24    1    1    2    0    0  0.42719146411E+02 -0.32207346411E+02  0.39635699429E+02  0.10440518788E+03  0.80419002446E+02 0.  1.
          1    1    1    2  501    0  0.59467494036E+01  0.43950707826E+02 -0.35874626456E+03  0.36147740024E+03  0.00000000000E+00 0. -1.
         -2    1    1    2    0  502 -0.48665895815E+02 -0.11743361415E+02  0.81001475981E+02  0.95223500586E+02  0.00000000000E+00 0.  1.
<mgrwt>
<rscale>  2 0.95501509E+02</rscale>
<asrwt>0</asrwt>
<pdfrwt beam="1">  1       21 0.24845923E-01 0.95501509E+02</pdfrwt>
<pdfrwt beam="2">  1       21 0.61478090E-01 0.95501509E+02</pdfrwt>
<totfact> 0.39933150E+04</totfact>
</mgrwt>
</event>
<event>
 5    1  0.1624116E+000  0.1551229E+03  0.7546771E-02  0.1194316E+00
         21   -1    0    0  501  502  0.00000000000E+00  0.00000000000E+00  0.21140334973E+03  0.21140334973E+03  0.00000000000E+00 0.  1.
         21   -1    0    0  502  503 -0.00000000000E+00 -0.00000000000E+00 -0.17815320610E+03  0.17815320610E+03  0.00000000000E+00 0.  1.
         24    1    1    2    0    0  0.45137068683E+02  0.13444484480E+03  0.67183663068E+02  0.17633386458E+03  0.80419002446E+02 0.  1.
          1    1    1    2  501    0  0.71807710300E+01 -0.23060179282E+02  0.55878454272E+02  0.60874764828E+02  0.00000000000E+00 0. -1.
         -2    1    1    2    0  503 -0.52317839713E+02 -0.11138466551E+03 -0.89811973708E+02  0.15234792642E+03  0.00000000000E+00 0.  1.
<mgrwt>
<rscale>  2 0.15512289E+03</rscale>
<asrwt>0</asrwt>
<pdfrwt beam="1">  1       21 0.32523592E-01 0.15512289E+03</pdfrwt>
<pdfrwt beam="2">  1       21 0.27408185E-01 0.15512289E+03</pdfrwt>
<totfact> 0.11710035E+05</totfact>
</mgrwt>
</event>
<event>
 5    1  0.1624116E+000  0.1040328E+03  0.7546771E-02  0.1272037E+00
         21   -1    0    0  501  502  0.00000000000E+00  0.00000000000E+00  0.15939690294E+04  0.15939690294E+04  0.00000000000E+00 0. -1.
         21   -1    0    0  502  503 -0.00000000000E+00 -0.00000000000E+00 -0.13591483108E+02  0.13591483108E+02  0.00000000000E+00 0.  1.
         24    1    1    2    0    0 -0.53110249271E+01  0.26697316898E+02  0.26921296171E+03  0.28228317063E+03  0.80419002446E+02 0.  0.
          1    1    1    2  501    0  0.54752729258E+02 -0.44561651019E+02  0.12024390338E+04  0.12045095401E+04  0.00000000000E+00 0. -1.
         -2    1    1    2    0  503 -0.49441704331E+02  0.17864334120E+02  0.10872555077E+03  0.12076780180E+03  0.00000000000E+00 0.  1.
<mgrwt>
<rscale>  2 0.10403284E+03</rscale>
<asrwt>0</asrwt>
<pdfrwt beam="1">  1       21 0.24522586E+00 0.10403284E+03</pdfrwt>
<pdfrwt beam="2">  1       21 0.20909987E-02 0.10403284E+03</pdfrwt>
<totfact> 0.87475462E+04</totfact>
</mgrwt>
</event>
<event>
 5    1  0.1624116E+000  0.7407821E+02  0.7546771E-02  0.1346750E+00
         21   -1    0    0  503  502  0.00000000000E+00  0.00000000000E+00  0.96394004195E+03  0.96394004195E+03  0.00000000000E+00 0.  1.
         21   -1    0    0  501  503 -0.00000000000E+00 -0.00000000000E+00 -0.59319650172E+01  0.59319650172E+01  0.00000000000E+00 0.  1.
         24    1    1    2    0    0  0.18278247880E+02  0.12662949825E+02  0.60918924639E+03  0.61487657177E+03  0.80419002446E+02 0.  1.
          1    1    1    2  501    0 -0.27687223447E+01  0.24392724175E+02  0.10091808230E+03  0.10386110991E+03  0.00000000000E+00 0. -1.
         -2    1    1    2    0  502 -0.15509525536E+02 -0.37055674000E+02  0.24790074825E+03  0.25113432529E+03  0.00000000000E+00 0.  1.
<mgrwt>
<rscale>  2 0.74078206E+02</rscale>
<asrwt>0</asrwt>
<pdfrwt beam="1">  1       21 0.14829834E+00 0.74078206E+02</pdfrwt>
<pdfrwt beam="2">  1       21 0.91261077E-03 0.74078206E+02</pdfrwt>
<totfact> 0.13486927E+06</totfact>
</mgrwt>
</event>
<event>
 5    1  0.1624116E+000  0.8861005E+02  0.7546771E-02  0.1306253E+00
         21   -1    0    0  501  502  0.00000000000E+00  0.00000000000E+00  0.18775526986E+02  0.18775526986E+02  0.00000000000E+00 0.  1.
         21   -1    0    0  502  503 -0.00000000000E+00 -0.00000000000E+00 -0.43671628424E+03  0.43671628424E+03  0.00000000000E+00 0. -1.
         24    1    1    2    0    0  0.12402792595E+02  0.52465831861E+02 -0.18382639168E+03  0.20776393097E+03  0.80419002446E+02 0.  0.
          1    1    1    2  501    0  0.22230525905E+02 -0.71190822954E+01 -0.55123042351E+02  0.59861735798E+02  0.00000000000E+00 0. -1.
         -2    1    1    2    0  503 -0.34633318501E+02 -0.45346749565E+02 -0.17899132322E+03  0.18786614446E+03  0.00000000000E+00 0.  1.
<mgrwt>
<rscale>  2 0.88610049E+02</rscale>
<asrwt>0</asrwt>
<pdfrwt beam="1">  1       21 0.28885425E-02 0.88610049E+02</pdfrwt>
<pdfrwt beam="2">  1       21 0.67187123E-01 0.88610049E+02</pdfrwt>
<totfact> 0.13579496E+06</totfact>
</mgrwt>
</event>
<event>
 5    1  0.1624116E+000  0.7378367E+02  0.7546771E-02  0.1347680E+00
         21   -1    0    0  503  502  0.00000000000E+00  0.00000000000E+00  0.70619673958E+03  0.70619673958E+03  0.00000000000E+00 0.  1.
         21   -1    0    0  501  503 -0.00000000000E+00 -0.00000000000E+00 -0.14055021809E+02  0.14055021809E+02  0.00000000000E+00 0.  1.
         24    1    1    2    0    0 -0.22326839322E+02 -0.46081127187E+02  0.28879784700E+03  0.30412722737E+03  0.80419002446E+02 0.  1.
          1    1    1    2  501    0  0.48175558944E+01  0.21607794865E+02  0.15288906375E+02  0.26904577712E+02  0.00000000000E+00 0. -1.
         -2    1    1    2    0  502  0.17509283428E+02  0.24473332322E+02  0.38805496439E+03  0.38921995631E+03  0.00000000000E+00 0.  1.
<mgrwt>
<rscale>  2 0.73783666E+02</rscale>
<asrwt>0</asrwt>
<pdfrwt beam="1">  1       21 0.10864563E+00 0.73783666E+02</pdfrwt>
<pdfrwt beam="2">  1       21 0.21623116E-02 0.73783666E+02</pdfrwt>
<totfact> 0.73790967E+05</totfact>
</mgrwt>
</event>
<event>
 5    1  0.1624116E+000  0.9284061E+02  0.7546771E-02  0.1296115E+00
         21   -1    0    0  503  502  0.00000000000E+00  0.00000000000E+00  0.86517335751E+03  0.86517335751E+03  0.00000000000E+00 0.  1.
         21   -1    0    0  501  503 -0.00000000000E+00 -0.00000000000E+00 -0.11932891358E+02  0.11932891358E+02  0.00000000000E+00 0. -1.
         24    1    1    2    0    0  0.36399981081E+02  0.25170326660E+02  0.24502534255E+03  0.26165461665E+03  0.80419002446E+02 0. -1.
          1    1    1    2  501    0  0.20262927236E+02 -0.30885455393E+02  0.25975038727E+03  0.26236379563E+03  0.00000000000E+00 0. -1.
         -2    1    1    2    0  502 -0.56662908318E+02  0.57151287333E+01  0.34846473633E+03  0.35308783658E+03  0.00000000000E+00 0.  1.
<mgrwt>
<rscale>  2 0.92840613E+02</rscale>
<asrwt>0</asrwt>
<pdfrwt beam="1">  1       21 0.13310354E+00 0.92840613E+02</pdfrwt>
<pdfrwt beam="2">  1       21 0.18358301E-02 0.92840613E+02</pdfrwt>
<totfact> 0.58789131E+05</totfact>
</mgrwt>
</event>
<event>
 5    1  0.1624116E+000  0.8395018E+02  0.7546771E-02  0.1318201E+00
         21   -1    0    0  503  502  0.00000000000E+00  0.00000000000E+00  0.13744681385E+02  0.13744681385E+02  0.00000000000E+00 0. -1.
         21   -1    0    0  501  503 -0.00000000000E+00 -0.00000000000E+00 -0.61994517468E+03  0.61994517468E+03  0.00000000000E+00 0.  1.
         24    1    1    2    0    0 -0.86817394526E+01  0.45227636765E+02 -0.43659358754E+03  0.44632061163E+03  0.80419002446E+02 0.  0.
          1    1    1    2  501    0  0.19325172170E+02  0.80229313561E+01 -0.79103170317E+02  0.81823842864E+02  0.00000000000E+00 0. -1.
         -2    1    1    2    0  502 -0.10643432717E+02 -0.53250568121E+02 -0.90503735439E+02  0.10554540158E+03  0.00000000000E+00 0.  1.
<mgrwt>
<rscale>  2 0.83950180E+02</rscale>
<asrwt>0</asrwt>
<pdfrwt beam="1">  1       21 0.21145666E-02 0.83950180E+02</pdfrwt>
<pdfrwt beam="2">  1       21 0.95376171E-01 0.83950180E+02</pdfrwt>
<totfact> 0.10344940E+06</totfact>
</mgrwt>
</event>
<event>
 5    1  0.1624116E+000  0.8705590E+02  0.7546771E-02  0.1310142E+00
         21   -1    0    0  501  502  0.00000000000E+00  0.00000000000E+00  0.48265581055E+03  0.48265581055E+03  0.00000000000E+00 0. -1.
         21   -1    0    0  502  503 -0.00000000000E+00 -0.00000000000E+00 -0.17155958414E+02  0.17155958414E+02  0.00000000000E+00 0. -1.
         24    1    1    2    0    0 -0.13225067218E+02 -0.61122589212E+02  0.22745251400E+03  0.24922426726E+03  0.80419002446E+02 0. -1.
          1    1    1    2  501    0 -0.46640364593E+01  0.51906018761E+02  0.20795991600E+03  0.21439056575E+03  0.00000000000E+00 0. -1.
         -2    1    1    2    0  503  0.17889103677E+02  0.92165704511E+01  0.30087422143E+02  0.36196935954E+02  0.00000000000E+00 0.  1.
<mgrwt>
<rscale>  2 0.87055898E+02</rscale>
<asrwt>0</asrwt>
<pdfrwt beam="1">  1       21 0.74254730E-01 0.87055898E+02</pdfrwt>
<pdfrwt beam="2">  1       21 0.26393786E-02 0.87055898E+02</pdfrwt>
<totfact> 0.12657843E+06</totfact>
</mgrwt>
</event>
<event>
 5    1  0.1624116E+000  0.8010329E+02  0.7546771E-02  0.1328759E+00
         21   -1    0    0  503  502  0.00000000000E+00  0.00000000000E+00  0.11359972380E+03  0.11359972380E+03  0.00000000000E+00 0.  1.
         21   -1    0    0  501  503 -0.00000000000E+00 -0.00000000000E+00 -0.67753992476E+02  0.67753992476E+02  0.00000000000E+00 0.  1.
         24    1    1    2    0    0 -0.39855150775E+02 -0.32777638641E+02  0.85222877182E+01  0.95930453874E+02  0.80419002446E+02 0.  1.
          1    1    1    2  501    0  0.24748547138E+02 -0.38394099208E+01 -0.69751938763E+01  0.25997788052E+02  0.00000000000E+00 0. -1.
         -2    1    1    2    0  502  0.15106603638E+02  0.36617048561E+02  0.44298637478E+02  0.59425474346E+02  0.00000000000E+00 0.  1.
<mgrwt>
<rscale>  2 0.80103287E+02</rscale>
<asrwt>0</asrwt>
<pdfrwt beam="1">  1       21 0.17476881E-01 0.80103287E+02</pdfrwt>
<pdfrwt beam="2">  1       21 0.10423691E-01 0.80103287E+02</pdfrwt>
<totfact> 0.21803214E+06</totfact>
</mgrwt>
</event>
<event>
 5    1  0.1624116E+000  0.1079001E+03  0.7546771E-02  0.1264509E+00
         21   -1    0    0  503  502  0.00000000000E+00  0.00000000000E+00  0.78851306451E+03  0.78851306451E+03  0.00000000000E+00 0.  1.
         21   -1    0    0  501  503 -0.00000000000E+00 -0.00000000000E+00 -0.11509213371E+03  0.11509213371E+03  0.00000000000E+00 0. -1.
         24    1    1    2    0    0  0.45022200447E+02  0.75918640169E+02  0.16250971368E+03  0.20166125422E+03  0.80419002446E+02 0. -1.
          1    1    1    2  501    0  0.16202821933E+00 -0.36299723500E+02 -0.90515158819E+02  0.97522767369E+02  0.00000000000E+00 0. -1.
         -2    1    1    2    0  502 -0.45184228667E+02 -0.39618916669E+02  0.60142637595E+03  0.60442117663E+03  0.00000000000E+00 0.  1.
<mgrwt>
<rscale>  2 0.10790011E+03</rscale>
<asrwt>0</asrwt>
<pdfrwt beam="1">  1       21 0.12130970E+00 0.10790011E+03</pdfrwt>
<pdfrwt beam="2">  1       21 0.17706483E-01 0.10790011E+03</pdfrwt>
<totfact> 0.15904525E+04</totfact>
</mgrwt>
</event>
<event>
 5    1  0.1624116E+000  0.1064113E+03  0.7546771E-02  0.1267364E+00
         21   -1    0    0  501  502  0.00000000000E+00  0.00000000000E+00  0.18512309326E+04  0.18512309326E+04  0.00000000000E+00 0. -1.
         21   -1    0    0  502  503 -0.00000000000E+00 -0.00000000000E+00 -0.37366503638E+02  0.37366503638E+02  0.00000000000E+00 0.  1.
         24    1    1    2    0    0 -0.34855617449E+02  0.32471054563E+02  0.93896864876E+02  0.13248819057E+03  0.80419002446E+02 0.  1.
          1    1    1    2  501    0  0.40355041106E+02  0.33930877080E+02  0.16747629890E+04  0.16755927021E+04  0.00000000000E+00 0. -1.
         -2    1    1    2    0  503 -0.54994236574E+01 -0.66401931644E+02  0.45204575017E+02  0.80516543574E+02  0.00000000000E+00 0.  1.
<mgrwt>
<rscale>  2 0.10641132E+03</rscale>
<asrwt>0</asrwt>
<pdfrwt beam="1">  1       21 0.28480469E+00 0.10641132E+03</pdfrwt>
<pdfrwt beam="2">  1       21 0.57486943E-02 0.10641132E+03</pdfrwt>
<totfact> 0.99296069E+03</totfact>
</mgrwt>
</event>
<event>
 5    1  0.1624116E+000  0.6673337E+02  0.7546771E-02  0.1371567E+00
         21   -1    0    0  503  502  0.00000000000E+00  0.00000000000E+00  0.89002847213E+03  0.89002847213E+03  0.00000000000E+00 0.  1.
         21   -1    0    0  501  503 -0.00000000000E+00 -0.00000000000E+00 -0.81062607178E+01  0.81062607178E+01  0.00000000000E+00 0.  1.
         24    1    1    2    0    0  0.15227512567E+02 -0.98261380535E+01  0.53506848820E+03  0.54138150425E+03  0.80419002446E+02 0. -1.
          1    1    1    2  501    0  0.73921316782E+01  0.23475756460E+02  0.30018067185E+02  0.38818025576E+02  0.00000000000E+00 0. -1.
         -2    1    1    2    0  502 -0.22619644245E+02 -0.13649618406E+02  0.31683565603E+03  0.31793520302E+03  0.00000000000E+00 0.  1.
<mgrwt>
<rscale>  2 0.66733367E+02</rscale>
<asrwt>0</asrwt>
<pdfrwt beam="1">  1       21 0.13692738E+00 0.66733367E+02</pdfrwt>
<pdfrwt beam="2">  1       21 0.12471177E-02 0.66733367E+02</pdfrwt>
<totfact> 0.10108784E+06</totfact>
</mgrwt>
</event>
<event>
 5    1  0.1624116E+000  0.8143047E+02  0.7546771E-02  0.1325040E+00
         21   -1    0    0  501  502  0.00000000000E+00  0.00000000000E+00  0.17380557734E+03  0.17380557734E+03  0.00000000000E+00 0. -1.
         21   -1    0    0  502  503 -0.00000000000E+00 -0.00000000000E+00 -0.25732366540E+03  0.25732366540E+03  0.00000000000E+00 0. -1.
         24    1    1    2    0    0  0.21426126415E+02  0.23564268390E+02 -0.82756376940E+02  0.11970876123E+03  0.80419002446E+02 0. -1.
          1    1    1    2  501    0 -0.45355043273E+02 -0.26055730233E+02  0.14994454839E+03  0.15880600939E+03  0.00000000000E+00 0. -1.
         -2    1    1    2    0  503  0.23928916858E+02  0.24914618430E+01 -0.15070625950E+03  0.15261447211E+03  0.00000000000E+00 0.  1.
<mgrwt>
<rscale>  2 0.81430472E+02</rscale>
<asrwt>0</asrwt>
<pdfrwt beam="1">  1       21 0.26739320E-01 0.81430472E+02</pdfrwt>
<pdfrwt beam="2">  1       21 0.39588256E-01 0.81430472E+02</pdfrwt>
<totfact> 0.86190511E+04</totfact>
</mgrwt>
</event>
<event>
 5    1  0.1624116E+000  0.7450536E+02  0.7546771E-02  0.1345410E+00
         21   -1    0    0  503  502  0.00000000000E+00  0.00000000000E+00  0.88070260426E+03  0.88070260426E+03  0.00000000000E+00 0.  1.
         21   -1    0    0  501  503 -0.00000000000E+00 -0.00000000000E+00 -0.16330563102E+02  0.16330563102E+02  0.00000000000E+00 0.  1.
         24    1    1    2    0    0  0.46365250523E+00  0.50882051237E+02  0.41863206700E+03  0.42931249876E+03  0.80419002446E+02 0.  1.
          1    1    1    2  501    0 -0.88234729413E+01 -0.32028803763E+02  0.14938872168E+02  0.36426197261E+02  0.00000000000E+00 0. -1.
         -2    1    1    2    0  502  0.83598204360E+01 -0.18853247473E+02  0.43080110198E+03  0.43129447134E+03  0.00000000000E+00 0.  1.
<mgrwt>
<rscale>  2 0.74505355E+02</rscale>
<asrwt>0</asrwt>
<pdfrwt beam="1">  1       21 0.13549267E+00 0.74505355E+02</pdfrwt>
<pdfrwt beam="2">  1       21 0.25123950E-02 0.74505355E+02</pdfrwt>
<totfact> 0.34202125E+05</totfact>
</mgrwt>
</event>
<event>
 5    1  0.1624116E+000  0.1109274E+03  0.7546771E-02  0.1258862E+00
         21   -1    0    0  501  502  0.00000000000E+00  0.00000000000E+00  0.20461050061E+03  0.20461050061E+03  0.00000000000E+00 0.  1.
         21   -1    0    0  502  503 -0.00000000000E+00 -0.00000000000E+00 -0.63701126624E+02  0.63701126624E+02  0.00000000000E+00 0.  1.
         24    1    1    2    0    0 -0.47163733666E+02  0.81410836296E+02  0.48143099998E+02  0.13280480440E+03  0.80419002446E+02 0.  1.
          1    1    1    2  501    0  0.12616905864E+02 -0.49400200159E+02  0.56194692442E+02  0.75877595824E+02  0.00000000000E+00 0. -1.
         -2    1    1    2    0  503  0.34546827802E+02 -0.32010636138E+02  0.36571581546E+02  0.59629227011E+02  0.00000000000E+00 0.  1.
<mgrwt>
<rscale>  2 0.11092736E+03</rscale>
<asrwt>0</asrwt>
<pdfrwt beam="1">  1       21 0.31478538E-01 0.11092736E+03</pdfrwt>
<pdfrwt beam="2">  1       21 0.98001734E-02 0.11092736E+03</pdfrwt>
<totfact> 0.81776026E+05</totfact>
</mgrwt>
</event>
<event>
 5    1  0.1624116E+000  0.8880061E+02  0.7546771E-02  0.1305782E+00
         21   -1    0    0  501  502  0.00000000000E+00  0.00000000000E+00  0.10423627959E+03  0.10423627959E+03  0.00000000000E+00 0.  1.
         21   -1    0    0  502  503 -0.00000000000E+00 -0.00000000000E+00 -0.16843885347E+03  0.16843885347E+03  0.00000000000E+00 0. -1.
         24    1    1    2    0    0 -0.30491085580E+02 -0.63276055871E+02  0.61946337915E+02  0.12344282191E+03  0.80419002446E+02 0.  1.
          1    1    1    2  501    0  0.16494102571E+02  0.23917483679E+02 -0.20311682648E+02  0.35449483737E+02  0.00000000000E+00 0. -1.
         -2    1    1    2    0  503  0.13996983008E+02  0.39358572192E+02 -0.10583722915E+03  0.11378282741E+03  0.00000000000E+00 0.  1.
<mgrwt>
<rscale>  2 0.88800608E+02</rscale>
<asrwt>0</asrwt>
<pdfrwt beam="1">  1       21 0.16036351E-01 0.88800608E+02</pdfrwt>
<pdfrwt beam="2">  1       21 0.25913670E-01 0.88800608E+02</pdfrwt>
<totfact> 0.49602610E+05</totfact>
</mgrwt>
</event>
<event>
 5    1  0.1624116E+000  0.7193522E+02  0.7546771E-02  0.1353633E+00
         21   -1    0    0  503  502  0.00000000000E+00  0.00000000000E+00  0.98328104386E+03  0.98328104386E+03  0.00000000000E+00 0. -1.
         21   -1    0    0  501  503 -0.00000000000E+00 -0.00000000000E+00 -0.72547981277E+01  0.72547981277E+01  0.00000000000E+00 0.  1.
         24    1    1    2    0    0 -0.23129165269E+02  0.43119853515E+02  0.83891140646E+03  0.84417642936E+03  0.80419002446E+02 0. -1.
          1    1    1    2  501    0  0.74988329188E+01 -0.23398069427E+02  0.50451336529E+02  0.56116303385E+02  0.00000000000E+00 0. -1.
         -2    1    1    2    0  502  0.15630332351E+02 -0.19721784089E+02  0.86663502743E+02  0.90243109237E+02  0.00000000000E+00 0.  1.
<mgrwt>
<rscale>  2 0.71935225E+02</rscale>
<asrwt>0</asrwt>
<pdfrwt beam="1">  1       21 0.15127390E+00 0.71935225E+02</pdfrwt>
<pdfrwt beam="2">  1       21 0.11161236E-02 0.71935225E+02</pdfrwt>
<totfact> 0.93788596E+05</totfact>
</mgrwt>
</event>
<event>
 5    1  0.1624116E+000  0.8437401E+02  0.7546771E-02  0.1317078E+00
         21   -1    0    0  501  502  0.00000000000E+00  0.00000000000E+00  0.48538064553E+03  0.48538064553E+03  0.00000000000E+00 0.  1.
         21   -1    0    0  502  503 -0.00000000000E+00 -0.00000000000E+00 -0.17796165520E+02  0.17796165520E+02  0.00000000000E+00 0. -1.
         24    1    1    2    0    0  0.54233912739E+01  0.24922685525E+02  0.23667649692E+03  0.25126387241E+03  0.80419002446E+02 0.  0.
          1    1    1    2  501    0 -0.42784452188E+02 -0.17838928008E+02  0.19196855187E+03  0.19748585167E+03  0.00000000000E+00 0. -1.
         -2    1    1    2    0  503  0.37361060914E+02 -0.70837575164E+01  0.38939431215E+02  0.54427086975E+02  0.00000000000E+00 0.  1.
<mgrwt>
<rscale>  2 0.84374012E+02</rscale>
<asrwt>0</asrwt>
<pdfrwt beam="1">  1       21 0.74673935E-01 0.84374012E+02</pdfrwt>
<pdfrwt beam="2">  1       21 0.27378720E-02 0.84374012E+02</pdfrwt>
<totfact> 0.11777488E+06</totfact>
</mgrwt>
</event>
<event>
 5    1  0.1624116E+000  0.6773045E+02  0.7546771E-02  0.1367985E+00
         21   -1    0    0  503  502  0.00000000000E+00  0.00000000000E+00  0.70358481944E+03  0.70358481944E+03  0.00000000000E+00 0. -1.
         21   -1    0    0  501  503 -0.00000000000E+00 -0.00000000000E+00 -0.31819827508E+02  0.31819827508E+02  0.00000000000E+00 0.  1.
         24    1    1    2    0    0 -0.10389860145E+02 -0.27684985819E+02  0.64590160502E+03  0.65156005629E+03  0.80419002446E+02 0. -1.
          1    1    1    2  501    0 -0.14430348442E+02  0.18153522080E+02 -0.20137285628E+02  0.30713117597E+02  0.00000000000E+00 0. -1.
         -2    1    1    2    0  502  0.24820208587E+02  0.95314637390E+01  0.46000672534E+02  0.53131473054E+02  0.00000000000E+00 0.  1.
<mgrwt>
<rscale>  2 0.67730453E+02</rscale>
<asrwt>0</asrwt>
<pdfrwt beam="1">  1       21 0.10824381E+00 0.67730453E+02</pdfrwt>
<pdfrwt beam="2">  1       21 0.48953586E-02 0.67730453E+02</pdfrwt>
<totfact> 0.19809087E+05</totfact>
</mgrwt>
</event>
<event>
 5    1  0.1624116E+000  0.8609958E+02  0.7546771E-02  0.1312582E+00
         21   -1    0    0  501  502  0.00000000000E+00  0.00000000000E+00  0.99673719831E+02  0.99673719831E+02  0.00000000000E+00 0. -1.
         21   -1    0    0  502  503 -0.00000000000E+00 -0.00000000000E+00 -0.20084463217E+03  0.20084463217E+03  0.00000000000E+00 0.  1.
         24    1    1    2    0    0 -0.32144928488E+02  0.19908657854E+02 -0.55151787911E+02  0.10458769884E+03  0.80419002446E+02 0.  1.
          1    1    1    2  501    0  0.18900690542E+02  0.27914648954E+02  0.65612582348E+02  0.73766352028E+02  0.00000000000E+00 0. -1.
         -2    1    1    2    0  503  0.13244237946E+02 -0.47823306807E+02 -0.11163170678E+03  0.12216430113E+03  0.00000000000E+00 0.  1.
<mgrwt>
<rscale>  2 0.86099581E+02</rscale>
<asrwt>0</asrwt>
<pdfrwt beam="1">  1       21 0.15334419E-01 0.86099581E+02</pdfrwt>
<pdfrwt beam="2">  1       21 0.30899174E-01 0.86099581E+02</pdfrwt>
<totfact> 0.38503272E+05</totfact>
</mgrwt>
</event>
<event>
 5    1  0.1624116E+000  0.8624185E+02  0.7546771E-02  0.1312217E+00
         21   -1    0    0  501  502  0.00000000000E+00  0.00000000000E+00  0.15351813966E+03  0.15351813966E+03  0.00000000000E+00 0. -1.
         21   -1    0    0  502  503 -0.00000000000E+00 -0.00000000000E+00 -0.57813323026E+02  0.57813323026E+02  0.00000000000E+00 0. -1.
         24    1    1    2    0    0 -0.58055377070E+02 -0.22293184813E+02  0.23702129797E+02  0.10438591767E+03  0.80419002446E+02 0. -1.
          1    1    1    2  501    0  0.18567590157E+02 -0.88161344745E+01  0.45923312080E+02  0.50313320539E+02  0.00000000000E+00 0. -1.
         -2    1    1    2    0  503  0.39487786913E+02  0.31109319287E+02  0.26079374756E+02  0.56632224479E+02  0.00000000000E+00 0.  1.
<mgrwt>
<rscale>  2 0.86241854E+02</rscale>
<asrwt>0</asrwt>
<pdfrwt beam="1">  1       21 0.23618175E-01 0.86241854E+02</pdfrwt>
<pdfrwt beam="2">  1       21 0.88943575E-02 0.86241854E+02</pdfrwt>
<totfact> 0.16574140E+06</totfact>
</mgrwt>
</event>
<event>
 5    1  0.1624116E+000  0.9602467E+02  0.7546771E-02  0.1288885E+00
         21   -1    0    0  503  502  0.00000000000E+00  0.00000000000E+00  0.31983376605E+03  0.31983376605E+03  0.00000000000E+00 0. -1.
         21   -1    0    0  501  503 -0.00000000000E+00 -0.00000000000E+00 -0.49051132978E+02  0.49051132978E+02  0.00000000000E+00 0. -1.
         24    1    1    2    0    0 -0.41747959148E+01 -0.78513812801E+02  0.12447201012E+03  0.16775680308E+03  0.80419002446E+02 0. -1.
          1    1    1    2  501    0  0.76954683310E+01  0.31138489210E+02 -0.13206213689E+02  0.34687603306E+02  0.00000000000E+00 0. -1.
         -2    1    1    2    0  502 -0.35206724162E+01  0.47375323591E+02  0.15951683664E+03  0.16644049264E+03  0.00000000000E+00 0.  1.
<mgrwt>
<rscale>  2 0.96024666E+02</rscale>
<asrwt>0</asrwt>
<pdfrwt beam="1">  1       21 0.49205194E-01 0.96024666E+02</pdfrwt>
<pdfrwt beam="2">  1       21 0.75463283E-02 0.96024666E+02</pdfrwt>
<totfact> 0.52858871E+05</totfact>
</mgrwt>
</event>
<event>
 5    1  0.1624116E+000  0.1321007E+03  0.7546771E-02  0.1224372E+00
         21   -1    0    0  501  502  0.00000000000E+00  0.00000000000E+00  0.37169633842E+03  0.37169633842E+03  0.00000000000E+00 0. -1.
         21   -1    0    0  502  503 -0.00000000000E+00 -0.00000000000E+00 -0.26546332449E+03  0.26546332449E+03  0.00000000000E+00 0. -1.
         24    1    1    2    0    0  0.58194747285E+02 -0.38221646933E+02 -0.10194995266E+03  0.14733815428E+03  0.80419002446E+02 0. -1.
          1    1    1    2  501    0 -0.93889747177E+02 -0.13636782801E+02  0.33503339835E+03  0.34820773179E+03  0.00000000000E+00 0. -1.
         -2    1    1    2    0  503  0.35694999892E+02  0.51858429734E+02 -0.12685043176E+03  0.14161377684E+03  0.00000000000E+00 0.  1.
<mgrwt>
<rscale>  2 0.13210072E+03</rscale>
<asrwt>0</asrwt>
<pdfrwt beam="1">  1       21 0.57184052E-01 0.13210072E+03</pdfrwt>
<pdfrwt beam="2">  1       21 0.40840511E-01 0.13210072E+03</pdfrwt>
<totfact> 0.17273577E+04</totfact>
</mgrwt>
</event>
<event>
 5    1  0.1624116E+000  0.1354616E+03  0.7546771E-02  0.1219570E+00
         21   -1    0    0  501  502  0.00000000000E+00  0.00000000000E+00  0.10125197419E+04  0.10125197419E+04  0.00000000000E+00 0. -1.
         21   -1    0    0  502  503 -0.00000000000E+00 -0.00000000000E+00 -0.19880829478E+02  0.19880829478E+02  0.00000000000E+00 0. -1.
         24    1    1    2    0    0  0.10145914014E+03  0.69837658686E+02  0.42392551457E+03  0.44872186658E+03  0.80419002446E+02 0. -1.
          1    1    1    2  501    0 -0.71194295023E+02 -0.55826003466E+02  0.48851702070E+03  0.49682396261E+03  0.00000000000E+00 0. -1.
         -2    1    1    2    0  503 -0.30264845119E+02 -0.14011655220E+02  0.80196377103E+02  0.86854742142E+02  0.00000000000E+00 0.  1.
<mgrwt>
<rscale>  2 0.13546156E+03</rscale>
<asrwt>0</asrwt>
<pdfrwt beam="1">  1       21 0.15577223E+00 0.13546156E+03</pdfrwt>
<pdfrwt beam="2">  1       21 0.30585899E-02 0.13546156E+03</pdfrwt>
<totfact> 0.16989410E+05</totfact>
</mgrwt>
</event>
<event>
 5    1  0.1624116E+000  0.1130300E+03  0.7546771E-02  0.1255060E+00
         21   -1    0    0  501  502  0.00000000000E+00  0.00000000000E+00  0.67509315376E+02  0.67509315376E+02  0.00000000000E+00 0.  1.
         21   -1    0    0  502  503 -0.00000000000E+00 -0.00000000000E+00 -0.26374649395E+03  0.26374649395E+03  0.00000000000E+00 0. -1.
         24    1    1    2    0    0 -0.24159479723E+02 -0.69527241097E+02 -0.18360845181E+03  0.21353453408E+03  0.80419002446E+02 0. -1.
          1    1    1    2  501    0 -0.12738738842E+02 -0.18001953219E+02 -0.24265050278E+01  0.22186340699E+02  0.00000000000E+00 0. -1.
         -2    1    1    2    0  503  0.36898218565E+02  0.87529194315E+02 -0.10202221739E+02  0.95534934549E+02  0.00000000000E+00 0.  1.
<mgrwt>
<rscale>  2 0.11302996E+03</rscale>
<asrwt>0</asrwt>
<pdfrwt beam="1">  1       21 0.10386049E-01 0.11302996E+03</pdfrwt>
<pdfrwt beam="2">  1       21 0.40576384E-01 0.11302996E+03</pdfrwt>
<totfact> 0.44900347E+05</totfact>
</mgrwt>
</event>
<event>
 5    1  0.1624116E+000  0.7972012E+02  0.7546771E-02  0.1329848E+00
         21   -1    0    0  501  502  0.00000000000E+00  0.00000000000E+00  0.10774294213E+03  0.10774294213E+03  0.00000000000E+00 0. -1.
         21   -1    0    0  502  503 -0.00000000000E+00 -0.00000000000E+00 -0.10653587375E+03  0.10653587375E+03  0.00000000000E+00 0. -1.
         24    1    1    2    0    0  0.33060149420E+02  0.49155571811E+02 -0.68750395128E+02  0.12125624316E+03  0.80419002446E+02 0. -1.
          1    1    1    2  501    0 -0.20880210774E+02 -0.25562130069E+02  0.49539515118E+02  0.59527886353E+02  0.00000000000E+00 0. -1.
         -2    1    1    2    0  503 -0.12179938647E+02 -0.23593441742E+02  0.20417948387E+02  0.33494686370E+02  0.00000000000E+00 0.  1.
<mgrwt>
<rscale>  2 0.79720119E+02</rscale>
<asrwt>0</asrwt>
<pdfrwt beam="1">  1       21 0.16575837E-01 0.79720119E+02</pdfrwt>
<pdfrwt beam="2">  1       21 0.16390135E-01 0.79720119E+02</pdfrwt>
<totfact> 0.10807558E+06</totfact>
</mgrwt>
</event>
<event>
 5    1  0.1624116E+000  0.6772583E+02  0.7546771E-02  0.1368002E+00
         21   -1    0    0  501  502  0.00000000000E+00  0.00000000000E+00  0.21578944294E+02  0.21578944294E+02  0.00000000000E+00 0.  1.
         21   -1    0    0  502  503 -0.00000000000E+00 -0.00000000000E+00 -0.18292281315E+04  0.18292281315E+04  0.00000000000E+00 0.  1.
         24    1    1    2    0    0 -0.10383878126E+02  0.13903548317E+02 -0.28952034976E+03  0.30098236237E+03  0.80419002446E+02 0.  0.
          1    1    1    2  501    0  0.25021985024E+02  0.84944739014E+01  0.46331753481E+01  0.26827637526E+02  0.00000000000E+00 0. -1.
         -2    1    1    2    0  503 -0.14638106898E+02 -0.22398022218E+02 -0.15227620128E+04  0.15229970759E+04  0.00000000000E+00 0.  1.
<mgrwt>
<rscale>  2 0.67725835E+02</rscale>
<asrwt>0</asrwt>
<pdfrwt beam="1">  1       21 0.33198382E-02 0.67725835E+02</pdfrwt>
<pdfrwt beam="2">  1       21 0.28141966E+00 0.67725835E+02</pdfrwt>
<totfact> 0.27804787E+04</totfact>
</mgrwt>
</event>
<event>
 5    1  0.1624116E+000  0.6235264E+02  0.7546771E-02  0.1388216E+00
         21   -1    0    0  501  502  0.00000000000E+00  0.00000000000E+00  0.69619272576E+03  0.69619272576E+03  0.00000000000E+00 0.  1.
         21   -1    0    0  502  503 -0.00000000000E+00 -0.00000000000E+00 -0.14012760235E+02  0.14012760235E+02  0.00000000000E+00 0.  1.
         24    1    1    2    0    0 -0.18111252060E+02  0.50009193011E+01  0.38715202210E+03  0.39586226243E+03  0.80419002446E+02 0.  1.
          1    1    1    2  501    0  0.43177557570E+01 -0.20744559437E+02  0.29249231551E+03  0.29325881810E+03  0.00000000000E+00 0. -1.
         -2    1    1    2    0  503  0.13793496303E+02  0.15743640136E+02  0.25356279159E+01  0.21084405467E+02  0.00000000000E+00 0.  1.
<mgrwt>
<rscale>  2 0.62352642E+02</rscale>
<asrwt>0</asrwt>
<pdfrwt beam="1">  1       21 0.10710655E+00 0.62352642E+02</pdfrwt>
<pdfrwt beam="2">  1       21 0.21558098E-02 0.62352642E+02</pdfrwt>
<totfact> 0.76544398E+05</totfact>
</mgrwt>
</event>
<event>
 5    1  0.1624116E+000  0.7123607E+02  0.7546771E-02  0.1355939E+00
         21   -1    0    0  503  502  0.00000000000E+00  0.00000000000E+00  0.44929440260E+03  0.44929440260E+03  0.00000000000E+00 0. -1.
         21   -1    0    0  501  503 -0.00000000000E+00 -0.00000000000E+00 -0.21432598622E+02  0.21432598622E+02  0.00000000000E+00 0.  1.
         24    1    1    2    0    0 -0.38095524370E+02 -0.18007988579E+02  0.38063419542E+03  0.39131210473E+03  0.80419002446E+02 0. -1.
          1    1    1    2  501    0  0.18964207127E+02 -0.69832749821E+01 -0.27065832149E+01  0.20389528542E+02  0.00000000000E+00 0. -1.
         -2    1    1    2    0  502  0.19131317243E+02  0.24991263561E+02  0.49934191766E+02  0.59025367946E+02  0.00000000000E+00 0.  1.
<mgrwt>
<rscale>  2 0.71236068E+02</rscale>
<asrwt>0</asrwt>
<pdfrwt beam="1">  1       21 0.69122208E-01 0.71236068E+02</pdfrwt>
<pdfrwt beam="2">  1       21 0.32973232E-02 0.71236068E+02</pdfrwt>
<totfact> 0.10259514E+06</totfact>
</mgrwt>
</event>
<event>
 5    1  0.1624116E+000  0.1207687E+03  0.7546771E-02  0.1241834E+00
         21   -1    0    0  503  502  0.00000000000E+00  0.00000000000E+00  0.29554815239E+03  0.29554815239E+03  0.00000000000E+00 0. -1.
         21   -1    0    0  501  503 -0.00000000000E+00 -0.00000000000E+00 -0.69913126709E+02  0.69913126709E+02  0.00000000000E+00 0. -1.
         24    1    1    2    0    0 -0.57843653338E+02 -0.58560660913E+02  0.93895613442E+02  0.14852219166E+03  0.80419002446E+02 0.  0.
          1    1    1    2  501    0 -0.26975875896E+02  0.10314831673E+02 -0.20986891621E+02  0.35700745828E+02  0.00000000000E+00 0. -1.
         -2    1    1    2    0  502  0.84819529234E+02  0.48245829240E+02  0.15272630386E+03  0.18123834161E+03  0.00000000000E+00 0.  1.
<mgrwt>
<rscale>  2 0.12076867E+03</rscale>
<asrwt>0</asrwt>
<pdfrwt beam="1">  1       21 0.45468946E-01 0.12076867E+03</pdfrwt>
<pdfrwt beam="2">  1       21 0.10755866E-01 0.12076867E+03</pdfrwt>
<totfact> 0.33545599E+05</totfact>
</mgrwt>
</event>
<event>
 5    1  0.1624116E+000  0.7392076E+02  0.7546771E-02  0.1347246E+00
         21   -1    0    0  503  502  0.00000000000E+00  0.00000000000E+00  0.10059645852E+02  0.10059645852E+02  0.00000000000E+00 0.  1.
         21   -1    0    0  501  503 -0.00000000000E+00 -0.00000000000E+00 -0.64816900078E+03  0.64816900078E+03  0.00000000000E+00 0.  1.
         24    1    1    2    0    0  0.30240924232E+01 -0.28054792108E+02 -0.33702836683E+03  0.34763709885E+03  0.80419002446E+02 0.  0.
          1    1    1    2  501    0  0.23353855560E+02 -0.99737701794E+00 -0.21156520473E+03  0.21285260906E+03  0.00000000000E+00 0. -1.
         -2    1    1    2    0  502 -0.26377947984E+02  0.29052169126E+02 -0.89515783375E+02  0.97738938729E+02  0.00000000000E+00 0.  1.
<mgrwt>
<rscale>  2 0.73920758E+02</rscale>
<asrwt>0</asrwt>
<pdfrwt beam="1">  1       21 0.15476380E-02 0.73920758E+02</pdfrwt>
<pdfrwt beam="2">  1       21 0.99718298E-01 0.73920758E+02</pdfrwt>
<totfact> 0.15304283E+06</totfact>
</mgrwt>
</event>
<event>
 5    1  0.1624116E+000  0.2065286E+03  0.7546771E-02  0.1144345E+00
         21   -1    0    0  501  502  0.00000000000E+00  0.00000000000E+00  0.24841649168E+03  0.24841649168E+03  0.00000000000E+00 0.  1.
         21   -1    0    0  502  503 -0.00000000000E+00 -0.00000000000E+00 -0.17697512490E+03  0.17697512490E+03  0.00000000000E+00 0. -1.
         24    1    1    2    0    0 -0.10311784090E+03  0.34326067671E+02 -0.93759842573E+01  0.13552377308E+03  0.80419002446E+02 0. -1.
          1    1    1    2  501    0  0.13884780082E+03  0.78505193783E+02  0.55090856344E+02  0.16875064354E+03  0.00000000000E+00 0. -1.
         -2    1    1    2    0  503 -0.35729959914E+02 -0.11283126145E+03  0.25726494699E+02  0.12111719996E+03  0.00000000000E+00 0.  1.
<mgrwt>
<rscale>  2 0.20652861E+03</rscale>
<asrwt>0</asrwt>
<pdfrwt beam="1">  1       21 0.38217922E-01 0.20652861E+03</pdfrwt>
<pdfrwt beam="2">  1       21 0.27226942E-01 0.20652861E+03</pdfrwt>
<totfact> 0.84413377E+04</totfact>
</mgrwt>
</event>
<event>
 5    1  0.1624116E+000  0.7885506E+02  0.7546771E-02  0.1332332E+00
         21   -1    0    0  501  502  0.00000000000E+00  0.00000000000E+00  0.92852761986E+03  0.92852761986E+03  0.00000000000E+00 0.  1.
         21   -1    0    0  502  503 -0.00000000000E+00 -0.00000000000E+00 -0.10057654490E+02  0.10057654490E+02  0.00000000000E+00 0.  1.
         24    1    1    2    0    0 -0.22472776515E+02  0.24809018283E+02  0.37232894955E+03  0.38238276072E+03  0.80419002446E+02 0.  0.
          1    1    1    2  501    0  0.55948563290E+01 -0.44395863658E+02  0.50891420579E+03  0.51087764091E+03  0.00000000000E+00 0. -1.
         -2    1    1    2    0  503  0.16877920187E+02  0.19586845375E+02  0.37226810030E+02  0.45324872714E+02  0.00000000000E+00 0.  1.
<mgrwt>
<rscale>  2 0.78855060E+02</rscale>
<asrwt>0</asrwt>
<pdfrwt beam="1">  1       21 0.14285034E+00 0.78855060E+02</pdfrwt>
<pdfrwt beam="2">  1       21 0.15473322E-02 0.78855060E+02</pdfrwt>
<totfact> 0.64836818E+05</totfact>
</mgrwt>
</event>
<event>
 5    1  0.1624116E+000  0.6902003E+02  0.7546771E-02  0.1363458E+00
         21   -1    0    0  501  502  0.00000000000E+00  0.00000000000E+00  0.15342461796E+04  0.15342461796E+04  0.00000000000E+00 0. -1.
         21   -1    0    0  502  503 -0.00000000000E+00 -0.00000000000E+00 -0.65596408404E+01  0.65596408404E+01  0.00000000000E+00 0. -1.
         24    1    1    2    0    0 -0.45490790142E+02 -0.12370242514E+01  0.35161161554E+03  0.36355039039E+03  0.80419002446E+02 0. -1.
          1    1    1    2  501    0  0.21615949035E+02  0.23095712732E+01  0.86140274303E+03  0.86167700971E+03  0.00000000000E+00 0. -1.
         -2    1    1    2    0  503  0.23874841107E+02 -0.10725470218E+01  0.31467218019E+03  0.31557842033E+03  0.00000000000E+00 0.  1.
<mgrwt>
<rscale>  2 0.69020029E+02</rscale>
<asrwt>0</asrwt>
<pdfrwt beam="1">  1       21 0.23603759E+00 0.69020029E+02</pdfrwt>
<pdfrwt beam="2">  1       21 0.10091767E-02 0.69020029E+02</pdfrwt>
<totfact> 0.32363245E+05</totfact>
</mgrwt>
</event>
<event>
 5    1  0.1624116E+000  0.8610561E+02  0.7546771E-02  0.1312566E+00
         21   -1    0    0  503  502  0.00000000000E+00  0.00000000000E+00  0.54492722694E+03  0.54492722694E+03  0.00000000000E+00 0.  1.
         21   -1    0    0  501  503 -0.00000000000E+00 -0.00000000000E+00 -0.23092954982E+02  0.23092954982E+02  0.00000000000E+00 0. -1.
         24    1    1    2    0    0 -0.23011500512E+00 -0.19752639117E+02  0.38451306204E+03  0.39332903597E+03  0.80419002446E+02 0.  1.
          1    1    1    2  501    0 -0.25564148171E+02 -0.26262260734E+02  0.11746635966E+02  0.38486562163E+02  0.00000000000E+00 0. -1.
         -2    1    1    2    0  502  0.25794263176E+02  0.46014899852E+02  0.12557457395E+03  0.13620458378E+03  0.00000000000E+00 0.  1.
<mgrwt>
<rscale>  2 0.86105605E+02</rscale>
<asrwt>0</asrwt>
<pdfrwt beam="1">  1       21 0.83834948E-01 0.86105605E+02</pdfrwt>
<pdfrwt beam="2">  1       21 0.35527627E-02 0.86105605E+02</pdfrwt>
<totfact> 0.59778991E+05</totfact>
</mgrwt>
</event>
<event>
 5    1  0.1624116E+000  0.6894774E+02  0.7546771E-02  0.1363708E+00
         21   -1    0    0  501  502  0.00000000000E+00  0.00000000000E+00  0.92844105044E+02  0.92844105044E+02  0.00000000000E+00 0.  1.
         21   -1    0    0  502  503 -0.00000000000E+00 -0.00000000000E+00 -0.96162216436E+02  0.96162216436E+02  0.00000000000E+00 0.  1.
         24    1    1    2    0    0 -0.32392868896E+02  0.26936430384E+02  0.28577351842E+02  0.95177467028E+02  0.80419002446E+02 0.  1.
          1    1    1    2  501    0  0.11704433879E+02 -0.23340716937E+02  0.23161581613E+02  0.34903319360E+02  0.00000000000E+00 0. -1.
         -2    1    1    2    0  503  0.20688435017E+02 -0.35957134473E+01 -0.55057044846E+02  0.58925535092E+02  0.00000000000E+00 0.  1.
<mgrwt>
<rscale>  2 0.68947743E+02</rscale>
<asrwt>0</asrwt>
<pdfrwt beam="1">  1       21 0.14283709E-01 0.68947743E+02</pdfrwt>
<pdfrwt beam="2">  1       21 0.14794187E-01 0.68947743E+02</pdfrwt>
<totfact> 0.16813017E+06</totfact>
</mgrwt>
</event>
<event>
 5    1  0.1624116E+000  0.7955917E+02  0.7546771E-02  0.1330307E+00
         21   -1    0    0  503  502  0.00000000000E+00  0.00000000000E+00  0.29018558707E+04  0.29018558707E+04  0.00000000000E+00 0. -1.
         21   -1    0    0  501  503 -0.00000000000E+00 -0.00000000000E+00 -0.22082072955E+01  0.22082072955E+01  0.00000000000E+00 0. -1.
         24    1    1    2    0    0 -0.33819340573E+02  0.46527913851E+02  0.17185720812E+04  0.17214138981E+04  0.80419002446E+02 0. -1.
          1    1    1    2  501    0  0.11213822806E+02 -0.30606241004E+02  0.54496368453E+03  0.54593764229E+03  0.00000000000E+00 0. -1.
         -2    1    1    2    0  502  0.22605517766E+02 -0.15921672847E+02  0.63611189773E+03  0.63671253760E+03  0.00000000000E+00 0.  1.
<mgrwt>
<rscale>  2 0.79559171E+02</rscale>
<asrwt>0</asrwt>
<pdfrwt beam="1">  1       21 0.44643631E+00 0.79559171E+02</pdfrwt>
<pdfrwt beam="2">  1       21 0.33972652E-03 0.79559171E+02</pdfrwt>
<totfact> 0.10739146E+05</totfact>
</mgrwt>
</event>
<event>
 5    1  0.1624116E+000  0.6823512E+02  0.7546771E-02  0.1366200E+00
         21   -1    0    0  501  502  0.00000000000E+00  0.00000000000E+00  0.45199649579E+03  0.45199649579E+03  0.00000000000E+00 0.  1.
         21   -1    0    0  502  503 -0.00000000000E+00 -0.00000000000E+00 -0.13820380820E+02  0.13820380820E+02  0.00000000000E+00 0. -1.
         24    1    1    2    0    0 -0.58879187089E+01 -0.10771816650E+02  0.16036654931E+03  0.17982031508E+03  0.80419002446E+02 0.  0.
          1    1    1    2  501    0 -0.23960884471E+02  0.21850547029E+01  0.21045249368E+03  0.21182339471E+03  0.00000000000E+00 0. -1.
         -2    1    1    2    0  503  0.29848803180E+02  0.85867619473E+01  0.67357071970E+02  0.74173166822E+02  0.00000000000E+00 0.  1.
<mgrwt>
<rscale>  2 0.68235118E+02</rscale>
<asrwt>0</asrwt>
<pdfrwt beam="1">  1       21 0.69537911E-01 0.68235118E+02</pdfrwt>
<pdfrwt beam="2">  1       21 0.21262128E-02 0.68235118E+02</pdfrwt>
<totfact> 0.20466479E+06</totfact>
</mgrwt>
</event>
<event>
 5    1  0.1624116E+000  0.8266211E+02  0.7546771E-02  0.1321662E+00
         21   -1    0    0  503  502  0.00000000000E+00  0.00000000000E+00  0.45091392067E+03  0.45091392067E+03  0.00000000000E+00 0.  1.
         21   -1    0    0  501  503 -0.00000000000E+00 -0.00000000000E+00 -0.64212103503E+02  0.64212103503E+02  0.00000000000E+00 0.  1.
         24    1    1    2    0    0 -0.56811944920E+02  0.25560034848E+02  0.34774711780E+03  0.36232055746E+03  0.80419002446E+02 0.  0.
          1    1    1    2  501    0  0.19589776578E+02 -0.15666695612E+02 -0.49962252716E+02  0.55905557811E+02  0.00000000000E+00 0. -1.
         -2    1    1    2    0  502  0.37222168342E+02 -0.98933392361E+01  0.88916952086E+02  0.96899908904E+02  0.00000000000E+00 0.  1.
<mgrwt>
<rscale>  2 0.82662110E+02</rscale>
<asrwt>0</asrwt>
<pdfrwt beam="1">  1       21 0.69371370E-01 0.82662110E+02</pdfrwt>
<pdfrwt beam="2">  1       21 0.98787854E-02 0.82662110E+02</pdfrwt>
<totfact> 0.16273918E+05</totfact>
</mgrwt>
</event>
<event>
 5    1  0.1624116E+000  0.6978400E+02  0.7546771E-02  0.1360829E+00
         21   -1    0    0  501  502  0.00000000000E+00  0.00000000000E+00  0.28683515965E+03  0.28683515965E+03  0.00000000000E+00 0. -1.
         21   -1    0    0  502  503 -0.00000000000E+00 -0.00000000000E+00 -0.30094054001E+02  0.30094054001E+02  0.00000000000E+00 0. -1.
         24    1    1    2    0    0 -0.40288241770E+02  0.79348352819E+01  0.82018493208E+02  0.12198505326E+03  0.80419002446E+02 0. -1.
          1    1    1    2  501    0  0.13462491747E+02 -0.16329734437E+02  0.16319826240E+03  0.16456479503E+03  0.00000000000E+00 0. -1.
         -2    1    1    2    0  503  0.26825750024E+02  0.83948991554E+01  0.11524350036E+02  0.30379365364E+02  0.00000000000E+00 0.  1.
<mgrwt>
<rscale>  2 0.69783995E+02</rscale>
<asrwt>0</asrwt>
<pdfrwt beam="1">  1       21 0.44128484E-01 0.69783995E+02</pdfrwt>
<pdfrwt beam="2">  1       21 0.46298547E-02 0.69783995E+02</pdfrwt>
<totfact> 0.14838004E+06</totfact>
</mgrwt>
</event>
<event>
 5    1  0.1624116E+000  0.9601856E+02  0.7546771E-02  0.1288898E+00
         21   -1    0    0  503  502  0.00000000000E+00  0.00000000000E+00  0.19148440129E+02  0.19148440129E+02  0.00000000000E+00 0.  1.
         21   -1    0    0  501  503 -0.00000000000E+00 -0.00000000000E+00 -0.51002367465E+03  0.51002367465E+03  0.00000000000E+00 0. -1.
         24    1    1    2    0    0  0.12575021183E+02 -0.39828710275E+02 -0.22782579746E+03  0.24518618897E+03  0.80419002446E+02 0.  0.
          1    1    1    2  501    0  0.40169115754E+02  0.21635550010E+02 -0.16480630011E+03  0.17100517957E+03  0.00000000000E+00 0. -1.
         -2    1    1    2    0  502 -0.52744136938E+02  0.18193160266E+02 -0.98243136962E+02  0.11298074624E+03  0.00000000000E+00 0.  1.
<mgrwt>
<rscale>  2 0.96018561E+02</rscale>
<asrwt>0</asrwt>
<pdfrwt beam="1">  1       21 0.29459140E-02 0.96018561E+02</pdfrwt>
<pdfrwt beam="2">  1       21 0.78465177E-01 0.96018561E+02</pdfrwt>
<totfact> 0.93997082E+05</totfact>
</mgrwt>
</event>
<event>
 5    1  0.1624116E+000  0.9502809E+02  0.7546771E-02  0.1291113E+00
         21   -1    0    0  503  502  0.00000000000E+00  0.00000000000E+00  0.52749520153E+03  0.52749520153E+03  0.00000000000E+00 0. -1.
         21   -1    0    0  501  503 -0.00000000000E+00 -0.00000000000E+00 -0.29521748941E+02  0.29521748941E+02  0.00000000000E+00 0.  1.
         24    1    1    2    0    0 -0.25128372264E+02  0.50460746890E+02  0.89382717336E+02  0.13279385596E+03  0.80419002446E+02 0.  1.
          1    1    1    2  501    0  0.17059947415E+02  0.16895119822E+02  0.24933304906E+02  0.34614398350E+02  0.00000000000E+00 0. -1.
         -2    1    1    2    0  502  0.80684248488E+01 -0.67355866713E+02  0.38365743034E+03  0.38960869615E+03  0.00000000000E+00 0.  1.
<mgrwt>
<rscale>  2 0.95028091E+02</rscale>
<asrwt>0</asrwt>
<pdfrwt beam="1">  1       21 0.81153101E-01 0.95028091E+02</pdfrwt>
<pdfrwt beam="2">  1       21 0.45418079E-02 0.95028091E+02</pdfrwt>
<totfact> 0.42854474E+05</totfact>
</mgrwt>
</event>
<event>
 5    1  0.1624116E+000  0.1149859E+03  0.7546771E-02  0.1251606E+00
         21   -1    0    0  503  502  0.00000000000E+00  0.00000000000E+00  0.84603133008E+03  0.84603133008E+03  0.00000000000E+00 0.  1.
         21   -1    0    0  501  503 -0.00000000000E+00 -0.00000000000E+00 -0.46612144318E+02  0.46612144318E+02  0.00000000000E+00 0.  1.
         24    1    1    2    0    0  0.72711849601E+02  0.48108339553E+02  0.15583603909E+03  0.19584052808E+03  0.80419002446E+02 0.  1.
          1    1    1    2  501    0 -0.15571794399E+02  0.18118476583E+02 -0.17716988671E+02  0.29743094359E+02  0.00000000000E+00 0. -1.
         -2    1    1    2    0  502 -0.57140055203E+02 -0.66226816135E+02  0.66130013535E+03  0.66705985196E+03  0.00000000000E+00 0.  1.
<mgrwt>
<rscale>  2 0.11498588E+03</rscale>
<asrwt>0</asrwt>
<pdfrwt beam="1">  1       21 0.13015865E+00 0.11498588E+03</pdfrwt>
<pdfrwt beam="2">  1       21 0.71710997E-02 0.11498588E+03</pdfrwt>
<totfact> 0.65232786E+04</totfact>
</mgrwt>
</event>
<event>
 5    1  0.1624116E+000  0.9084468E+02  0.7546771E-02  0.1300819E+00
         21   -1    0    0  503  502  0.00000000000E+00  0.00000000000E+00  0.16857771291E+03  0.16857771291E+03  0.00000000000E+00 0. -1.
         21   -1    0    0  501  503 -0.00000000000E+00 -0.00000000000E+00 -0.53003064800E+02  0.53003064800E+02  0.00000000000E+00 0.  1.
         24    1    1    2    0    0 -0.61837485798E+02  0.25811707497E+02  0.57197412003E+02  0.11928486403E+03  0.80419002446E+02 0.  0.
          1    1    1    2  501    0  0.23674527775E+02  0.90284446882E+01  0.14002318360E+01  0.25376302489E+02  0.00000000000E+00 0. -1.
         -2    1    1    2    0  502  0.38162958023E+02 -0.34840152185E+02  0.56977004272E+02  0.76919611187E+02  0.00000000000E+00 0.  1.
<mgrwt>
<rscale>  2 0.90844684E+02</rscale>
<asrwt>0</asrwt>
<pdfrwt beam="1">  1       21 0.25935032E-01 0.90844684E+02</pdfrwt>
<pdfrwt beam="2">  1       21 0.81543178E-02 0.90844684E+02</pdfrwt>
<totfact> 0.16179575E+06</totfact>
</mgrwt>
</event>
<event>
 5    1  0.1624116E+000  0.1028036E+03  0.7546771E-02  0.1274508E+00
         21   -1    0    0  503  502  0.00000000000E+00  0.00000000000E+00  0.20223417235E+04  0.20223417235E+04  0.00000000000E+00 0. -1.
         21   -1    0    0  501  503 -0.00000000000E+00 -0.00000000000E+00 -0.63447933055E+01  0.63447933055E+01  0.00000000000E+00 0. -1.
         24    1    1    2    0    0  0.18959369081E+01  0.60786160494E+02  0.82261189746E+03  0.82876782134E+03  0.80419002446E+02 0. -1.
          1    1    1    2  501    0 -0.63584026304E+01 -0.82433983183E+02  0.55243816196E+03  0.55859082847E+03  0.00000000000E+00 0. -1.
         -2    1    1    2    0  502  0.44624657223E+01  0.21647822689E+02  0.64094687074E+03  0.64132786696E+03  0.00000000000E+00 0.  1.
<mgrwt>
<rscale>  2 0.10280363E+03</rscale>
<asrwt>0</asrwt>
<pdfrwt beam="1">  1       21 0.31112898E+00 0.10280363E+03</pdfrwt>
<pdfrwt beam="2">  1       21 0.97612366E-03 0.10280363E+03</pdfrwt>
<totfact> 0.12599428E+05</totfact>
</mgrwt>
</event>
<event>
 5    1  0.1624116E+000  0.7651739E+02  0.7546771E-02  0.1339236E+00
         21   -1    0    0  503  502  0.00000000000E+00  0.00000000000E+00  0.33392202096E+02  0.33392202096E+02  0.00000000000E+00 0. -1.
         21   -1    0    0  501  503 -0.00000000000E+00 -0.00000000000E+00 -0.59789955329E+03  0.59789955329E+03  0.00000000000E+00 0. -1.
         24    1    1    2    0    0  0.52588258744E+02 -0.11666348851E+02 -0.66241431358E+02  0.11728926565E+03  0.80419002446E+02 0. -1.
          1    1    1    2  501    0 -0.25702724271E+02 -0.25505297371E+01 -0.47502315422E+03  0.47572484935E+03  0.00000000000E+00 0. -1.
         -2    1    1    2    0  502 -0.26885534472E+02  0.14216878588E+02 -0.23242765611E+02  0.38277640391E+02  0.00000000000E+00 0.  1.
<mgrwt>
<rscale>  2 0.76517385E+02</rscale>
<asrwt>0</asrwt>
<pdfrwt beam="1">  1       21 0.51372618E-02 0.76517385E+02</pdfrwt>
<pdfrwt beam="2">  1       21 0.91984548E-01 0.76517385E+02</pdfrwt>
<totfact> 0.26487991E+05</totfact>
</mgrwt>
</event>
<event>
 5    1  0.1624116E+000  0.9685164E+02  0.7546771E-02  0.1287059E+00
         21   -1    0    0  503  502  0.00000000000E+00  0.00000000000E+00  0.12864354282E+02  0.12864354282E+02  0.00000000000E+00 0. -1.
         21   -1    0    0  501  503 -0.00000000000E+00 -0.00000000000E+00 -0.85252927452E+03  0.85252927452E+03  0.00000000000E+00 0. -1.
         24    1    1    2    0    0 -0.34333960222E+02 -0.31013472580E+01 -0.25715435403E+03  0.27163213530E+03  0.80419002446E+02 0.  0.
          1    1    1    2  501    0  0.49293961471E+02  0.41854642259E+02 -0.45706464260E+03  0.46161650017E+03  0.00000000000E+00 0. -1.
         -2    1    1    2    0  502 -0.14960001249E+02 -0.38753295001E+02 -0.12544592361E+03  0.13214499332E+03  0.00000000000E+00 0.  1.
<mgrwt>
<rscale>  2 0.96851643E+02</rscale>
<asrwt>0</asrwt>
<pdfrwt beam="1">  1       21 0.19791317E-02 0.96851643E+02</pdfrwt>
<pdfrwt beam="2">  1       21 0.13115833E+00 0.96851643E+02</pdfrwt>
<totfact> 0.54020740E+05</totfact>
</mgrwt>
</event>
<event>
 5    1  0.1624116E+000  0.1230088E+03  0.7546771E-02  0.1238214E+00
         21   -1    0    0  501  502  0.00000000000E+00  0.00000000000E+00  0.10194729926E+03  0.10194729926E+03  0.00000000000E+00 0. -1.
         21   -1    0    0  502  503 -0.00000000000E+00 -0.00000000000E+00 -0.38563480679E+03  0.38563480679E+03  0.00000000000E+00 0.  1.
         24    1    1    2    0    0  0.10338818518E+03 -0.36757450678E+02 -0.22101843284E+03  0.25953148292E+03  0.80419002446E+02 0.  1.
          1    1    1    2  501    0 -0.45777271052E+02  0.20171948226E+02  0.67922284003E+02  0.84355810140E+02  0.00000000000E+00 0. -1.
         -2    1    1    2    0  503 -0.57610914130E+02  0.16585502453E+02 -0.13059135869E+03  0.14369481300E+03  0.00000000000E+00 0.  1.
<mgrwt>
<rscale>  2 0.12300875E+03</rscale>
<asrwt>0</asrwt>
<pdfrwt beam="1">  1       21 0.15684200E-01 0.12300875E+03</pdfrwt>
<pdfrwt beam="2">  1       21 0.59328431E-01 0.12300875E+03</pdfrwt>
<totfact> 0.98693529E+04</totfact>
</mgrwt>
</event>
<event>
 5    1  0.1624116E+000  0.8644232E+02  0.7546771E-02  0.1311703E+00
         21   -1    0    0  503  502  0.00000000000E+00  0.00000000000E+00  0.29022299429E+03  0.29022299429E+03  0.00000000000E+00 0.  1.
         21   -1    0    0  501  503 -0.00000000000E+00 -0.00000000000E+00 -0.13935964480E+03  0.13935964480E+03  0.00000000000E+00 0. -1.
         24    1    1    2    0    0  0.37553910112E+02  0.40624756382E+02 -0.82197462951E+02  0.12760997557E+03  0.80419002446E+02 0.  1.
          1    1    1    2  501    0 -0.24336004319E+00 -0.37860140648E+02 -0.22263618613E+02  0.43921727968E+02  0.00000000000E+00 0. -1.
         -2    1    1    2    0  502 -0.37310550069E+02 -0.27646157342E+01  0.25532443105E+03  0.25805093555E+03  0.00000000000E+00 0.  1.
<mgrwt>
<rscale>  2 0.86442317E+02</rscale>
<asrwt>0</asrwt>
<pdfrwt beam="1">  1       21 0.44649691E-01 0.86442317E+02</pdfrwt>
<pdfrwt beam="2">  1       21 0.21439945E-01 0.86442317E+02</pdfrwt>
<totfact> 0.10201540E+05</totfact>
</mgrwt>
</event>
<event>
 5    1  0.1624116E+000  0.9094184E+02  0.7546771E-02  0.1300587E+00
         21   -1    0    0  503  502  0.00000000000E+00  0.00000000000E+00  0.52534329548E+02  0.52534329548E+02  0.00000000000E+00 0. -1.
         21   -1    0    0  501  503 -0.00000000000E+00 -0.00000000000E+00 -0.41099638313E+03  0.41099638313E+03  0.00000000000E+00 0.  1.
         24    1    1    2    0    0 -0.65660637566E+02  0.24550173695E+02 -0.37150878944E+03  0.38652299665E+03  0.80419002446E+02 0.  1.
          1    1    1    2  501    0  0.35850972471E+02 -0.27587520120E+02  0.27362577026E+01  0.45319428502E+02  0.00000000000E+00 0. -1.
         -2    1    1    2    0  502  0.29809665095E+02  0.30373464256E+01  0.10310478157E+02  0.31688287524E+02  0.00000000000E+00 0.  1.
<mgrwt>
<rscale>  2 0.90941839E+02</rscale>
<asrwt>0</asrwt>
<pdfrwt beam="1">  1       21 0.80822045E-02 0.90941839E+02</pdfrwt>
<pdfrwt beam="2">  1       21 0.63230213E-01 0.90941839E+02</pdfrwt>
<totfact> 0.27931028E+05</totfact>
</mgrwt>
</event>
<event>
 5    1  0.1624116E+000  0.9330930E+02  0.7546771E-02  0.1295030E+00
         21   -1    0    0  501  502  0.00000000000E+00  0.00000000000E+00  0.38419460527E+02  0.38419460527E+02  0.00000000000E+00 0. -1.
         21   -1    0    0  502  503 -0.00000000000E+00 -0.00000000000E+00 -0.31244959710E+03  0.31244959710E+03  0.00000000000E+00 0. -1.
         24    1    1    2    0    0 -0.17009919188E+02 -0.25161063175E+02 -0.21507210461E+03  0.23161529005E+03  0.80419002446E+02 0. -1.
          1    1    1    2  501    0  0.69939851204E+01 -0.37019079311E+02 -0.86702204997E+01  0.38658773705E+02  0.00000000000E+00 0. -1.
         -2    1    1    2    0  503  0.10015934068E+02  0.62180142486E+02 -0.50287811467E+02  0.80594993870E+02  0.00000000000E+00 0.  1.
<mgrwt>
<rscale>  2 0.93309299E+02</rscale>
<asrwt>0</asrwt>
<pdfrwt beam="1">  1       21 0.59106863E-02 0.93309299E+02</pdfrwt>
<pdfrwt beam="2">  1       21 0.48069168E-01 0.93309299E+02</pdfrwt>
<totfact> 0.83813704E+05</totfact>
</mgrwt>
</event>
<event>
 5    1  0.1779525E+000  0.8585484E+02  0.7546771E-02  0.1313212E+00
         21   -1    0    0  501  502  0.00000000000E+00  0.00000000000E+00  0.63478103071E+03  0.63478103071E+03  0.00000000000E+00 0.  1.
         21   -1    0    0  502  503 -0.00000000000E+00 -0.00000000000E+00 -0.44892646417E+02  0.44892646417E+02  0.00000000000E+00 0.  1.
         24    1    1    2    0    0 -0.25735605219E+02 -0.38722371688E+02  0.58770307070E+03  0.59499904093E+03  0.80419002446E+02 0.  1.
          1    1    1    2  501    0  0.17729584808E+02 -0.15777163907E+02  0.15056861870E+02  0.28106336791E+02  0.00000000000E+00 0. -1.
         -2    1    1    2    0  503  0.80060204111E+01  0.54499535595E+02 -0.12871548274E+02  0.56568299408E+02  0.00000000000E+00 0.  1.
<mgrwt>
<rscale>  2 0.85854836E+02</rscale>
<asrwt>0</asrwt>
<pdfrwt beam="1">  1       21 0.97658614E-01 0.85854836E+02</pdfrwt>
<pdfrwt beam="2">  1       21 0.69065614E-02 0.85854836E+02</pdfrwt>
<totfact> 0.14029183E+05</totfact>
</mgrwt>
</event>
<event>
 5    1  0.1624116E+000  0.2182251E+03  0.7546771E-02  0.1135213E+00
         21   -1    0    0  503  502  0.00000000000E+00  0.00000000000E+00  0.37700595261E+03  0.37700595261E+03  0.00000000000E+00 0. -1.
         21   -1    0    0  501  503 -0.00000000000E+00 -0.00000000000E+00 -0.17527122136E+03  0.17527122136E+03  0.00000000000E+00 0. -1.
         24    1    1    2    0    0  0.14199049735E+03 -0.10981563191E+03  0.63992154219E+02  0.20684048469E+03  0.80419002446E+02 0. -1.
          1    1    1    2  501    0 -0.14925048312E+03  0.14245354112E+03  0.27241090152E+01  0.20633986250E+03  0.00000000000E+00 0. -1.
         -2    1    1    2    0  502  0.72599857611E+01 -0.32637909208E+02  0.13501846802E+03  0.13909682677E+03  0.00000000000E+00 0.  1.
<mgrwt>
<rscale>  2 0.21822506E+03</rscale>
<asrwt>0</asrwt>
<pdfrwt beam="1">  1       21 0.58000916E-01 0.21822506E+03</pdfrwt>
<pdfrwt beam="2">  1       21 0.26964803E-01 0.21822506E+03</pdfrwt>
<totfact> 0.36026490E+04</totfact>
</mgrwt>
</event>
<event>
 5    1  0.1624116E+000  0.8611881E+02  0.7546771E-02  0.1312532E+00
         21   -1    0    0  503  502  0.00000000000E+00  0.00000000000E+00  0.43777909760E+02  0.43777909760E+02  0.00000000000E+00 0.  1.
         21   -1    0    0  501  503 -0.00000000000E+00 -0.00000000000E+00 -0.21572343113E+03  0.21572343113E+03  0.00000000000E+00 0.  1.
         24    1    1    2    0    0  0.25958749924E+02 -0.41002571031E+02 -0.15150363902E+03  0.17825721898E+03  0.80419002446E+02 0.  1.
          1    1    1    2  501    0  0.19584865331E+02  0.48872928960E+01 -0.85149026113E+01  0.21907901506E+02  0.00000000000E+00 0. -1.
         -2    1    1    2    0  502 -0.45543615255E+02  0.36115278135E+02 -0.11926979732E+02  0.59336220395E+02  0.00000000000E+00 0.  1.
<mgrwt>
<rscale>  2 0.86118813E+02</rscale>
<asrwt>0</asrwt>
<pdfrwt beam="1">  1       21 0.67350631E-02 0.86118813E+02</pdfrwt>
<pdfrwt beam="2">  1       21 0.33188220E-01 0.86118813E+02</pdfrwt>
<totfact> 0.13977976E+06</totfact>
</mgrwt>
</event>
<event>
 5    1  0.1624116E+000  0.1524033E+03  0.7546771E-02  0.1197551E+00
         21   -1    0    0  501  502  0.00000000000E+00  0.00000000000E+00  0.25844878137E+03  0.25844878137E+03  0.00000000000E+00 0. -1.
         21   -1    0    0  502  503 -0.00000000000E+00 -0.00000000000E+00 -0.18655430822E+03  0.18655430822E+03  0.00000000000E+00 0.  1.
         24    1    1    2    0    0  0.21529717907E+02 -0.71309060603E+02 -0.33728097410E+02  0.11468788683E+03  0.80419002446E+02 0.  1.
          1    1    1    2  501    0  0.61184096683E+02 -0.26860433281E+02  0.17291508030E+03  0.18537691754E+03  0.00000000000E+00 0. -1.
         -2    1    1    2    0  503 -0.82713814590E+02  0.98169493883E+02 -0.67292509739E+02  0.14493828521E+03  0.00000000000E+00 0.  1.
<mgrwt>
<rscale>  2 0.15240331E+03</rscale>
<asrwt>0</asrwt>
<pdfrwt beam="1">  1       21 0.39761351E-01 0.15240331E+03</pdfrwt>
<pdfrwt beam="2">  1       21 0.28700663E-01 0.15240331E+03</pdfrwt>
<totfact> 0.72057883E+04</totfact>
</mgrwt>
</event>
<event>
 5    1  0.1624116E+000  0.7361308E+02  0.7546771E-02  0.1348220E+00
         21   -1    0    0  501  502  0.00000000000E+00  0.00000000000E+00  0.81273972153E+02  0.81273972153E+02  0.00000000000E+00 0. -1.
         21   -1    0    0  502  503 -0.00000000000E+00 -0.00000000000E+00 -0.18876875085E+03  0.18876875085E+03  0.00000000000E+00 0.  1.
         24    1    1    2    0    0 -0.15179024443E+02  0.18894342546E+02  0.51193756001E+02  0.98363690308E+02  0.80419002446E+02 0. -1.
          1    1    1    2  501    0  0.37236726146E+02 -0.17468807024E+02 -0.80124432198E+02  0.90064741314E+02  0.00000000000E+00 0. -1.
         -2    1    1    2    0  503 -0.22057701703E+02 -0.14255355218E+01 -0.78564102495E+02  0.81614291376E+02  0.00000000000E+00 0.  1.
<mgrwt>
<rscale>  2 0.73613078E+02</rscale>
<asrwt>0</asrwt>
<pdfrwt beam="1">  1       21 0.12503688E-01 0.73613078E+02</pdfrwt>
<pdfrwt beam="2">  1       21 0.29041346E-01 0.73613078E+02</pdfrwt>
<totfact> 0.62122885E+05</totfact>
</mgrwt>
</event>
<event>
 5    1  0.1624116E+000  0.1267801E+03  0.7546771E-02  0.1232313E+00
         21   -1    0    0  503  502  0.00000000000E+00  0.00000000000E+00  0.25636675104E+02  0.25636675104E+02  0.00000000000E+00 0.  1.
         21   -1    0    0  501  503 -0.00000000000E+00 -0.00000000000E+00 -0.65013332242E+03  0.65013332242E+03  0.00000000000E+00 0.  1.
         24    1    1    2    0    0 -0.54369252089E+01  0.99718542202E+02 -0.36409926049E+03  0.38601662562E+03  0.80419002446E+02 0.  1.
          1    1    1    2  501    0 -0.23497533693E+02 -0.21785451729E+01 -0.70102497646E+02  0.73967833042E+02  0.00000000000E+00 0. -1.
         -2    1    1    2    0  502  0.28934458902E+02 -0.97539997029E+02 -0.19029488918E+03  0.21578553886E+03  0.00000000000E+00 0.  1.
<mgrwt>
<rscale>  2 0.12678009E+03</rscale>
<asrwt>0</asrwt>
<pdfrwt beam="1">  1       21 0.39441037E-02 0.12678009E+03</pdfrwt>
<pdfrwt beam="2">  1       21 0.10002051E+00 0.12678009E+03</pdfrwt>
<totfact> 0.33455735E+05</totfact>
</mgrwt>
</event>
<event>
 5    1  0.1624116E+000  0.1023665E+03  0.7546771E-02  0.1275397E+00
         21   -1    0    0  503  502  0.00000000000E+00  0.00000000000E+00  0.14622587120E+04  0.14622587120E+04  0.00000000000E+00 0. -1.
         21   -1    0    0  501  503 -0.00000000000E+00 -0.00000000000E+00 -0.24804017463E+02  0.24804017463E+02  0.00000000000E+00 0. -1.
         24    1    1    2    0    0  0.75346933863E+02 -0.25311771551E+02  0.12877520391E+04  0.12927066087E+04  0.80419002446E+02 0. -1.
          1    1    1    2  501    0 -0.44904308848E+02  0.37859762968E+02  0.22395230773E+02  0.62859406349E+02  0.00000000000E+00 0. -1.
         -2    1    1    2    0  502 -0.30442625014E+02 -0.12547991417E+02  0.12730742467E+03  0.13149671434E+03  0.00000000000E+00 0.  1.
<mgrwt>
<rscale>  2 0.10236649E+03</rscale>
<asrwt>0</asrwt>
<pdfrwt beam="1">  1       21 0.22496281E+00 0.10236649E+03</pdfrwt>
<pdfrwt beam="2">  1       21 0.38160038E-02 0.10236649E+03</pdfrwt>
<totfact> 0.43095269E+04</totfact>
</mgrwt>
</event>
<event>
 5    1  0.1624116E+000  0.1041187E+03  0.7546771E-02  0.1271866E+00
         21   -1    0    0  503  502  0.00000000000E+00  0.00000000000E+00  0.49643521714E+03  0.49643521714E+03  0.00000000000E+00 0.  1.
         21   -1    0    0  501  503 -0.00000000000E+00 -0.00000000000E+00 -0.26081552909E+02  0.26081552909E+02  0.00000000000E+00 0. -1.
         24    1    1    2    0    0  0.66518841098E+02 -0.57511306124E+02  0.19183140002E+03  0.22582915787E+03  0.80419002446E+02 0. -1.
          1    1    1    2  501    0 -0.41864037692E+02  0.44876774200E+02  0.11052215805E+03  0.12641862970E+03  0.00000000000E+00 0. -1.
         -2    1    1    2    0  502 -0.24654803406E+02  0.12634531925E+02  0.16800010616E+03  0.17026898249E+03  0.00000000000E+00 0.  1.
<mgrwt>
<rscale>  2 0.10411869E+03</rscale>
<asrwt>0</asrwt>
<pdfrwt beam="1">  1       21 0.76374642E-01 0.10411869E+03</pdfrwt>
<pdfrwt beam="2">  1       21 0.40125470E-02 0.10411869E+03</pdfrwt>
<totfact> 0.60114203E+05</totfact>
</mgrwt>
</event>
<event>
 5    1  0.1624116E+000  0.8407573E+02  0.7546771E-02  0.1317867E+00
         21   -1    0    0  501  502  0.00000000000E+00  0.00000000000E+00  0.29793964107E+03  0.29793964107E+03  0.00000000000E+00 0.  1.
         21   -1    0    0  502  503 -0.00000000000E+00 -0.00000000000E+00 -0.35351692537E+02  0.35351692537E+02  0.00000000000E+00 0.  1.
         24    1    1    2    0    0 -0.62660507712E+01  0.15059096064E+02  0.88062303208E+02  0.12036704270E+03  0.80419002446E+02 0.  0.
          1    1    1    2  501    0  0.45228037048E+02 -0.30785517385E+01  0.16493146630E+03  0.17104806749E+03  0.00000000000E+00 0. -1.
         -2    1    1    2    0  503 -0.38961986276E+02 -0.11980544325E+02  0.95941790238E+01  0.41876223422E+02  0.00000000000E+00 0.  1.
<mgrwt>
<rscale>  2 0.84075733E+02</rscale>
<asrwt>0</asrwt>
<pdfrwt beam="1">  1       21 0.45836866E-01 0.84075733E+02</pdfrwt>
<pdfrwt beam="2">  1       21 0.54387221E-02 0.84075733E+02</pdfrwt>
<totfact> 0.10588607E+06</totfact>
</mgrwt>
</event>
<event>
 5    1  0.1624116E+000  0.7414362E+02  0.7546771E-02  0.1346544E+00
         21   -1    0    0  503  502  0.00000000000E+00  0.00000000000E+00  0.40841426855E+02  0.40841426855E+02  0.00000000000E+00 0. -1.
         21   -1    0    0  501  503 -0.00000000000E+00 -0.00000000000E+00 -0.14040802451E+03  0.14040802451E+03  0.00000000000E+00 0.  1.
         24    1    1    2    0    0 -0.25293658561E+02 -0.52788705341E+01 -0.72003884367E+02  0.11099284191E+03  0.80419002446E+02 0.  1.
          1    1    1    2  501    0  0.19364089907E+02 -0.25755806219E+02 -0.19440578058E+02  0.37633304494E+02  0.00000000000E+00 0. -1.
         -2    1    1    2    0  502  0.59295686543E+01  0.31034676753E+02 -0.81221352266E+01  0.32623304956E+02  0.00000000000E+00 0.  1.
<mgrwt>
<rscale>  2 0.74143615E+02</rscale>
<asrwt>0</asrwt>
<pdfrwt beam="1">  1       21 0.62832965E-02 0.74143615E+02</pdfrwt>
<pdfrwt beam="2">  1       21 0.21601234E-01 0.74143615E+02</pdfrwt>
<totfact> 0.34973236E+06</totfact>
</mgrwt>
</event>
<event>
 5    1  0.1624116E+000  0.6920910E+02  0.7546771E-02  0.1362803E+00
         21   -1    0    0  503  502  0.00000000000E+00  0.00000000000E+00  0.12778870333E+04  0.12778870333E+04  0.00000000000E+00 0. -1.
         21   -1    0    0  501  503 -0.00000000000E+00 -0.00000000000E+00 -0.68693720563E+01  0.68693720563E+01  0.00000000000E+00 0. -1.
         24    1    1    2    0    0 -0.17777201571E+02 -0.16161982690E+02  0.86509895367E+03  0.86916089085E+03  0.80419002446E+02 0. -1.
          1    1    1    2  501    0  0.31705865479E+02 -0.18003632898E+01  0.51880234898E+02  0.60828134829E+02  0.00000000000E+00 0. -1.
         -2    1    1    2    0  502 -0.13928663909E+02  0.17962345980E+02  0.35403847269E+03  0.35476737970E+03  0.00000000000E+00 0.  1.
<mgrwt>
<rscale>  2 0.69209101E+02</rscale>
<asrwt>0</asrwt>
<pdfrwt beam="1">  1       21 0.19659782E+00 0.69209101E+02</pdfrwt>
<pdfrwt beam="2">  1       21 0.10568275E-02 0.69209101E+02</pdfrwt>
<totfact> 0.51135311E+05</totfact>
</mgrwt>
</event>
<event>
 5    1  0.1624116E+000  0.1470367E+03  0.7546771E-02  0.1204162E+00
         21   -1    0    0  501  502  0.00000000000E+00  0.00000000000E+00  0.19048098916E+03  0.19048098916E+03  0.00000000000E+00 0. -1.
         21   -1    0    0  502  503 -0.00000000000E+00 -0.00000000000E+00 -0.39184244537E+03  0.39184244537E+03  0.00000000000E+00 0.  1.
         24    1    1    2    0    0 -0.26669706014E+02 -0.13148709829E+03  0.63522066635E+02  0.16882653565E+03  0.80419002446E+02 0. -1.
          1    1    1    2  501    0  0.33445233242E+01  0.89971633721E+02  0.44527520595E+02  0.10044292310E+03  0.00000000000E+00 0. -1.
         -2    1    1    2    0  503  0.23325182690E+02  0.41515464572E+02 -0.30941104345E+03  0.31305397578E+03  0.00000000000E+00 0.  1.
<mgrwt>
<rscale>  2 0.14703675E+03</rscale>
<asrwt>0</asrwt>
<pdfrwt beam="1">  1       21 0.29304768E-01 0.14703675E+03</pdfrwt>
<pdfrwt beam="2">  1       21 0.60283452E-01 0.14703675E+03</pdfrwt>
<totfact> 0.29368467E+04</totfact>
</mgrwt>
</event>
<event>
 5    1  0.1624116E+000  0.9222606E+02  0.7546771E-02  0.1297549E+00
         21   -1    0    0  503  502  0.00000000000E+00  0.00000000000E+00  0.19317746967E+02  0.19317746967E+02  0.00000000000E+00 0.  1.
         21   -1    0    0  501  503 -0.00000000000E+00 -0.00000000000E+00 -0.50104268757E+03  0.50104268757E+03  0.00000000000E+00 0.  1.
         24    1    1    2    0    0 -0.86679082553E+01 -0.28473738392E+02 -0.27532717750E+03  0.28837156073E+03  0.80419002446E+02 0.  1.
          1    1    1    2  501    0  0.15195407509E+02 -0.33290069458E+02 -0.12087887480E+03  0.12629660132E+03  0.00000000000E+00 0. -1.
         -2    1    1    2    0  502 -0.65274992533E+01  0.61763807849E+02 -0.85518888312E+02  0.10569227249E+03  0.00000000000E+00 0.  1.
<mgrwt>
<rscale>  2 0.92226062E+02</rscale>
<asrwt>0</asrwt>
<pdfrwt beam="1">  1       21 0.29719613E-02 0.92226062E+02</pdfrwt>
<pdfrwt beam="2">  1       21 0.77083484E-01 0.92226062E+02</pdfrwt>
<totfact> 0.96323597E+05</totfact>
</mgrwt>
</event>
<event>
 5    1  0.1624116E+000  0.1092687E+03  0.7546771E-02  0.1261930E+00
         21   -1    0    0  501  502  0.00000000000E+00  0.00000000000E+00  0.47892986978E+02  0.47892986978E+02  0.00000000000E+00 0. -1.
         21   -1    0    0  502  503 -0.00000000000E+00 -0.00000000000E+00 -0.10959049828E+04  0.10959049828E+04  0.00000000000E+00 0. -1.
         24    1    1    2    0    0 -0.70394976760E+02 -0.60300985930E+02 -0.10136609477E+04  0.10210618956E+04  0.80419002446E+02 0. -1.
          1    1    1    2  501    0  0.23594601841E+02  0.36122658601E+02  0.19550672978E+02  0.47368560399E+02  0.00000000000E+00 0. -1.
         -2    1    1    2    0  503  0.46800374919E+02  0.24178327330E+02 -0.53901721073E+02  0.75367513821E+02  0.00000000000E+00 0.  1.
<mgrwt>
<rscale>  2 0.10926866E+03</rscale>
<asrwt>0</asrwt>
<pdfrwt beam="1">  1       21 0.73681517E-02 0.10926866E+03</pdfrwt>
<pdfrwt beam="2">  1       21 0.16860077E+00 0.10926866E+03</pdfrwt>
<totfact> 0.32172185E+04</totfact>
</mgrwt>
</event>
<event>
 5    1  0.1624116E+000  0.1071251E+03  0.7546771E-02  0.1265988E+00
         21   -1    0    0  503  502  0.00000000000E+00  0.00000000000E+00  0.52220223960E+03  0.52220223960E+03  0.00000000000E+00 0. -1.
         21   -1    0    0  501  503 -0.00000000000E+00 -0.00000000000E+00 -0.30581429549E+02  0.30581429549E+02  0.00000000000E+00 0. -1.
         24    1    1    2    0    0  0.37698252149E+02 -0.18332367907E+02  0.20785634609E+03  0.22677899041E+03  0.80419002446E+02 0. -1.
          1    1    1    2  501    0 -0.74767069308E+02  0.35433125301E+02  0.70000456094E+02  0.10837751093E+03  0.00000000000E+00 0. -1.
         -2    1    1    2    0  502  0.37068817159E+02 -0.17100757394E+02  0.21376400786E+03  0.21762716780E+03  0.00000000000E+00 0.  1.
<mgrwt>
<rscale>  2 0.10712511E+03</rscale>
<asrwt>0</asrwt>
<pdfrwt beam="1">  1       21 0.80338799E-01 0.10712511E+03</pdfrwt>
<pdfrwt beam="2">  1       21 0.47048357E-02 0.10712511E+03</pdfrwt>
<totfact> 0.41259797E+05</totfact>
</mgrwt>
</event>
<event>
 5    1  0.1624116E+000  0.9785504E+02  0.7546771E-02  0.1284872E+00
         21   -1    0    0  501  502  0.00000000000E+00  0.00000000000E+00  0.12077246446E+03  0.12077246446E+03  0.00000000000E+00 0.  1.
         21   -1    0    0  502  503 -0.00000000000E+00 -0.00000000000E+00 -0.17678445688E+03  0.17678445688E+03  0.00000000000E+00 0.  1.
         24    1    1    2    0    0  0.10884751753E+02 -0.50618716136E+02 -0.13334575559E+03  0.16410069693E+03  0.80419002446E+02 0.  1.
          1    1    1    2  501    0  0.24206075070E+02  0.59185153449E+02  0.73047987390E+02  0.97081537487E+02  0.00000000000E+00 0. -1.
         -2    1    1    2    0  503 -0.35090826823E+02 -0.85664373123E+01  0.42857757786E+01  0.36374686932E+02  0.00000000000E+00 0.  1.
<mgrwt>
<rscale>  2 0.97855042E+02</rscale>
<asrwt>0</asrwt>
<pdfrwt beam="1">  1       21 0.18580379E-01 0.97855042E+02</pdfrwt>
<pdfrwt beam="2">  1       21 0.27197609E-01 0.97855042E+02</pdfrwt>
<totfact> 0.34674709E+05</totfact>
</mgrwt>
</event>
<event>
 5    1  0.1624116E+000  0.6787498E+02  0.7546771E-02  0.1367472E+00
         21   -1    0    0  501  502  0.00000000000E+00  0.00000000000E+00  0.27699467975E+01  0.27699467975E+01  0.00000000000E+00 0.  1.
         21   -1    0    0  502  503 -0.00000000000E+00 -0.00000000000E+00 -0.28737251757E+04  0.28737251757E+04  0.00000000000E+00 0.  1.
         24    1    1    2    0    0 -0.23017411111E+02 -0.16193990490E+02 -0.10355605884E+04  0.10390596685E+04  0.80419002446E+02 0.  1.
          1    1    1    2  501    0  0.22556931206E+02 -0.97690847084E+01 -0.16335130208E+03  0.16519049020E+03  0.00000000000E+00 0. -1.
         -2    1    1    2    0  503  0.46047990442E+00  0.25963075199E+02 -0.16720433384E+04  0.16722449638E+04  0.00000000000E+00 0.  1.
<mgrwt>
<rscale>  2 0.67874982E+02</rscale>
<asrwt>0</asrwt>
<pdfrwt beam="1">  1       21 0.42614585E-03 0.67874982E+02</pdfrwt>
<pdfrwt beam="2">  1       21 0.44211137E+00 0.67874982E+02</pdfrwt>
<totfact> 0.84067716E+04</totfact>
</mgrwt>
</event>
<event>
 5    1  0.1624116E+000  0.1131863E+03  0.7546771E-02  0.1254781E+00
         21   -1    0    0  501  502  0.00000000000E+00  0.00000000000E+00  0.69313947923E+03  0.69313947923E+03  0.00000000000E+00 0.  1.
         21   -1    0    0  502  503 -0.00000000000E+00 -0.00000000000E+00 -0.20055802057E+02  0.20055802057E+02  0.00000000000E+00 0.  1.
         24    1    1    2    0    0 -0.91835022161E+02  0.13959489708E+02  0.45471747413E+03  0.47102413514E+03  0.80419002446E+02 0.  1.
          1    1    1    2  501    0  0.31299078193E+02  0.16889015213E+02  0.93166812498E+02  0.99724250218E+02  0.00000000000E+00 0. -1.
         -2    1    1    2    0  503  0.60535943967E+02 -0.30848504921E+02  0.12519939054E+03  0.14244689593E+03  0.00000000000E+00 0.  1.
<mgrwt>
<rscale>  2 0.11318633E+03</rscale>
<asrwt>0</asrwt>
<pdfrwt beam="1">  1       21 0.10663682E+00 0.11318633E+03</pdfrwt>
<pdfrwt beam="2">  1       21 0.30855085E-02 0.11318633E+03</pdfrwt>
<totfact> 0.43236376E+05</totfact>
</mgrwt>
</event>
<event>
 5    1  0.1624116E+000  0.7285576E+02  0.7546771E-02  0.1350643E+00
         21   -1    0    0  501  502  0.00000000000E+00  0.00000000000E+00  0.43723372181E+03  0.43723372181E+03  0.00000000000E+00 0.  1.
         21   -1    0    0  502  503 -0.00000000000E+00 -0.00000000000E+00 -0.22900832528E+02  0.22900832528E+02  0.00000000000E+00 0.  1.
         24    1    1    2    0    0  0.27560686939E+02  0.37125874230E+02  0.12564283585E+03  0.15617701546E+03  0.80419002446E+02 0.  1.
          1    1    1    2  501    0 -0.42676021791E+01 -0.27358889324E+02  0.27261606609E+03  0.27401868685E+03  0.00000000000E+00 0. -1.
         -2    1    1    2    0  503 -0.23293084760E+02 -0.97669849056E+01  0.16073987341E+02  0.29938852029E+02  0.00000000000E+00 0.  1.
<mgrwt>
<rscale>  2 0.72855760E+02</rscale>
<asrwt>0</asrwt>
<pdfrwt beam="1">  1       21 0.67266720E-01 0.72855760E+02</pdfrwt>
<pdfrwt beam="2">  1       21 0.35232053E-02 0.72855760E+02</pdfrwt>
<totfact> 0.97676132E+05</totfact>
</mgrwt>
</event>
<event>
 5    1  0.1624116E+000  0.1545080E+03  0.7546771E-02  0.1195041E+00
         21   -1    0    0  503  502  0.00000000000E+00  0.00000000000E+00  0.79077331799E+03  0.79077331799E+03  0.00000000000E+00 0.  1.
         21   -1    0    0  501  503 -0.00000000000E+00 -0.00000000000E+00 -0.11057244324E+03  0.11057244324E+03  0.00000000000E+00 0.  1.
         24    1    1    2    0    0  0.13805803861E+03 -0.34217479562E+02  0.22152573537E+01  0.16341046861E+03  0.80419002446E+02 0.  1.
          1    1    1    2  501    0 -0.22641862063E+02  0.18298589944E+02 -0.16690364204E+02  0.33556825966E+02  0.00000000000E+00 0. -1.
         -2    1    1    2    0  502 -0.11541617655E+03  0.15918889618E+02  0.69467598161E+03  0.70437846665E+03  0.00000000000E+00 0.  1.
<mgrwt>
<rscale>  2 0.15450800E+03</rscale>
<asrwt>0</asrwt>
<pdfrwt beam="1">  1       21 0.12165743E+00 0.15450800E+03</pdfrwt>
<pdfrwt beam="2">  1       21 0.17011146E-01 0.15450800E+03</pdfrwt>
<totfact> 0.16335092E+04</totfact>
</mgrwt>
</event>
<event>
 5    1  0.1624116E+000  0.1053417E+03  0.7546771E-02  0.1269448E+00
         21   -1    0    0  503  502  0.00000000000E+00  0.00000000000E+00  0.48848887344E+02  0.48848887344E+02  0.00000000000E+00 0. -1.
         21   -1    0    0  501  503 -0.00000000000E+00 -0.00000000000E+00 -0.25031695019E+03  0.25031695019E+03  0.00000000000E+00 0.  1.
         24    1    1    2    0    0 -0.13964813560E+02  0.44981175102E+02 -0.12465400383E+03  0.15564112167E+03  0.80419002446E+02 0.  0.
          1    1    1    2  501    0 -0.24871853662E+02  0.26371365567E+02 -0.41047073200E+02  0.54762398092E+02  0.00000000000E+00 0. -1.
         -2    1    1    2    0  502  0.38836667222E+02 -0.71352540669E+02 -0.35766985817E+02  0.88762317767E+02  0.00000000000E+00 0.  1.
<mgrwt>
<rscale>  2 0.10534165E+03</rscale>
<asrwt>0</asrwt>
<pdfrwt beam="1">  1       21 0.75152133E-02 0.10534165E+03</pdfrwt>
<pdfrwt beam="2">  1       21 0.38510301E-01 0.10534165E+03</pdfrwt>
<totfact> 0.87118267E+05</totfact>
</mgrwt>
</event>
<event>
 5    1  0.1624116E+000  0.7809308E+02  0.7546771E-02  0.1334552E+00
         21   -1    0    0  501  502  0.00000000000E+00  0.00000000000E+00  0.50548150252E+02  0.50548150252E+02  0.00000000000E+00 0.  1.
         21   -1    0    0  502  503 -0.00000000000E+00 -0.00000000000E+00 -0.50677884166E+03  0.50677884166E+03  0.00000000000E+00 0.  1.
         24    1    1    2    0    0  0.36887230987E+02  0.13438823808E+02 -0.52181934263E+02  0.10359266390E+03  0.80419002446E+02 0.  1.
          1    1    1    2  501    0 -0.28343384760E+02  0.18359354743E+02  0.12408460324E+02  0.35977538185E+02  0.00000000000E+00 0. -1.
         -2    1    1    2    0  503 -0.85438462262E+01 -0.31798178551E+02 -0.41645721747E+03  0.41775678983E+03  0.00000000000E+00 0.  1.
<mgrwt>
<rscale>  2 0.78093075E+02</rscale>
<asrwt>0</asrwt>
<pdfrwt beam="1">  1       21 0.77766383E-02 0.78093075E+02</pdfrwt>
<pdfrwt beam="2">  1       21 0.77965978E-01 0.78093075E+02</pdfrwt>
<totfact> 0.19065231E+05</totfact>
</mgrwt>
</event>
<event>
 5    1  0.1624116E+000  0.1034430E+03  0.7546771E-02  0.1273218E+00
         21   -1    0    0  503  502  0.00000000000E+00  0.00000000000E+00  0.17156827551E+04  0.17156827551E+04  0.00000000000E+00 0. -1.
         21   -1    0    0  501  503 -0.00000000000E+00 -0.00000000000E+00 -0.11276833806E+02  0.11276833806E+02  0.00000000000E+00 0. -1.
         24    1    1    2    0    0  0.58109992884E+02 -0.32436920978E+02  0.12244810409E+04  0.12289222761E+04  0.80419002446E+02 0. -1.
          1    1    1    2  501    0 -0.49049039763E+02 -0.17250859503E+02  0.83200262269E+02  0.98110570770E+02  0.00000000000E+00 0. -1.
         -2    1    1    2    0  502 -0.90609531206E+01  0.49687780481E+02  0.39672461808E+03  0.39992674203E+03  0.00000000000E+00 0.  1.
<mgrwt>
<rscale>  2 0.10344300E+03</rscale>
<asrwt>0</asrwt>
<pdfrwt beam="1">  1       21 0.26395099E+00 0.10344300E+03</pdfrwt>
<pdfrwt beam="2">  1       21 0.17348989E-02 0.10344300E+03</pdfrwt>
<totfact> 0.92596453E+04</totfact>
</mgrwt>
</event>
<event>
 5    1  0.1624116E+000  0.8129146E+02  0.7546771E-02  0.1325426E+00
         21   -1    0    0  503  502  0.00000000000E+00  0.00000000000E+00  0.30945485590E+02  0.30945485590E+02  0.00000000000E+00 0. -1.
         21   -1    0    0  501  503 -0.00000000000E+00 -0.00000000000E+00 -0.31416279175E+03  0.31416279175E+03  0.00000000000E+00 0.  1.
         24    1    1    2    0    0  0.90516053931E+01 -0.18434262754E+02 -0.12339895349E+03  0.14871540364E+03  0.80419002446E+02 0. -1.
          1    1    1    2  501    0  0.25722438824E+02 -0.16284818173E+02 -0.14022465634E+03  0.14349144019E+03  0.00000000000E+00 0. -1.
         -2    1    1    2    0  502 -0.34774044217E+02  0.34719080927E+02 -0.19593696333E+02  0.52901433512E+02  0.00000000000E+00 0.  1.
<mgrwt>
<rscale>  2 0.81291463E+02</rscale>
<asrwt>0</asrwt>
<pdfrwt beam="1">  1       21 0.47608442E-02 0.81291463E+02</pdfrwt>
<pdfrwt beam="2">  1       21 0.48332735E-01 0.81291463E+02</pdfrwt>
<totfact> 0.11860344E+06</totfact>
</mgrwt>
</event>
<event>
 5    1  0.1624116E+000  0.1059429E+03  0.7546771E-02  0.1268273E+00
         21   -1    0    0  503  502  0.00000000000E+00  0.00000000000E+00  0.12274682014E+02  0.12274682014E+02  0.00000000000E+00 0. -1.
         21   -1    0    0  501  503 -0.00000000000E+00 -0.00000000000E+00 -0.99942950089E+03  0.99942950089E+03  0.00000000000E+00 0.  1.
         24    1    1    2    0    0 -0.52426318186E+02 -0.43181871066E+02 -0.44890512034E+03  0.46108157179E+03  0.80419002446E+02 0. -1.
          1    1    1    2  501    0  0.65279981844E+02  0.40185463601E+01 -0.42705122313E+03  0.43203052198E+03  0.00000000000E+00 0. -1.
         -2    1    1    2    0  502 -0.12853663658E+02  0.39163324706E+02 -0.11119847541E+03  0.11859208913E+03  0.00000000000E+00 0.  1.
<mgrwt>
<rscale>  2 0.10594290E+03</rscale>
<asrwt>0</asrwt>
<pdfrwt beam="1">  1       21 0.18884126E-02 0.10594290E+03</pdfrwt>
<pdfrwt beam="2">  1       21 0.15375839E+00 0.10594290E+03</pdfrwt>
<totfact> 0.38892518E+05</totfact>
</mgrwt>
</event>
<event>
 5    1  0.1624116E+000  0.6833596E+02  0.7546771E-02  0.1365845E+00
         21   -1    0    0  503  502  0.00000000000E+00  0.00000000000E+00  0.17400670980E+03  0.17400670980E+03  0.00000000000E+00 0.  1.
         21   -1    0    0  501  503 -0.00000000000E+00 -0.00000000000E+00 -0.32360370303E+02  0.32360370303E+02  0.00000000000E+00 0. -1.
         24    1    1    2    0    0  0.28164026984E+01  0.30283145974E+02  0.79444657303E+02  0.11706267801E+03  0.80419002446E+02 0.  0.
          1    1    1    2  501    0  0.18125470800E+02 -0.21130333361E+02  0.57846249988E+01  0.28433880601E+02  0.00000000000E+00 0. -1.
         -2    1    1    2    0  502 -0.20941873498E+02 -0.91528126122E+01  0.56417057199E+02  0.60870521497E+02  0.00000000000E+00 0.  1.
<mgrwt>
<rscale>  2 0.68335961E+02</rscale>
<asrwt>0</asrwt>
<pdfrwt beam="1">  1       21 0.26770263E-01 0.68335961E+02</pdfrwt>
<pdfrwt beam="2">  1       21 0.49785186E-02 0.68335961E+02</pdfrwt>
<totfact> 0.34440544E+06</totfact>
</mgrwt>
</event>
<event>
 5    1  0.1624116E+000  0.1652730E+03  0.7546771E-02  0.1182869E+00
         21   -1    0    0  501  502  0.00000000000E+00  0.00000000000E+00  0.34579641425E+03  0.34579641425E+03  0.00000000000E+00 0. -1.
         21   -1    0    0  502  503 -0.00000000000E+00 -0.00000000000E+00 -0.26044024914E+03  0.26044024914E+03  0.00000000000E+00 0.  1.
         24    1    1    2    0    0  0.10055586942E+02 -0.94694192926E+02  0.17844791675E+02  0.12591170536E+03  0.80419002446E+02 0. -1.
          1    1    1    2  501    0 -0.94815295404E+02  0.30568897844E+02  0.25001333170E+03  0.26913019858E+03  0.00000000000E+00 0. -1.
         -2    1    1    2    0  503  0.84759708461E+02  0.64125295081E+02 -0.18250195827E+03  0.21119475945E+03  0.00000000000E+00 0.  1.
<mgrwt>
<rscale>  2 0.16527296E+03</rscale>
<asrwt>0</asrwt>
<pdfrwt beam="1">  1       21 0.53199448E-01 0.16527296E+03</pdfrwt>
<pdfrwt beam="2">  1       21 0.40067731E-01 0.16527296E+03</pdfrwt>
<totfact> 0.20428294E+04</totfact>
</mgrwt>
</event>
<event>
 5    1  0.1624116E+000  0.7666407E+02  0.7546771E-02  0.1338794E+00
         21   -1    0    0  503  502  0.00000000000E+00  0.00000000000E+00  0.51505893116E+03  0.51505893116E+03  0.00000000000E+00 0.  1.
         21   -1    0    0  501  503 -0.00000000000E+00 -0.00000000000E+00 -0.71577181422E+03  0.71577181422E+03  0.00000000000E+00 0.  1.
         24    1    1    2    0    0 -0.42786157476E+02  0.88035652107E+01 -0.31836283146E+03  0.33125559081E+03  0.80419002446E+02 0.  1.
          1    1    1    2  501    0  0.12887614717E+02  0.17674039175E+02 -0.38987157478E+03  0.39048470789E+03  0.00000000000E+00 0. -1.
         -2    1    1    2    0  502  0.29898542759E+02 -0.26477604386E+02  0.50752152319E+03  0.50909044668E+03  0.00000000000E+00 0.  1.
<mgrwt>
<rscale>  2 0.76664065E+02</rscale>
<asrwt>0</asrwt>
<pdfrwt beam="1">  1       21 0.79239835E-01 0.76664065E+02</pdfrwt>
<pdfrwt beam="2">  1       21 0.11011874E+00 0.76664065E+02</pdfrwt>
<totfact> 0.10884182E+03</totfact>
</mgrwt>
</event>
<event>
 5    1  0.1624116E+000  0.8049938E+02  0.7546771E-02  0.1327640E+00
         21   -1    0    0  503  502  0.00000000000E+00  0.00000000000E+00  0.21549011048E+03  0.21549011048E+03  0.00000000000E+00 0.  1.
         21   -1    0    0  501  503 -0.00000000000E+00 -0.00000000000E+00 -0.72960254056E+02  0.72960254056E+02  0.00000000000E+00 0.  1.
         24    1    1    2    0    0 -0.33225267986E+02 -0.23616983813E+01  0.18374156288E+03  0.20331668386E+03  0.80419002446E+02 0.  1.
          1    1    1    2  501    0 -0.11521745568E+02  0.22196268346E+02 -0.18874665902E+02  0.31331740493E+02  0.00000000000E+00 0. -1.
         -2    1    1    2    0  502  0.44747013554E+02 -0.19834569964E+02 -0.22337040548E+02  0.53801940189E+02  0.00000000000E+00 0.  1.
<mgrwt>
<rscale>  2 0.80499376E+02</rscale>
<asrwt>0</asrwt>
<pdfrwt beam="1">  1       21 0.33152324E-01 0.80499376E+02</pdfrwt>
<pdfrwt beam="2">  1       21 0.11224655E-01 0.80499376E+02</pdfrwt>
<totfact> 0.58299980E+05</totfact>
</mgrwt>
</event>
<event>
 5    1  0.1624116E+000  0.8745110E+02  0.7546771E-02  0.1309144E+00
         21   -1    0    0  501  502  0.00000000000E+00  0.00000000000E+00  0.11579661133E+03  0.11579661133E+03  0.00000000000E+00 0.  1.
         21   -1    0    0  502  503 -0.00000000000E+00 -0.00000000000E+00 -0.79629151096E+02  0.79629151096E+02  0.00000000000E+00 0.  1.
         24    1    1    2    0    0 -0.35983765417E+02 -0.29191087394E+02 -0.93514326352E+01  0.93282453889E+02  0.80419002446E+02 0.  1.
          1    1    1    2  501    0  0.53670630185E+02  0.76426343941E+01  0.50188709329E+02  0.73877283037E+02  0.00000000000E+00 0. -1.
         -2    1    1    2    0  503 -0.17686864768E+02  0.21548453000E+02 -0.46698164561E+01  0.28266025503E+02  0.00000000000E+00 0.  1.
<mgrwt>
<rscale>  2 0.87451097E+02</rscale>
<asrwt>0</asrwt>
<pdfrwt beam="1">  1       21 0.17814863E-01 0.87451097E+02</pdfrwt>
<pdfrwt beam="2">  1       21 0.12250639E-01 0.87451097E+02</pdfrwt>
<totfact> 0.15949962E+06</totfact>
</mgrwt>
</event>
<event>
 5    1  0.1624116E+000  0.7256395E+02  0.7546771E-02  0.1351585E+00
         21   -1    0    0  503  502  0.00000000000E+00  0.00000000000E+00  0.19469472635E+03  0.19469472635E+03  0.00000000000E+00 0. -1.
         21   -1    0    0  501  503 -0.00000000000E+00 -0.00000000000E+00 -0.51939685189E+02  0.51939685189E+02  0.00000000000E+00 0.  1.
         24    1    1    2    0    0  0.96630391199E+01  0.20684691723E+02  0.59278780008E+02  0.10248131786E+03  0.80419002446E+02 0. -1.
          1    1    1    2  501    0  0.21907059368E+02  0.29353426205E+01 -0.22220731215E+02  0.31341607843E+02  0.00000000000E+00 0. -1.
         -2    1    1    2    0  502 -0.31570098488E+02 -0.23620034344E+02  0.10569699237E+03  0.11281148583E+03  0.00000000000E+00 0.  1.
<mgrwt>
<rscale>  2 0.72563948E+02</rscale>
<asrwt>0</asrwt>
<pdfrwt beam="1">  1       21 0.29953034E-01 0.72563948E+02</pdfrwt>
<pdfrwt beam="2">  1       21 0.79907209E-02 0.72563948E+02</pdfrwt>
<totfact> 0.12665927E+06</totfact>
</mgrwt>
</event>
<event>
 5    1  0.1624116E+000  0.1182422E+03  0.7546771E-02  0.1246025E+00
         21   -1    0    0  501  502  0.00000000000E+00  0.00000000000E+00  0.11656504725E+03  0.11656504725E+03  0.00000000000E+00 0. -1.
         21   -1    0    0  502  503 -0.00000000000E+00 -0.00000000000E+00 -0.19298510421E+03  0.19298510421E+03  0.00000000000E+00 0. -1.
         24    1    1    2    0    0 -0.28964087871E+02 -0.41044916341E+02 -0.61261975710E+02  0.11288865827E+03  0.80419002446E+02 0. -1.
          1    1    1    2  501    0  0.66762438407E+02  0.67956653328E+02  0.56894784252E+02  0.11096101292E+03  0.00000000000E+00 0. -1.
         -2    1    1    2    0  503 -0.37798350536E+02 -0.26911736986E+02 -0.72052865508E+02  0.85700480272E+02  0.00000000000E+00 0.  1.
<mgrwt>
<rscale>  2 0.11824221E+03</rscale>
<asrwt>0</asrwt>
<pdfrwt beam="1">  1       21 0.17933084E-01 0.11824221E+03</pdfrwt>
<pdfrwt beam="2">  1       21 0.29690016E-01 0.11824221E+03</pdfrwt>
<totfact> 0.31194405E+05</totfact>
</mgrwt>
</event>
<event>
 5    1  0.2142181E+000  0.8259644E+02  0.7546771E-02  0.1321841E+00
         21   -1    0    0  503  502  0.00000000000E+00  0.00000000000E+00  0.44257308848E+03  0.44257308848E+03  0.00000000000E+00 0. -1.
         21   -1    0    0  501  503 -0.00000000000E+00 -0.00000000000E+00 -0.10234389273E+03  0.10234389273E+03  0.00000000000E+00 0. -1.
         24    1    1    2    0    0 -0.40594128413E+02 -0.48166962428E+02  0.29007512123E+03  0.30753655302E+03  0.80419002446E+02 0. -1.
          1    1    1    2  501    0  0.22722030930E+02  0.28856362529E+02 -0.88727224824E+02  0.96028645585E+02  0.00000000000E+00 0. -1.
         -2    1    1    2    0  502  0.17872097483E+02  0.19310599900E+02  0.13888129935E+03  0.14135178261E+03  0.00000000000E+00 0.  1.
<mgrwt>
<rscale>  2 0.82596441E+02</rscale>
<asrwt>0</asrwt>
<pdfrwt beam="1">  1       21 0.68088166E-01 0.82596441E+02</pdfrwt>
<pdfrwt beam="2">  1       21 0.15745215E-01 0.82596441E+02</pdfrwt>
<totfact> 0.74711990E+04</totfact>
</mgrwt>
</event>
<event>
 5    1  0.1624116E+000  0.9140109E+02  0.7546771E-02  0.1299494E+00
         21   -1    0    0  501  502  0.00000000000E+00  0.00000000000E+00  0.13115230657E+03  0.13115230657E+03  0.00000000000E+00 0. -1.
         21   -1    0    0  502  503 -0.00000000000E+00 -0.00000000000E+00 -0.14822467873E+03  0.14822467873E+03  0.00000000000E+00 0.  1.
         24    1    1    2    0    0 -0.36717544071E+01  0.38524644794E+02  0.70536907151E+02  0.11375544498E+03  0.80419002446E+02 0.  1.
          1    1    1    2  501    0 -0.40765513051E+02 -0.20086837658E+02  0.18537265251E+02  0.49080936262E+02  0.00000000000E+00 0. -1.
         -2    1    1    2    0  503  0.44437267458E+02 -0.18437807137E+02 -0.10614654457E+03  0.11654060406E+03  0.00000000000E+00 0.  1.
<mgrwt>
<rscale>  2 0.91401090E+02</rscale>
<asrwt>0</asrwt>
<pdfrwt beam="1">  1       21 0.20177278E-01 0.91401090E+02</pdfrwt>
<pdfrwt beam="2">  1       21 0.22803797E-01 0.91401090E+02</pdfrwt>
<totfact> 0.41516384E+05</totfact>
</mgrwt>
</event>
<event>
 5    1  0.1624116E+000  0.1586738E+03  0.7546771E-02  0.1190202E+00
         21   -1    0    0  501  502  0.00000000000E+00  0.00000000000E+00  0.25517891779E+03  0.25517891779E+03  0.00000000000E+00 0. -1.
         21   -1    0    0  502  503 -0.00000000000E+00 -0.00000000000E+00 -0.31131702097E+03  0.31131702097E+03  0.00000000000E+00 0.  1.
         24    1    1    2    0    0  0.93492389708E+02  0.46702623274E+02 -0.25430323237E+03  0.28645996562E+03  0.80419002446E+02 0.  1.
          1    1    1    2  501    0 -0.13548720464E+03 -0.23528513847E+02  0.18459968513E+03  0.23018995924E+03  0.00000000000E+00 0. -1.
         -2    1    1    2    0  503  0.41994814932E+02 -0.23174109427E+02  0.13565444059E+02  0.49846013898E+02  0.00000000000E+00 0.  1.
<mgrwt>
<rscale>  2 0.15867382E+03</rscale>
<asrwt>0</asrwt>
<pdfrwt beam="1">  1       21 0.39258295E-01 0.15867382E+03</pdfrwt>
<pdfrwt beam="2">  1       21 0.47894926E-01 0.15867382E+03</pdfrwt>
<totfact> 0.26588320E+04</totfact>
</mgrwt>
</event>
<event>
 5    1  0.1624116E+000  0.7165085E+02  0.7546771E-02  0.1354568E+00
         21   -1    0    0  501  502  0.00000000000E+00  0.00000000000E+00  0.12069501917E+02  0.12069501917E+02  0.00000000000E+00 0.  1.
         21   -1    0    0  502  503 -0.00000000000E+00 -0.00000000000E+00 -0.59076179871E+03  0.59076179871E+03  0.00000000000E+00 0. -1.
         24    1    1    2    0    0 -0.75065152996E+01 -0.11788548228E+02 -0.16510343741E+03  0.18417838809E+03  0.80419002446E+02 0.  1.
          1    1    1    2  501    0  0.28222251892E+02 -0.11529471424E+02 -0.13934360644E+03  0.14263963288E+03  0.00000000000E+00 0. -1.
         -2    1    1    2    0  503 -0.20715736593E+02  0.23318019652E+02 -0.27424525294E+03  0.27601327965E+03  0.00000000000E+00 0.  1.
<mgrwt>
<rscale>  2 0.71650848E+02</rscale>
<asrwt>0</asrwt>
<pdfrwt beam="1">  1       21 0.18568470E-02 0.71650848E+02</pdfrwt>
<pdfrwt beam="2">  1       21 0.90886405E-01 0.71650848E+02</pdfrwt>
<totfact> 0.14149015E+06</totfact>
</mgrwt>
</event>
<event>
 5    1  0.1624116E+000  0.1064312E+03  0.7546771E-02  0.1267325E+00
         21   -1    0    0  503  502  0.00000000000E+00  0.00000000000E+00  0.63429590482E+02  0.63429590482E+02  0.00000000000E+00 0.  1.
         21   -1    0    0  501  503 -0.00000000000E+00 -0.00000000000E+00 -0.13037336432E+04  0.13037336432E+04  0.00000000000E+00 0. -1.
         24    1    1    2    0    0  0.64625874164E+02 -0.19873997266E+02 -0.16002535675E+03  0.19143356586E+03  0.80419002446E+02 0. -1.
          1    1    1    2  501    0 -0.85278442656E+02  0.16790949072E+02 -0.11239590931E+04  0.11273146818E+04  0.00000000000E+00 0. -1.
         -2    1    1    2    0  502  0.20652568492E+02  0.30830481945E+01  0.43680397190E+02  0.48414986008E+02  0.00000000000E+00 0.  1.
<mgrwt>
<rscale>  2 0.10643119E+03</rscale>
<asrwt>0</asrwt>
<pdfrwt beam="1">  1       21 0.97583993E-02 0.10643119E+03</pdfrwt>
<pdfrwt beam="2">  1       21 0.20057439E+00 0.10643119E+03</pdfrwt>
<totfact> 0.12303962E+04</totfact>
</mgrwt>
</event>
<event>
 5    1  0.1624116E+000  0.1205230E+03  0.7546771E-02  0.1242237E+00
         21   -1    0    0  501  502  0.00000000000E+00  0.00000000000E+00  0.82232277268E+02  0.82232277268E+02  0.00000000000E+00 0. -1.
         21   -1    0    0  502  503 -0.00000000000E+00 -0.00000000000E+00 -0.28861370154E+03  0.28861370154E+03  0.00000000000E+00 0. -1.
         24    1    1    2    0    0 -0.79337904414E+02  0.28504696800E+02 -0.13343575888E+03  0.17714214213E+03  0.80419002446E+02 0. -1.
          1    1    1    2  501    0  0.98411094901E+02 -0.11675963902E+02  0.16718470313E+02  0.10050163671E+03  0.00000000000E+00 0. -1.
         -2    1    1    2    0  503 -0.19073190487E+02 -0.16828732898E+02 -0.89664135706E+02  0.93202199964E+02  0.00000000000E+00 0.  1.
<mgrwt>
<rscale>  2 0.12052295E+03</rscale>
<asrwt>0</asrwt>
<pdfrwt beam="1">  1       21 0.12651119E-01 0.12052295E+03</pdfrwt>
<pdfrwt beam="2">  1       21 0.44402109E-01 0.12052295E+03</pdfrwt>
<totfact> 0.26434289E+05</totfact>
</mgrwt>
</event>
<event>
 5    1  0.1624116E+000  0.8469371E+02  0.7546771E-02  0.1316235E+00
         21   -1    0    0  503  502  0.00000000000E+00  0.00000000000E+00  0.27164786533E+02  0.27164786533E+02  0.00000000000E+00 0. -1.
         21   -1    0    0  501  503 -0.00000000000E+00 -0.00000000000E+00 -0.28481989321E+03  0.28481989321E+03  0.00000000000E+00 0. -1.
         24    1    1    2    0    0 -0.41937599798E+01 -0.51141424571E+02 -0.11130795811E+03  0.14659369162E+03  0.80419002446E+02 0. -1.
          1    1    1    2  501    0 -0.16035412527E+02  0.51315186763E+02 -0.12452153359E+03  0.13563183688E+03  0.00000000000E+00 0. -1.
         -2    1    1    2    0  502  0.20229172507E+02 -0.17376219254E+00 -0.21825614976E+02  0.29759151243E+02  0.00000000000E+00 0.  1.
<mgrwt>
<rscale>  2 0.84693712E+02</rscale>
<asrwt>0</asrwt>
<pdfrwt beam="1">  1       21 0.41791977E-02 0.84693712E+02</pdfrwt>
<pdfrwt beam="2">  1       21 0.43818447E-01 0.84693712E+02</pdfrwt>
<totfact> 0.17938381E+06</totfact>
</mgrwt>
</event>
<event>
 5    1  0.1624116E+000  0.1012736E+03  0.7546771E-02  0.1277640E+00
         21   -1    0    0  501  502  0.00000000000E+00  0.00000000000E+00  0.19990606219E+03  0.19990606219E+03  0.00000000000E+00 0. -1.
         21   -1    0    0  502  503 -0.00000000000E+00 -0.00000000000E+00 -0.11408256175E+03  0.11408256175E+03  0.00000000000E+00 0.  1.
         24    1    1    2    0    0  0.37151978084E+02  0.64732123913E+02  0.22746071651E+02  0.11204961879E+03  0.80419002446E+02 0.  0.
          1    1    1    2  501    0  0.14692595460E+02 -0.14461133870E+02  0.11253737870E+03  0.11441004484E+03  0.00000000000E+00 0. -1.
         -2    1    1    2    0  503 -0.51844573544E+02 -0.50270990042E+02 -0.49459949917E+02  0.87528960303E+02  0.00000000000E+00 0.  1.
<mgrwt>
<rscale>  2 0.10127362E+03</rscale>
<asrwt>0</asrwt>
<pdfrwt beam="1">  1       21 0.30754779E-01 0.10127362E+03</pdfrwt>
<pdfrwt beam="2">  1       21 0.17551163E-01 0.10127362E+03</pdfrwt>
<totfact> 0.30406370E+05</totfact>
</mgrwt>
</event>
<event>
 5    1  0.1624116E+000  0.1029517E+03  0.7546771E-02  0.1274209E+00
         21   -1    0    0  501  502  0.00000000000E+00  0.00000000000E+00  0.16144132651E+02  0.16144132651E+02  0.00000000000E+00 0. -1.
         21   -1    0    0  502  503 -0.00000000000E+00 -0.00000000000E+00 -0.69706830767E+03  0.69706830767E+03  0.00000000000E+00 0. -1.
         24    1    1    2    0    0  0.84640700337E+02 -0.20952811040E+02 -0.36120909979E+03  0.38018718832E+03  0.80419002446E+02 0. -1.
          1    1    1    2  501    0 -0.56423692673E+02  0.12040327496E+02 -0.14929071280E+03  0.16005099035E+03  0.00000000000E+00 0. -1.
         -2    1    1    2    0  503 -0.28217007663E+02  0.89124835447E+01 -0.17042436243E+03  0.17297426165E+03  0.00000000000E+00 0.  1.
<mgrwt>
<rscale>  2 0.10295168E+03</rscale>
<asrwt>0</asrwt>
<pdfrwt beam="1">  1       21 0.24837130E-02 0.10295168E+03</pdfrwt>
<pdfrwt beam="2">  1       21 0.10724126E+00 0.10295168E+03</pdfrwt>
<totfact> 0.60819729E+05</totfact>
</mgrwt>
</event>
<event>
 5    1  0.1624116E+000  0.7339029E+02  0.7546771E-02  0.1348929E+00
         21   -1    0    0  501  502  0.00000000000E+00  0.00000000000E+00  0.51536132674E+02  0.51536132674E+02  0.00000000000E+00 0.  1.
         21   -1    0    0  502  503 -0.00000000000E+00 -0.00000000000E+00 -0.11196198695E+03  0.11196198695E+03  0.00000000000E+00 0. -1.
         24    1    1    2    0    0 -0.33544322404E+01 -0.29555482339E+02 -0.21162062262E+02  0.88316632553E+02  0.80419002446E+02 0.  0.
          1    1    1    2  501    0 -0.24365626115E+02  0.71471265131E+01 -0.52853104420E+01  0.25936454265E+02  0.00000000000E+00 0. -1.
         -2    1    1    2    0  503  0.27720058356E+02  0.22408355826E+02 -0.33978481571E+02  0.49245032804E+02  0.00000000000E+00 0.  1.
<mgrwt>
<rscale>  2 0.73390290E+02</rscale>
<asrwt>0</asrwt>
<pdfrwt beam="1">  1       21 0.79286359E-02 0.73390290E+02</pdfrwt>
<pdfrwt beam="2">  1       21 0.17224921E-01 0.73390290E+02</pdfrwt>
<totfact> 0.35600512E+06</totfact>
</mgrwt>
</event>
<event>
 5    1  0.1624116E+000  0.7443294E+02  0.7546771E-02  0.1345636E+00
         21   -1    0    0  501  502  0.00000000000E+00  0.00000000000E+00  0.38094307349E+03  0.38094307349E+03  0.00000000000E+00 0. -1.
         21   -1    0    0  502  503 -0.00000000000E+00 -0.00000000000E+00 -0.10101416478E+03  0.10101416478E+03  0.00000000000E+00 0.  1.
         24    1    1    2    0    0 -0.60530358675E+01 -0.17921163351E+02  0.10355939380E+03  0.13247479510E+03  0.80419002446E+02 0.  1.
          1    1    1    2  501    0  0.28923274279E+02 -0.95942707600E+01  0.25829420412E+03  0.26008556613E+03  0.00000000000E+00 0. -1.
         -2    1    1    2    0  503 -0.22870238411E+02  0.27515434111E+02 -0.81924689215E+02  0.89396877028E+02  0.00000000000E+00 0.  1.
<mgrwt>
<rscale>  2 0.74432937E+02</rscale>
<asrwt>0</asrwt>
<pdfrwt beam="1">  1       21 0.58606626E-01 0.74432937E+02</pdfrwt>
<pdfrwt beam="2">  1       21 0.15540641E-01 0.74432937E+02</pdfrwt>
<totfact> 0.10549309E+05</totfact>
</mgrwt>
</event>
<event>
 5    1  0.1624116E+000  0.1407656E+03  0.7546771E-02  0.1212303E+00
         21   -1    0    0  501  502  0.00000000000E+00  0.00000000000E+00  0.52242158304E+02  0.52242158304E+02  0.00000000000E+00 0.  1.
         21   -1    0    0  502  503 -0.00000000000E+00 -0.00000000000E+00 -0.66048621673E+03  0.66048621673E+03  0.00000000000E+00 0.  1.
         24    1    1    2    0    0 -0.57949616744E+02 -0.59828553993E+02 -0.11475253121E+03  0.16301218766E+03  0.80419002446E+02 0.  0.
          1    1    1    2  501    0  0.99970148459E+02  0.70583720022E+02 -0.11239355820E+03  0.16615776852E+03  0.00000000000E+00 0. -1.
         -2    1    1    2    0  503 -0.42020531714E+02 -0.10755166029E+02 -0.38109796902E+03  0.38355841885E+03  0.00000000000E+00 0.  1.
<mgrwt>
<rscale>  2 0.14076558E+03</rscale>
<asrwt>0</asrwt>
<pdfrwt beam="1">  1       21 0.80372550E-02 0.14076558E+03</pdfrwt>
<pdfrwt beam="2">  1       21 0.10161327E+00 0.14076558E+03</pdfrwt>
<totfact> 0.96184331E+04</totfact>
</mgrwt>
</event>
<event>
 5    1  0.1624116E+000  0.1098776E+03  0.7546771E-02  0.1260797E+00
         21   -1    0    0  503  502  0.00000000000E+00  0.00000000000E+00  0.16829943083E+03  0.16829943083E+03  0.00000000000E+00 0.  1.
         21   -1    0    0  501  503 -0.00000000000E+00 -0.00000000000E+00 -0.30965444901E+03  0.30965444901E+03  0.00000000000E+00 0. -1.
         24    1    1    2    0    0  0.72647419620E+02 -0.14706414579E+02 -0.17420976503E+03  0.20569439563E+03  0.80419002446E+02 0. -1.
          1    1    1    2  501    0 -0.66982308012E+02 -0.24088290698E+02 -0.10616351510E+03  0.12781849348E+03  0.00000000000E+00 0. -1.
         -2    1    1    2    0  502 -0.56651116079E+01  0.38794705278E+02  0.13901826196E+03  0.14444099073E+03  0.00000000000E+00 0.  1.
<mgrwt>
<rscale>  2 0.10987757E+03</rscale>
<asrwt>0</asrwt>
<pdfrwt beam="1">  1       21 0.25892220E-01 0.10987757E+03</pdfrwt>
<pdfrwt beam="2">  1       21 0.47639146E-01 0.10987757E+03</pdfrwt>
<totfact> 0.62122025E+04</totfact>
</mgrwt>
</event>
<event>
 5    1  0.1624116E+000  0.1163800E+03  0.7546771E-02  0.1249191E+00
         21   -1    0    0  501  502  0.00000000000E+00  0.00000000000E+00  0.17939936083E+02  0.17939936083E+02  0.00000000000E+00 0.  1.
         21   -1    0    0  502  503 -0.00000000000E+00 -0.00000000000E+00 -0.97401038830E+03  0.97401038830E+03  0.00000000000E+00 0.  1.
         24    1    1    2    0    0 -0.12161240020E+02  0.77074812141E+02 -0.25065247555E+03  0.27455837608E+03  0.80419002446E+02 0.  1.
          1    1    1    2  501    0  0.15068218395E+02  0.19190255095E+02 -0.59110444029E+02  0.63948117169E+02  0.00000000000E+00 0. -1.
         -2    1    1    2    0  503 -0.29069783748E+01 -0.96265067235E+02 -0.64630753264E+03  0.65344383113E+03  0.00000000000E+00 0.  1.
<mgrwt>
<rscale>  2 0.11638001E+03</rscale>
<asrwt>0</asrwt>
<pdfrwt beam="1">  1       21 0.27599901E-02 0.11638001E+03</pdfrwt>
<pdfrwt beam="2">  1       21 0.14984775E+00 0.11638001E+03</pdfrwt>
<totfact> 0.22420148E+05</totfact>
</mgrwt>
</event>
<event>
 5    1  0.1624116E+000  0.8416379E+02  0.7546771E-02  0.1317634E+00
         21   -1    0    0  501  502  0.00000000000E+00  0.00000000000E+00  0.14527189292E+03  0.14527189292E+03  0.00000000000E+00 0. -1.
         21   -1    0    0  502  503 -0.00000000000E+00 -0.00000000000E+00 -0.49061877548E+02  0.49061877548E+02  0.00000000000E+00 0.  1.
         24    1    1    2    0    0 -0.52911902297E+02 -0.34051595917E+02  0.63649190900E+02  0.12032296558E+03  0.80419002446E+02 0.  0.
          1    1    1    2  501    0  0.39430442854E+02  0.13575172529E+02  0.23544932016E+02  0.47889549554E+02  0.00000000000E+00 0. -1.
         -2    1    1    2    0  503  0.13481459443E+02  0.20476423387E+02  0.90158924536E+01  0.26121255333E+02  0.00000000000E+00 0.  1.
<mgrwt>
<rscale>  2 0.84163788E+02</rscale>
<asrwt>0</asrwt>
<pdfrwt beam="1">  1       21 0.22349522E-01 0.84163788E+02</pdfrwt>
<pdfrwt beam="2">  1       21 0.75479812E-02 0.84163788E+02</pdfrwt>
<totfact> 0.24273334E+06</totfact>
</mgrwt>
</event>
<event>
 5    1  0.1624116E+000  0.2686293E+03  0.7546771E-02  0.1102067E+00
         21   -1    0    0  503  502  0.00000000000E+00  0.00000000000E+00  0.47331012009E+03  0.47331012009E+03  0.00000000000E+00 0.  1.
         21   -1    0    0  501  503 -0.00000000000E+00 -0.00000000000E+00 -0.18919729725E+03  0.18919729725E+03  0.00000000000E+00 0.  1.
         24    1    1    2    0    0 -0.11363714799E+03 -0.23241400797E+03  0.17186202771E+03  0.32083242515E+03  0.80419002446E+02 0.  1.
          1    1    1    2  501    0 -0.80277803838E+01  0.19985425318E+02 -0.45574236122E+02  0.50407077689E+02  0.00000000000E+00 0. -1.
         -2    1    1    2    0  502  0.12166492837E+03  0.21242858266E+03  0.15782503126E+03  0.29126791450E+03  0.00000000000E+00 0.  1.
<mgrwt>
<rscale>  2 0.26862928E+03</rscale>
<asrwt>0</asrwt>
<pdfrwt beam="1">  1       21 0.72816941E-01 0.26862928E+03</pdfrwt>
<pdfrwt beam="2">  1       21 0.29107277E-01 0.26862928E+03</pdfrwt>
<totfact> 0.18422127E+04</totfact>
</mgrwt>
</event>
<event>
 5    1  0.1624116E+000  0.8343448E+02  0.7546771E-02  0.1319578E+00
         21   -1    0    0  501  502  0.00000000000E+00  0.00000000000E+00  0.49211918394E+02  0.49211918394E+02  0.00000000000E+00 0.  1.
         21   -1    0    0  502  503 -0.00000000000E+00 -0.00000000000E+00 -0.31953774457E+03  0.31953774457E+03  0.00000000000E+00 0. -1.
         24    1    1    2    0    0 -0.40455647852E+02  0.40636405284E+02 -0.13224357833E+03  0.16505622327E+03  0.80419002446E+02 0. -1.
          1    1    1    2  501    0  0.70876525325E+01 -0.33155076589E+02  0.21725596950E+02  0.40267797120E+02  0.00000000000E+00 0. -1.
         -2    1    1    2    0  503  0.33367995320E+02 -0.74813286944E+01 -0.15980784480E+03  0.16342564257E+03  0.00000000000E+00 0.  1.
<mgrwt>
<rscale>  2 0.83434481E+02</rscale>
<asrwt>0</asrwt>
<pdfrwt beam="1">  1       21 0.75710645E-02 0.83434481E+02</pdfrwt>
<pdfrwt beam="2">  1       21 0.49159652E-01 0.83434481E+02</pdfrwt>
<totfact> 0.52668344E+05</totfact>
</mgrwt>
</event>
<event>
 5    1  0.1624116E+000  0.7459855E+02  0.7546771E-02  0.1345119E+00
         21   -1    0    0  501  502  0.00000000000E+00  0.00000000000E+00  0.26251420839E+03  0.26251420839E+03  0.00000000000E+00 0.  1.
         21   -1    0    0  502  503 -0.00000000000E+00 -0.00000000000E+00 -0.12202155578E+03  0.12202155578E+03  0.00000000000E+00 0.  1.
         24    1    1    2    0    0  0.34352036503E+02 -0.26480842103E+02  0.80181302380E+02  0.12156296564E+03  0.80419002446E+02 0.  1.
          1    1    1    2  501    0 -0.28053843688E+02 -0.25042875033E+01  0.15820063780E+03  0.16068830512E+03  0.00000000000E+00 0. -1.
         -2    1    1    2    0  503 -0.62981928157E+01  0.28985129606E+02 -0.97889287568E+02  0.10228449341E+03  0.00000000000E+00 0.  1.
<mgrwt>
<rscale>  2 0.74598552E+02</rscale>
<asrwt>0</asrwt>
<pdfrwt beam="1">  1       21 0.40386801E-01 0.74598552E+02</pdfrwt>
<pdfrwt beam="2">  1       21 0.18772547E-01 0.74598552E+02</pdfrwt>
<totfact> 0.15961693E+05</totfact>
</mgrwt>
</event>
<event>
 5    1  0.1624116E+000  0.1228079E+03  0.7546771E-02  0.1238535E+00
         21   -1    0    0  501  502  0.00000000000E+00  0.00000000000E+00  0.15079175939E+04  0.15079175939E+04  0.00000000000E+00 0.  1.
         21   -1    0    0  502  503 -0.00000000000E+00 -0.00000000000E+00 -0.12836024103E+02  0.12836024103E+02  0.00000000000E+00 0.  1.
         24    1    1    2    0    0  0.96793727079E+02  0.47802431975E+02  0.79348798689E+03  0.80482575717E+03  0.80419002446E+02 0.  1.
          1    1    1    2  501    0 -0.20697443550E+02  0.79037394304E+00  0.41348094441E+03  0.41399939643E+03  0.00000000000E+00 0. -1.
         -2    1    1    2    0  503 -0.76096283529E+02 -0.48592805918E+02  0.28811263853E+03  0.30192846443E+03  0.00000000000E+00 0.  1.
<mgrwt>
<rscale>  2 0.12280793E+03</rscale>
<asrwt>0</asrwt>
<pdfrwt beam="1">  1       21 0.23198718E+00 0.12280793E+03</pdfrwt>
<pdfrwt beam="2">  1       21 0.19747741E-02 0.12280793E+03</pdfrwt>
<totfact> 0.11232266E+05</totfact>
</mgrwt>
</event>
<event>
 5    1  0.1624116E+000  0.8139856E+02  0.7546771E-02  0.1325129E+00
         21   -1    0    0  503  502  0.00000000000E+00  0.00000000000E+00  0.50873780481E+02  0.50873780481E+02  0.00000000000E+00 0. -1.
         21   -1    0    0  501  503 -0.00000000000E+00 -0.00000000000E+00 -0.26982772474E+03  0.26982772474E+03  0.00000000000E+00 0. -1.
         24    1    1    2    0    0  0.24512987648E+02 -0.21191241847E+02 -0.45063655038E+02  0.97713378072E+02  0.80419002446E+02 0. -1.
          1    1    1    2  501    0 -0.47928059730E+02  0.62851943629E+01 -0.18638299684E+03  0.19254927704E+03  0.00000000000E+00 0. -1.
         -2    1    1    2    0  502  0.23415072081E+02  0.14906047484E+02  0.12492707620E+02  0.30438850107E+02  0.00000000000E+00 0.  1.
<mgrwt>
<rscale>  2 0.81398563E+02</rscale>
<asrwt>0</asrwt>
<pdfrwt beam="1">  1       21 0.78267353E-02 0.81398563E+02</pdfrwt>
<pdfrwt beam="2">  1       21 0.41511958E-01 0.81398563E+02</pdfrwt>
<totfact> 0.69880153E+05</totfact>
</mgrwt>
</event>
<event>
 5    1  0.1624116E+000  0.1641205E+03  0.7546771E-02  0.1184122E+00
         21   -1    0    0  503  502  0.00000000000E+00  0.00000000000E+00  0.32796027266E+03  0.32796027266E+03  0.00000000000E+00 0.  1.
         21   -1    0    0  501  503 -0.00000000000E+00 -0.00000000000E+00 -0.98559484728E+02  0.98559484728E+02  0.00000000000E+00 0.  1.
         24    1    1    2    0    0 -0.95107424567E+02  0.11848505943E+03  0.65804923493E+02  0.18406964830E+03  0.80419002446E+02 0.  1.
          1    1    1    2  501    0  0.58792045831E+02 -0.43880248737E+02  0.19070798543E+02  0.75800239045E+02  0.00000000000E+00 0. -1.
         -2    1    1    2    0  502  0.36315378737E+02 -0.74604810696E+02  0.14452506589E+03  0.16664987003E+03  0.00000000000E+00 0.  1.
<mgrwt>
<rscale>  2 0.16412052E+03</rscale>
<asrwt>0</asrwt>
<pdfrwt beam="1">  1       21 0.50455426E-01 0.16412052E+03</pdfrwt>
<pdfrwt beam="2">  1       21 0.15162998E-01 0.16412052E+03</pdfrwt>
<totfact> 0.14522665E+05</totfact>
</mgrwt>
</event>
<event>
 5    1  0.1624116E+000  0.7203001E+02  0.7546771E-02  0.1353323E+00
         21   -1    0    0  503  502  0.00000000000E+00  0.00000000000E+00  0.16295203354E+03  0.16295203354E+03  0.00000000000E+00 0. -1.
         21   -1    0    0  501  503 -0.00000000000E+00 -0.00000000000E+00 -0.55860212344E+02  0.55860212344E+02  0.00000000000E+00 0.  1.
         24    1    1    2    0    0 -0.18752795631E+02  0.45575865664E+02  0.16391230073E+02  0.95732519306E+02  0.80419002446E+02 0.  1.
          1    1    1    2  501    0  0.10579825193E+02 -0.17033688009E+02 -0.67886717922E+01  0.21169914809E+02  0.00000000000E+00 0. -1.
         -2    1    1    2    0  502  0.81729704379E+01 -0.28542177655E+02  0.97489262918E+02  0.10190981177E+03  0.00000000000E+00 0.  1.
<mgrwt>
<rscale>  2 0.72030015E+02</rscale>
<asrwt>0</asrwt>
<pdfrwt beam="1">  1       21 0.25069543E-01 0.72030015E+02</pdfrwt>
<pdfrwt beam="2">  1       21 0.85938789E-02 0.72030015E+02</pdfrwt>
<totfact> 0.15627353E+06</totfact>
</mgrwt>
</event>
<event>
 5    1  0.1624116E+000  0.6618573E+02  0.7546771E-02  0.1373566E+00
         21   -1    0    0  501  502  0.00000000000E+00  0.00000000000E+00  0.11219350433E+02  0.11219350433E+02  0.00000000000E+00 0. -1.
         21   -1    0    0  502  503 -0.00000000000E+00 -0.00000000000E+00 -0.15548733645E+04  0.15548733645E+04  0.00000000000E+00 0. -1.
         24    1    1    2    0    0  0.58382516292E-01 -0.34888617645E+02 -0.80060120345E+03  0.80538607014E+03  0.80419002446E+02 0. -1.
          1    1    1    2  501    0 -0.14001161943E+02  0.18261789386E+02 -0.66068760101E+01  0.23941100600E+02  0.00000000000E+00 0. -1.
         -2    1    1    2    0  503  0.13942779426E+02  0.16626828259E+02 -0.73644593466E+03  0.73676554424E+03  0.00000000000E+00 0.  1.
<mgrwt>
<rscale>  2 0.66185733E+02</rscale>
<asrwt>0</asrwt>
<pdfrwt beam="1">  1       21 0.17260541E-02 0.66185733E+02</pdfrwt>
<pdfrwt beam="2">  1       21 0.23921125E+00 0.66185733E+02</pdfrwt>
<totfact> 0.13457946E+05</totfact>
</mgrwt>
</event>
<event>
 5    1  0.1624116E+000  0.8024038E+02  0.7546771E-02  0.1328371E+00
         21   -1    0    0  501  502  0.00000000000E+00  0.00000000000E+00  0.15500566557E+04  0.15500566557E+04  0.00000000000E+00 0. -1.
         21   -1    0    0  502  503 -0.00000000000E+00 -0.00000000000E+00 -0.15659892312E+02  0.15659892312E+02  0.00000000000E+00 0.  1.
         24    1    1    2    0    0 -0.97741432039E+01  0.30978739004E+02  0.47222897409E+03  0.48012772892E+03  0.80419002446E+02 0.  0.
          1    1    1    2  501    0 -0.28033110840E+02 -0.67176381540E+01  0.10298409343E+04  0.10302443069E+04  0.00000000000E+00 0. -1.
         -2    1    1    2    0  503  0.37807254044E+02 -0.24261100850E+02  0.32326854946E+02  0.55344512136E+02  0.00000000000E+00 0.  1.
<mgrwt>
<rscale>  2 0.80240375E+02</rscale>
<asrwt>0</asrwt>
<pdfrwt beam="1">  1       21 0.23847013E+00 0.80240375E+02</pdfrwt>
<pdfrwt beam="2">  1       21 0.24092154E-02 0.80240375E+02</pdfrwt>
<totfact> 0.78335263E+04</totfact>
</mgrwt>
</event>
<event>
 5    1  0.1624116E+000  0.1252551E+03  0.7546771E-02  0.1234671E+00
         21   -1    0    0  503  502  0.00000000000E+00  0.00000000000E+00  0.25209098815E+03  0.25209098815E+03  0.00000000000E+00 0.  1.
         21   -1    0    0  501  503 -0.00000000000E+00 -0.00000000000E+00 -0.11198857391E+03  0.11198857391E+03  0.00000000000E+00 0.  1.
         24    1    1    2    0    0  0.21677644281E+02 -0.79504764904E+02  0.63277232000E+00  0.11514575224E+03  0.80419002446E+02 0.  1.
          1    1    1    2  501    0 -0.63809024580E+02  0.64266734212E+02 -0.11652479729E+02  0.91310377438E+02  0.00000000000E+00 0. -1.
         -2    1    1    2    0  502  0.42131380299E+02  0.15238030692E+02  0.15112212165E+03  0.15762343239E+03  0.00000000000E+00 0.  1.
<mgrwt>
<rscale>  2 0.12525509E+03</rscale>
<asrwt>0</asrwt>
<pdfrwt beam="1">  1       21 0.38783229E-01 0.12525509E+03</pdfrwt>
<pdfrwt beam="2">  1       21 0.17229011E-01 0.12525509E+03</pdfrwt>
<totfact> 0.19877468E+05</totfact>
</mgrwt>
</event>
<event>
 5    1  0.1624116E+000  0.6625754E+02  0.7546771E-02  0.1373303E+00
         21   -1    0    0  501  502  0.00000000000E+00  0.00000000000E+00  0.59849607594E+02  0.59849607594E+02  0.00000000000E+00 0. -1.
         21   -1    0    0  502  503 -0.00000000000E+00 -0.00000000000E+00 -0.23531719743E+03  0.23531719743E+03  0.00000000000E+00 0. -1.
         24    1    1    2    0    0 -0.15157245215E+02  0.14426363687E+02 -0.54011280455E+02  0.99107499325E+02  0.80419002446E+02 0.  0.
          1    1    1    2  501    0  0.16716966828E+02  0.13476038985E+02  0.32848704817E+02  0.39244082545E+02  0.00000000000E+00 0. -1.
         -2    1    1    2    0  503 -0.15597216126E+01 -0.27902402672E+02 -0.15430501419E+03  0.15681522315E+03  0.00000000000E+00 0.  1.
<mgrwt>
<rscale>  2 0.66257542E+02</rscale>
<asrwt>0</asrwt>
<pdfrwt beam="1">  1       21 0.92076319E-02 0.66257542E+02</pdfrwt>
<pdfrwt beam="2">  1       21 0.36202646E-01 0.66257542E+02</pdfrwt>
<totfact> 0.69050049E+05</totfact>
</mgrwt>
</event>
<event>
 5    1  0.1624116E+000  0.7351544E+02  0.7546771E-02  0.1348531E+00
         21   -1    0    0  503  502  0.00000000000E+00  0.00000000000E+00  0.20751179957E+03  0.20751179957E+03  0.00000000000E+00 0.  1.
         21   -1    0    0  501  503 -0.00000000000E+00 -0.00000000000E+00 -0.34975531718E+02  0.34975531718E+02  0.00000000000E+00 0. -1.
         24    1    1    2    0    0 -0.22574120513E+02 -0.83900771545E+01  0.55748469881E+02  0.10077247720E+03  0.80419002446E+02 0. -1.
          1    1    1    2  501    0  0.39951435575E+02 -0.61540935653E+01  0.25815687511E+02  0.47962900181E+02  0.00000000000E+00 0. -1.
         -2    1    1    2    0  502 -0.17377315061E+02  0.14544170720E+02  0.90972110463E+02  0.93751953915E+02  0.00000000000E+00 0.  1.
<mgrwt>
<rscale>  2 0.73515437E+02</rscale>
<asrwt>0</asrwt>
<pdfrwt beam="1">  1       21 0.31924892E-01 0.73515437E+02</pdfrwt>
<pdfrwt beam="2">  1       21 0.53808511E-02 0.73515437E+02</pdfrwt>
<totfact> 0.21799970E+06</totfact>
</mgrwt>
</event>
<event>
 5    1  0.1624116E+000  0.7407089E+02  0.7546771E-02  0.1346773E+00
         21   -1    0    0  503  502  0.00000000000E+00  0.00000000000E+00  0.48277263963E+02  0.48277263963E+02  0.00000000000E+00 0.  1.
         21   -1    0    0  501  503 -0.00000000000E+00 -0.00000000000E+00 -0.26914079701E+03  0.26914079701E+03  0.00000000000E+00 0.  1.
         24    1    1    2    0    0 -0.10164170921E+02 -0.46668537394E+02 -0.65037972029E+02  0.11392285334E+03  0.80419002446E+02 0.  0.
          1    1    1    2  501    0 -0.63202181033E+01  0.31758799467E+02 -0.17262371492E+03  0.17563460210E+03  0.00000000000E+00 0. -1.
         -2    1    1    2    0  502  0.16484389024E+02  0.14909737927E+02  0.16798153900E+02  0.27860605539E+02  0.00000000000E+00 0.  1.
<mgrwt>
<rscale>  2 0.74070893E+02</rscale>
<asrwt>0</asrwt>
<pdfrwt beam="1">  1       21 0.74272715E-02 0.74070893E+02</pdfrwt>
<pdfrwt beam="2">  1       21 0.41406276E-01 0.74070893E+02</pdfrwt>
<totfact> 0.76665186E+05</totfact>
</mgrwt>
</event>
<event>
 5    1  0.1624116E+000  0.7847041E+02  0.7546771E-02  0.1333449E+00
         21   -1    0    0  501  502  0.00000000000E+00  0.00000000000E+00  0.53992234358E+02  0.53992234358E+02  0.00000000000E+00 0. -1.
         21   -1    0    0  502  503 -0.00000000000E+00 -0.00000000000E+00 -0.21947279752E+03  0.21947279752E+03  0.00000000000E+00 0. -1.
         24    1    1    2    0    0 -0.15136880503E+02  0.33358734778E+02 -0.16566892029E+03  0.18776404726E+03  0.80419002446E+02 0. -1.
          1    1    1    2  501    0  0.37124487977E+02 -0.15440468702E+02  0.25561046502E+02  0.47644546168E+02  0.00000000000E+00 0. -1.
         -2    1    1    2    0  503 -0.21987607475E+02 -0.17918266076E+02 -0.25372689368E+02  0.38056438449E+02  0.00000000000E+00 0.  1.
<mgrwt>
<rscale>  2 0.78470415E+02</rscale>
<asrwt>0</asrwt>
<pdfrwt beam="1">  1       21 0.83064975E-02 0.78470415E+02</pdfrwt>
<pdfrwt beam="2">  1       21 0.33765046E-01 0.78470415E+02</pdfrwt>
<totfact> 0.94503346E+05</totfact>
</mgrwt>
</event>
<event>
 5    1  0.1624116E+000  0.9201906E+02  0.7546771E-02  0.1298035E+00
         21   -1    0    0  501  502  0.00000000000E+00  0.00000000000E+00  0.33477503153E+02  0.33477503153E+02  0.00000000000E+00 0. -1.
         21   -1    0    0  502  503 -0.00000000000E+00 -0.00000000000E+00 -0.25610625154E+03  0.25610625154E+03  0.00000000000E+00 0.  1.
         24    1    1    2    0    0  0.11659124722E+02 -0.45711396690E+02 -0.97435036170E+02  0.13485647632E+03  0.80419002446E+02 0.  0.
          1    1    1    2  501    0  0.28004918582E+02  0.42648717414E+02 -0.66384177716E+02  0.83726027094E+02  0.00000000000E+00 0. -1.
         -2    1    1    2    0  503 -0.39664043304E+02  0.30626792761E+01 -0.58809534498E+02  0.71001251280E+02  0.00000000000E+00 0.  1.
<mgrwt>
<rscale>  2 0.92019061E+02</rscale>
<asrwt>0</asrwt>
<pdfrwt beam="1">  1       21 0.51503851E-02 0.92019061E+02</pdfrwt>
<pdfrwt beam="2">  1       21 0.39400962E-01 0.92019061E+02</pdfrwt>
<totfact> 0.15716008E+06</totfact>
</mgrwt>
</event>
<event>
 5    1  0.1624116E+000  0.1097919E+03  0.7546771E-02  0.1260956E+00
         21   -1    0    0  501  502  0.00000000000E+00  0.00000000000E+00  0.48485235813E+02  0.48485235813E+02  0.00000000000E+00 0. -1.
         21   -1    0    0  502  503 -0.00000000000E+00 -0.00000000000E+00 -0.31922091268E+03  0.31922091268E+03  0.00000000000E+00 0. -1.
         24    1    1    2    0    0  0.51290212174E+01  0.82968583992E+02 -0.18623083453E+03  0.21922416033E+03  0.80419002446E+02 0. -1.
          1    1    1    2  501    0 -0.26943254907E+02 -0.76597459746E+02 -0.25273021485E+02  0.85040198961E+02  0.00000000000E+00 0. -1.
         -2    1    1    2    0  503  0.21814233689E+02 -0.63711242467E+01 -0.59231820848E+02  0.63441789197E+02  0.00000000000E+00 0.  1.
<mgrwt>
<rscale>  2 0.10979193E+03</rscale>
<asrwt>0</asrwt>
<pdfrwt beam="1">  1       21 0.74592675E-02 0.10979193E+03</pdfrwt>
<pdfrwt beam="2">  1       21 0.49110906E-01 0.10979193E+03</pdfrwt>
<totfact> 0.54102315E+05</totfact>
</mgrwt>
</event>
<event>
 5    1  0.1624116E+000  0.8672624E+02  0.7546771E-02  0.1310979E+00
         21   -1    0    0  501  502  0.00000000000E+00  0.00000000000E+00  0.84974593808E+02  0.84974593808E+02  0.00000000000E+00 0.  1.
         21   -1    0    0  502  503 -0.00000000000E+00 -0.00000000000E+00 -0.21624604026E+03  0.21624604026E+03  0.00000000000E+00 0. -1.
         24    1    1    2    0    0 -0.33419664825E+02  0.43745370980E+01  0.45004007132E+02  0.98125364632E+02  0.80419002446E+02 0.  1.
          1    1    1    2  501    0  0.25454853636E+01  0.35631255661E+02 -0.24996553577E+02  0.43599238141E+02  0.00000000000E+00 0. -1.
         -2    1    1    2    0  503  0.30874179462E+02 -0.40005792759E+02 -0.15127890001E+03  0.15949603130E+03  0.00000000000E+00 0.  1.
<mgrwt>
<rscale>  2 0.86726240E+02</rscale>
<asrwt>0</asrwt>
<pdfrwt beam="1">  1       21 0.13073014E-01 0.86726240E+02</pdfrwt>
<pdfrwt beam="2">  1       21 0.33268622E-01 0.86726240E+02</pdfrwt>
<totfact> 0.44341712E+05</totfact>
</mgrwt>
</event>
<event>
 5    1  0.1624116E+000  0.9116888E+02  0.7546771E-02  0.1300046E+00
         21   -1    0    0  501  502  0.00000000000E+00  0.00000000000E+00  0.13703785906E+03  0.13703785906E+03  0.00000000000E+00 0. -1.
         21   -1    0    0  502  503 -0.00000000000E+00 -0.00000000000E+00 -0.18618256647E+03  0.18618256647E+03  0.00000000000E+00 0.  1.
         24    1    1    2    0    0  0.54449178287E+02 -0.11509320711E+02  0.63991141110E+02  0.11687283506E+03  0.80419002446E+02 0.  1.
          1    1    1    2  501    0  0.16325816391E+01  0.26451503935E+02  0.36926759271E+02  0.45452534951E+02  0.00000000000E+00 0. -1.
         -2    1    1    2    0  503 -0.56081759926E+02 -0.14942183224E+02 -0.15006260778E+03  0.16089505552E+03  0.00000000000E+00 0.  1.
<mgrwt>
<rscale>  2 0.91168877E+02</rscale>
<asrwt>0</asrwt>
<pdfrwt beam="1">  1       21 0.21082748E-01 0.91168877E+02</pdfrwt>
<pdfrwt beam="2">  1       21 0.28643472E-01 0.91168877E+02</pdfrwt>
<totfact> 0.24969453E+05</totfact>
</mgrwt>
</event>
<event>
 5    1  0.1624116E+000  0.1204404E+03  0.7546771E-02  0.1242372E+00
         21   -1    0    0  503  502  0.00000000000E+00  0.00000000000E+00  0.38758036431E+03  0.38758036431E+03  0.00000000000E+00 0.  1.
         21   -1    0    0  501  503 -0.00000000000E+00 -0.00000000000E+00 -0.10787524438E+03  0.10787524438E+03  0.00000000000E+00 0. -1.
         24    1    1    2    0    0 -0.89675468455E+02  0.35445280823E+02  0.66470898468E+02  0.14206918692E+03  0.80419002446E+02 0.  1.
          1    1    1    2  501    0  0.37442110179E+02 -0.48702430816E+02 -0.53378211714E+02  0.81382257697E+02  0.00000000000E+00 0. -1.
         -2    1    1    2    0  502  0.52233358276E+02  0.13257149993E+02  0.26661243318E+03  0.27200416406E+03  0.00000000000E+00 0.  1.
<mgrwt>
<rscale>  2 0.12044045E+03</rscale>
<asrwt>0</asrwt>
<pdfrwt beam="1">  1       21 0.59627748E-01 0.12044045E+03</pdfrwt>
<pdfrwt beam="2">  1       21 0.16596192E-01 0.12044045E+03</pdfrwt>
<totfact> 0.88250604E+04</totfact>
</mgrwt>
</event>
<event>
 5    1  0.1624116E+000  0.9171541E+02  0.7546771E-02  0.1298750E+00
         21   -1    0    0  501  502  0.00000000000E+00  0.00000000000E+00  0.12631623542E+03  0.12631623542E+03  0.00000000000E+00 0. -1.
         21   -1    0    0  502  503 -0.00000000000E+00 -0.00000000000E+00 -0.16238346157E+03  0.16238346157E+03  0.00000000000E+00 0.  1.
         24    1    1    2    0    0 -0.17849484931E+02 -0.20097437458E+02  0.49559420612E+02  0.98213355662E+02  0.80419002446E+02 0. -1.
          1    1    1    2  501    0 -0.32510855547E+02  0.33338897952E+02  0.35556455887E+02  0.58589243042E+02  0.00000000000E+00 0. -1.
         -2    1    1    2    0  503  0.50360340478E+02 -0.13241460494E+02 -0.12118310265E+03  0.13189709829E+03  0.00000000000E+00 0.  1.
<mgrwt>
<rscale>  2 0.91715407E+02</rscale>
<asrwt>0</asrwt>
<pdfrwt beam="1">  1       21 0.19433267E-01 0.91715407E+02</pdfrwt>
<pdfrwt beam="2">  1       21 0.24982071E-01 0.91715407E+02</pdfrwt>
<totfact> 0.37518492E+05</totfact>
</mgrwt>
</event>
<event>
 5    1  0.1624116E+000  0.8606535E+02  0.7546771E-02  0.1312670E+00
         21   -1    0    0  501  502  0.00000000000E+00  0.00000000000E+00  0.66835590412E+02  0.66835590412E+02  0.00000000000E+00 0.  1.
         21   -1    0    0  502  503 -0.00000000000E+00 -0.00000000000E+00 -0.25703061399E+03  0.25703061399E+03  0.00000000000E+00 0.  1.
         24    1    1    2    0    0  0.39021333340E+02  0.18456554961E+01 -0.25561185219E+01  0.89441716196E+02  0.80419002446E+02 0.  1.
          1    1    1    2  501    0  0.21839588099E+02 -0.11098650114E+00  0.12544839929E+02  0.25186364072E+02  0.00000000000E+00 0. -1.
         -2    1    1    2    0  503 -0.60860921439E+02 -0.17346689949E+01 -0.20018374499E+03  0.20923812414E+03  0.00000000000E+00 0.  1.
<mgrwt>
<rscale>  2 0.86065346E+02</rscale>
<asrwt>0</asrwt>
<pdfrwt beam="1">  1       21 0.10282398E-01 0.86065346E+02</pdfrwt>
<pdfrwt beam="2">  1       21 0.39543172E-01 0.86065346E+02</pdfrwt>
<totfact> 0.48166304E+05</totfact>
</mgrwt>
</event>
<event>
 5    1  0.1624116E+000  0.7220243E+02  0.7546771E-02  0.1352760E+00
         21   -1    0    0  503  502  0.00000000000E+00  0.00000000000E+00  0.36642672433E+03  0.36642672433E+03  0.00000000000E+00 0. -1.
         21   -1    0    0  501  503 -0.00000000000E+00 -0.00000000000E+00 -0.50291555141E+02  0.50291555141E+02  0.00000000000E+00 0. -1.
         24    1    1    2    0    0  0.48877337378E+02  0.25667981512E-01  0.21984065895E+03  0.23913620815E+03  0.80419002446E+02 0.  0.
          1    1    1    2  501    0 -0.21024189320E+02 -0.58898920466E+01 -0.36085442066E+02  0.42176610745E+02  0.00000000000E+00 0. -1.
         -2    1    1    2    0  502 -0.27853148058E+02  0.58642240651E+01  0.13237995231E+03  0.13540546058E+03  0.00000000000E+00 0.  1.
<mgrwt>
<rscale>  2 0.72202428E+02</rscale>
<asrwt>0</asrwt>
<pdfrwt beam="1">  1       21 0.56373340E-01 0.72202428E+02</pdfrwt>
<pdfrwt beam="2">  1       21 0.77371626E-02 0.72202428E+02</pdfrwt>
<totfact> 0.38358163E+05</totfact>
</mgrwt>
</event>
<event>
 5    1  0.1624116E+000  0.8223556E+02  0.7546771E-02  0.1322824E+00
         21   -1    0    0  501  502  0.00000000000E+00  0.00000000000E+00  0.36961900764E+03  0.36961900764E+03  0.00000000000E+00 0. -1.
         21   -1    0    0  502  503 -0.00000000000E+00 -0.00000000000E+00 -0.52496855091E+02  0.52496855091E+02  0.00000000000E+00 0. -1.
         24    1    1    2    0    0 -0.10309824819E+02  0.32090425646E+02  0.24583135441E+02  0.90595995543E+02  0.80419002446E+02 0. -1.
          1    1    1    2  501    0 -0.29952465557E+02 -0.11859509443E+02  0.28379798966E+03  0.28562054740E+03  0.00000000000E+00 0. -1.
         -2    1    1    2    0  503  0.40262290376E+02 -0.20230916203E+02  0.87410274466E+01  0.45899319794E+02  0.00000000000E+00 0.  1.
<mgrwt>
<rscale>  2 0.82235558E+02</rscale>
<asrwt>0</asrwt>
<pdfrwt beam="1">  1       21 0.56864461E-01 0.82235558E+02</pdfrwt>
<pdfrwt beam="2">  1       21 0.80764395E-02 0.82235558E+02</pdfrwt>
<totfact> 0.34991713E+05</totfact>
</mgrwt>
</event>
<event>
 5    1  0.1788902E+000  0.1188925E+03  0.7546771E-02  0.1244935E+00
         21   -1    0    0  501  502  0.00000000000E+00  0.00000000000E+00  0.14353321321E+03  0.14353321321E+03  0.00000000000E+00 0.  1.
         21   -1    0    0  502  503 -0.00000000000E+00 -0.00000000000E+00 -0.32101490299E+03  0.32101490299E+03  0.00000000000E+00 0.  1.
         24    1    1    2    0    0  0.15995242902E+02 -0.10385143757E+03  0.64249739083E+02  0.14709253484E+03  0.80419002446E+02 0.  1.
          1    1    1    2  501    0 -0.84642473531E+01  0.28245052149E+02  0.25901145235E+02  0.39246602128E+02  0.00000000000E+00 0. -1.
         -2    1    1    2    0  503 -0.75309955492E+01  0.75606385417E+02 -0.26763257410E+03  0.27820897924E+03  0.00000000000E+00 0.  1.
<mgrwt>
<rscale>  2 0.11889253E+03</rscale>
<asrwt>0</asrwt>
<pdfrwt beam="1">  1       21 0.22082033E-01 0.11889253E+03</pdfrwt>
<pdfrwt beam="2">  1       21 0.49386908E-01 0.11889253E+03</pdfrwt>
<totfact> 0.77396859E+04</totfact>
</mgrwt>
</event>
<event>
 5    1  0.1624116E+000  0.1177049E+03  0.7546771E-02  0.1246932E+00
         21   -1    0    0  503  502  0.00000000000E+00  0.00000000000E+00  0.28940471190E+03  0.28940471190E+03  0.00000000000E+00 0.  1.
         21   -1    0    0  501  503 -0.00000000000E+00 -0.00000000000E+00 -0.58937999397E+02  0.58937999397E+02  0.00000000000E+00 0.  1.
         24    1    1    2    0    0  0.82812805719E+02 -0.25596808823E+02  0.19112654814E+03  0.22474370018E+03  0.80419002446E+02 0.  1.
          1    1    1    2  501    0 -0.41718398779E+01  0.37415177502E+02  0.12656028594E+02  0.39717437169E+02  0.00000000000E+00 0. -1.
         -2    1    1    2    0  502 -0.78640965841E+02 -0.11818368679E+02  0.26684135774E+02  0.83881573952E+02  0.00000000000E+00 0.  1.
<mgrwt>
<rscale>  2 0.11770486E+03</rscale>
<asrwt>0</asrwt>
<pdfrwt beam="1">  1       21 0.44523801E-01 0.11770486E+03</pdfrwt>
<pdfrwt beam="2">  1       21 0.90673846E-02 0.11770486E+03</pdfrwt>
<totfact> 0.47171178E+05</totfact>
</mgrwt>
</event>
<event>
 5    1  0.1624116E+000  0.6612212E+02  0.7546771E-02  0.1373800E+00
         21   -1    0    0  503  502  0.00000000000E+00  0.00000000000E+00  0.32720329169E+03  0.32720329169E+03  0.00000000000E+00 0. -1.
         21   -1    0    0  501  503 -0.00000000000E+00 -0.00000000000E+00 -0.16386850214E+02  0.16386850214E+02  0.00000000000E+00 0.  1.
         24    1    1    2    0    0  0.23536456991E+02  0.25224128294E+02  0.16314720364E+03  0.18513359356E+03  0.80419002446E+02 0.  0.
          1    1    1    2  501    0 -0.22030535861E+02 -0.27369340510E+01  0.23771598395E+02  0.32525746857E+02  0.00000000000E+00 0. -1.
         -2    1    1    2    0  502 -0.15059211294E+01 -0.22487194243E+02  0.12389763945E+03  0.12593080149E+03  0.00000000000E+00 0.  1.
<mgrwt>
<rscale>  2 0.66122121E+02</rscale>
<asrwt>0</asrwt>
<pdfrwt beam="1">  1       21 0.50338963E-01 0.66122121E+02</pdfrwt>
<pdfrwt beam="2">  1       21 0.25210541E-02 0.66122121E+02</pdfrwt>
<totfact> 0.30466445E+06</totfact>
</mgrwt>
</event>
<event>
 5    1  0.1624116E+000  0.7683616E+02  0.7546771E-02  0.1338278E+00
         21   -1    0    0  501  502  0.00000000000E+00  0.00000000000E+00  0.14233696633E+02  0.14233696633E+02  0.00000000000E+00 0.  1.
         21   -1    0    0  502  503 -0.00000000000E+00 -0.00000000000E+00 -0.65740214331E+03  0.65740214331E+03  0.00000000000E+00 0. -1.
         24    1    1    2    0    0 -0.34626261928E+02 -0.13087383288E+02 -0.26564127284E+03  0.28000492747E+03  0.80419002446E+02 0.  0.
          1    1    1    2  501    0 -0.86718835347E+01  0.19529293724E+02 -0.14154323353E+02  0.25630835862E+02  0.00000000000E+00 0. -1.
         -2    1    1    2    0  503  0.43298145463E+02 -0.64419104364E+01 -0.36337285049E+03  0.36600007661E+03  0.00000000000E+00 0.  1.
<mgrwt>
<rscale>  2 0.76836162E+02</rscale>
<asrwt>0</asrwt>
<pdfrwt beam="1">  1       21 0.21897998E-02 0.76836162E+02</pdfrwt>
<pdfrwt beam="2">  1       21 0.10113878E+00 0.76836162E+02</pdfrwt>
<totfact> 0.85434761E+05</totfact>
</mgrwt>
</event>
<event>
 5    1  0.1624116E+000  0.7923898E+02  0.7546771E-02  0.1331225E+00
         21   -1    0    0  503  502  0.00000000000E+00  0.00000000000E+00  0.18737298676E+02  0.18737298676E+02  0.00000000000E+00 0.  1.
         21   -1    0    0  501  503 -0.00000000000E+00 -0.00000000000E+00 -0.77179438029E+03  0.77179438029E+03  0.00000000000E+00 0. -1.
         24    1    1    2    0    0 -0.33015794928E+02  0.38941030522E+02 -0.69336779618E+03  0.69988039214E+03  0.80419002446E+02 0. -1.
          1    1    1    2  501    0  0.38127911208E+02 -0.18930140203E+02 -0.54863780524E+02  0.69441502249E+02  0.00000000000E+00 0. -1.
         -2    1    1    2    0  502 -0.51121162801E+01 -0.20010890319E+02 -0.48255049155E+01  0.21209784580E+02  0.00000000000E+00 0.  1.
<mgrwt>
<rscale>  2 0.79238979E+02</rscale>
<asrwt>0</asrwt>
<pdfrwt beam="1">  1       21 0.28826617E-02 0.79238979E+02</pdfrwt>
<pdfrwt beam="2">  1       21 0.11873758E+00 0.79238979E+02</pdfrwt>
<totfact> 0.37693175E+05</totfact>
</mgrwt>
</event>
<event>
 5    1  0.1624116E+000  0.8223066E+02  0.7546771E-02  0.1322838E+00
         21   -1    0    0  501  502  0.00000000000E+00  0.00000000000E+00  0.16837608724E+03  0.16837608724E+03  0.00000000000E+00 0.  1.
         21   -1    0    0  502  503 -0.00000000000E+00 -0.00000000000E+00 -0.46782148420E+02  0.46782148420E+02  0.00000000000E+00 0. -1.
         24    1    1    2    0    0 -0.35296998303E+01 -0.41084347496E+02  0.85184812735E+02  0.12419360155E+03  0.80419002446E+02 0.  0.
          1    1    1    2  501    0  0.24156319503E+02  0.46813921247E+02  0.43600077465E+02  0.68381560010E+02  0.00000000000E+00 0. -1.
         -2    1    1    2    0  503 -0.20626619673E+02 -0.57295737517E+01 -0.71909513751E+01  0.22583074108E+02  0.00000000000E+00 0.  1.
<mgrwt>
<rscale>  2 0.82230656E+02</rscale>
<asrwt>0</asrwt>
<pdfrwt beam="1">  1       21 0.25904013E-01 0.82230656E+02</pdfrwt>
<pdfrwt beam="2">  1       21 0.71972537E-02 0.82230656E+02</pdfrwt>
<totfact> 0.19977467E+06</totfact>
</mgrwt>
</event>
<event>
 5    1  0.1624116E+000  0.7709631E+02  0.7546771E-02  0.1337500E+00
         21   -1    0    0  501  502  0.00000000000E+00  0.00000000000E+00  0.34413860673E+02  0.34413860673E+02  0.00000000000E+00 0.  1.
         21   -1    0    0  502  503 -0.00000000000E+00 -0.00000000000E+00 -0.20185260898E+03  0.20185260898E+03  0.00000000000E+00 0. -1.
         24    1    1    2    0    0 -0.32241478645E+01  0.13356003243E+02 -0.92161394372E+02  0.12308418468E+03  0.80419002446E+02 0.  1.
          1    1    1    2  501    0 -0.84502758252E+01 -0.41388339668E+02 -0.13502963507E+02  0.44347850516E+02  0.00000000000E+00 0. -1.
         -2    1    1    2    0  503  0.11674423690E+02  0.28032336424E+02 -0.61774390433E+02  0.68834434459E+02  0.00000000000E+00 0.  1.
<mgrwt>
<rscale>  2 0.77096311E+02</rscale>
<asrwt>0</asrwt>
<pdfrwt beam="1">  1       21 0.52944400E-02 0.77096311E+02</pdfrwt>
<pdfrwt beam="2">  1       21 0.31054248E-01 0.77096311E+02</pdfrwt>
<totfact> 0.23663380E+06</totfact>
</mgrwt>
</event>
<event>
 5    1  0.1624116E+000  0.9523476E+02  0.7546771E-02  0.1290648E+00
         21   -1    0    0  501  502  0.00000000000E+00  0.00000000000E+00  0.10956245770E+02  0.10956245770E+02  0.00000000000E+00 0.  1.
         21   -1    0    0  502  503 -0.00000000000E+00 -0.00000000000E+00 -0.83585564204E+03  0.83585564204E+03  0.00000000000E+00 0. -1.
         24    1    1    2    0    0  0.64037984122E+02  0.38488640293E+01 -0.43745442754E+03  0.44938766037E+03  0.80419002446E+02 0.  0.
          1    1    1    2  501    0 -0.18387899655E+02 -0.29851238528E+02 -0.12807877325E+03  0.13279075063E+03  0.00000000000E+00 0. -1.
         -2    1    1    2    0  503 -0.45650084467E+02  0.26002374498E+02 -0.25936619548E+03  0.26463347681E+03  0.00000000000E+00 0.  1.
<mgrwt>
<rscale>  2 0.95234756E+02</rscale>
<asrwt>0</asrwt>
<pdfrwt beam="1">  1       21 0.16855763E-02 0.95234756E+02</pdfrwt>
<pdfrwt beam="2">  1       21 0.12859317E+00 0.95234756E+02</pdfrwt>
<totfact> 0.73295983E+05</totfact>
</mgrwt>
</event>
<event>
 5    1  0.1624116E+000  0.9234725E+02  0.7546771E-02  0.1297265E+00
         21   -1    0    0  501  502  0.00000000000E+00  0.00000000000E+00  0.31652835985E+02  0.31652835985E+02  0.00000000000E+00 0.  1.
         21   -1    0    0  502  503 -0.00000000000E+00 -0.00000000000E+00 -0.27057031847E+03  0.27057031847E+03  0.00000000000E+00 0. -1.
         24    1    1    2    0    0 -0.34783787140E+01 -0.46700656804E+02 -0.12517408014E+03  0.15597697509E+03  0.80419002446E+02 0.  1.
          1    1    1    2  501    0  0.12287756197E+02 -0.20477137394E+02 -0.24697866101E+02  0.34355300875E+02  0.00000000000E+00 0. -1.
         -2    1    1    2    0  503 -0.88093774835E+01  0.67177794199E+02 -0.89045536248E+02  0.11189087850E+03  0.00000000000E+00 0.  1.
<mgrwt>
<rscale>  2 0.92347247E+02</rscale>
<asrwt>0</asrwt>
<pdfrwt beam="1">  1       21 0.48696670E-02 0.92347247E+02</pdfrwt>
<pdfrwt beam="2">  1       21 0.41626204E-01 0.92347247E+02</pdfrwt>
<totfact> 0.15473402E+06</totfact>
</mgrwt>
</event>
<event>
 5    1  0.1624116E+000  0.6436507E+02  0.7546771E-02  0.1380376E+00
         21   -1    0    0  503  502  0.00000000000E+00  0.00000000000E+00  0.29691438297E+02  0.29691438297E+02  0.00000000000E+00 0. -1.
         21   -1    0    0  501  503 -0.00000000000E+00 -0.00000000000E+00 -0.21161818234E+03  0.21161818234E+03  0.00000000000E+00 0.  1.
         24    1    1    2    0    0 -0.98263180787E+01  0.27534769566E+01 -0.15592405688E+03  0.17573749068E+03  0.80419002446E+02 0.  1.
          1    1    1    2  501    0  0.50185023401E+01  0.21941252620E+02 -0.32551565246E+02  0.39575350058E+02  0.00000000000E+00 0. -1.
         -2    1    1    2    0  502  0.48078157386E+01 -0.24694729577E+02  0.65488780816E+01  0.25996779900E+02  0.00000000000E+00 0.  1.
<mgrwt>
<rscale>  2 0.64365073E+02</rscale>
<asrwt>0</asrwt>
<pdfrwt beam="1">  1       21 0.45679137E-02 0.64365073E+02</pdfrwt>
<pdfrwt beam="2">  1       21 0.32556643E-01 0.64365073E+02</pdfrwt>
<totfact> 0.27322071E+06</totfact>
</mgrwt>
</event>
<event>
 5    1  0.1624116E+000  0.1042279E+03  0.7546771E-02  0.1271648E+00
         21   -1    0    0  503  502  0.00000000000E+00  0.00000000000E+00  0.16941579226E+03  0.16941579226E+03  0.00000000000E+00 0.  1.
         21   -1    0    0  501  503 -0.00000000000E+00 -0.00000000000E+00 -0.24573707437E+03  0.24573707437E+03  0.00000000000E+00 0. -1.
         24    1    1    2    0    0 -0.41336560471E+02 -0.78309070005E+02  0.51473127292E+02  0.13022181255E+03  0.80419002446E+02 0.  0.
          1    1    1    2  501    0  0.30105386213E+02  0.49737168326E+02 -0.19903747207E+03  0.20735485400E+03  0.00000000000E+00 0. -1.
         -2    1    1    2    0  502  0.11231174258E+02  0.28571901678E+02  0.71243062664E+02  0.77576200078E+02  0.00000000000E+00 0.  1.
<mgrwt>
<rscale>  2 0.10422795E+03</rscale>
<asrwt>0</asrwt>
<pdfrwt beam="1">  1       21 0.26063968E-01 0.10422795E+03</pdfrwt>
<pdfrwt beam="2">  1       21 0.37805704E-01 0.10422795E+03</pdfrwt>
<totfact> 0.97823582E+04</totfact>
</mgrwt>
</event>
<event>
 5    1  0.1624116E+000  0.9428204E+02  0.7546771E-02  0.1292801E+00
         21   -1    0    0  503  502  0.00000000000E+00  0.00000000000E+00  0.54731818854E+03  0.54731818854E+03  0.00000000000E+00 0.  1.
         21   -1    0    0  501  503 -0.00000000000E+00 -0.00000000000E+00 -0.22159137822E+02  0.22159137822E+02  0.00000000000E+00 0. -1.
         24    1    1    2    0    0  0.38039822422E+02 -0.52898003629E+02  0.13601424032E+03  0.17091610925E+03  0.80419002446E+02 0. -1.
          1    1    1    2  501    0 -0.49702502253E+02  0.26776588518E+02  0.22720747139E+03  0.23411655106E+03  0.00000000000E+00 0. -1.
         -2    1    1    2    0  502  0.11662679830E+02  0.26121415111E+02  0.16193733901E+03  0.16444466605E+03  0.00000000000E+00 0.  1.
<mgrwt>
<rscale>  2 0.94282040E+02</rscale>
<asrwt>0</asrwt>
<pdfrwt beam="1">  1       21 0.84202788E-01 0.94282040E+02</pdfrwt>
<pdfrwt beam="2">  1       21 0.34090986E-02 0.94282040E+02</pdfrwt>
<totfact> 0.63325201E+05</totfact>
</mgrwt>
</event>
<event>
 5    1  0.1624116E+000  0.7076350E+02  0.7546771E-02  0.1357516E+00
         21   -1    0    0  503  502  0.00000000000E+00  0.00000000000E+00  0.27141315865E+03  0.27141315865E+03  0.00000000000E+00 0. -1.
         21   -1    0    0  501  503 -0.00000000000E+00 -0.00000000000E+00 -0.89683946483E+02  0.89683946483E+02  0.00000000000E+00 0. -1.
         24    1    1    2    0    0 -0.25835373216E+02 -0.36591174661E+02  0.39163406942E+02  0.10003683806E+03  0.80419002446E+02 0.  0.
          1    1    1    2  501    0  0.18860575097E+01  0.20580363703E+02 -0.56375373275E+02  0.60044077935E+02  0.00000000000E+00 0. -1.
         -2    1    1    2    0  502  0.23949315707E+02  0.16010810958E+02  0.19894117850E+03  0.20101618914E+03  0.00000000000E+00 0.  1.
<mgrwt>
<rscale>  2 0.70763502E+02</rscale>
<asrwt>0</asrwt>
<pdfrwt beam="1">  1       21 0.41755870E-01 0.70763502E+02</pdfrwt>
<pdfrwt beam="2">  1       21 0.13797530E-01 0.70763502E+02</pdfrwt>
<totfact> 0.25917557E+05</totfact>
</mgrwt>
</event>
<event>
 5    1  0.1624116E+000  0.6345031E+02  0.7546771E-02  0.1383897E+00
         21   -1    0    0  501  502  0.00000000000E+00  0.00000000000E+00  0.23163584634E+03  0.23163584634E+03  0.00000000000E+00 0.  1.
         21   -1    0    0  502  503 -0.00000000000E+00 -0.00000000000E+00 -0.46176478819E+02  0.46176478819E+02  0.00000000000E+00 0.  1.
         24    1    1    2    0    0  0.98012899654E+01  0.15085026497E+02  0.78943794492E+02  0.11411819291E+03  0.80419002446E+02 0.  0.
          1    1    1    2  501    0 -0.21053272851E+02  0.48482379682E+01  0.12948015016E+03  0.13127016034E+03  0.00000000000E+00 0. -1.
         -2    1    1    2    0  503  0.11251982886E+02 -0.19933264465E+02 -0.22964577139E+02  0.32423971907E+02  0.00000000000E+00 0.  1.
<mgrwt>
<rscale>  2 0.63450315E+02</rscale>
<asrwt>0</asrwt>
<pdfrwt beam="1">  1       21 0.35636283E-01 0.63450315E+02</pdfrwt>
<pdfrwt beam="2">  1       21 0.71040738E-02 0.63450315E+02</pdfrwt>
<totfact> 0.11031928E+06</totfact>
</mgrwt>
</event>
<event>
 5    1  0.1624116E+000  0.6412880E+02  0.7546771E-02  0.1381279E+00
         21   -1    0    0  501  502  0.00000000000E+00  0.00000000000E+00  0.19599870849E+03  0.19599870849E+03  0.00000000000E+00 0. -1.
         21   -1    0    0  502  503 -0.00000000000E+00 -0.00000000000E+00 -0.63723506335E+02  0.63723506335E+02  0.00000000000E+00 0.  1.
         24    1    1    2    0    0  0.96917756801E+01 -0.16309114818E+01  0.13105031713E+03  0.15407138593E+03  0.80419002446E+02 0. -1.
          1    1    1    2  501    0 -0.74987969834E+01 -0.22136388689E+02  0.47860378627E+02  0.53262252137E+02  0.00000000000E+00 0. -1.
         -2    1    1    2    0  503 -0.21929786967E+01  0.23767300171E+02 -0.46635493593E+02  0.52388576766E+02  0.00000000000E+00 0.  1.
<mgrwt>
<rscale>  2 0.64128803E+02</rscale>
<asrwt>0</asrwt>
<pdfrwt beam="1">  1       21 0.30153647E-01 0.64128803E+02</pdfrwt>
<pdfrwt beam="2">  1       21 0.98036165E-02 0.64128803E+02</pdfrwt>
<totfact> 0.87921961E+05</totfact>
</mgrwt>
</event>
<event>
 5    1  0.1624116E+000  0.6788686E+02  0.7546771E-02  0.1367430E+00
         21   -1    0    0  501  502  0.00000000000E+00  0.00000000000E+00  0.19275833858E+02  0.19275833858E+02  0.00000000000E+00 0.  1.
         21   -1    0    0  502  503 -0.00000000000E+00 -0.00000000000E+00 -0.39896028459E+03  0.39896028459E+03  0.00000000000E+00 0. -1.
         24    1    1    2    0    0 -0.78873557875E+01  0.43237572711E+02 -0.15902047118E+03  0.18353861797E+03  0.80419002446E+02 0.  1.
          1    1    1    2  501    0  0.60554897452E+01 -0.22203245650E+02 -0.13958347412E+02  0.26916324710E+02  0.00000000000E+00 0. -1.
         -2    1    1    2    0  503  0.18318660423E+01 -0.21034327061E+02 -0.20670563213E+03  0.20778117577E+03  0.00000000000E+00 0.  1.
<mgrwt>
<rscale>  2 0.67886863E+02</rscale>
<asrwt>0</asrwt>
<pdfrwt beam="1">  1       21 0.29655130E-02 0.67886863E+02</pdfrwt>
<pdfrwt beam="2">  1       21 0.61378504E-01 0.67886863E+02</pdfrwt>
<totfact> 0.15631920E+06</totfact>
</mgrwt>
</event>
<event>
 5    1  0.1624116E+000  0.1421720E+03  0.7546771E-02  0.1210436E+00
         21   -1    0    0  501  502  0.00000000000E+00  0.00000000000E+00  0.58366250703E+03  0.58366250703E+03  0.00000000000E+00 0. -1.
         21   -1    0    0  502  503 -0.00000000000E+00 -0.00000000000E+00 -0.36978413779E+02  0.36978413779E+02  0.00000000000E+00 0.  1.
         24    1    1    2    0    0  0.10085363536E+02 -0.53221113523E+02  0.15140898469E+03  0.17979459970E+03  0.80419002446E+02 0.  1.
          1    1    1    2  501    0  0.80491110524E+02  0.53780856413E+02  0.26541112945E+03  0.28251418907E+03  0.00000000000E+00 0. -1.
         -2    1    1    2    0  503 -0.90576474060E+02 -0.55974289001E+00  0.12986397911E+03  0.15833213204E+03  0.00000000000E+00 0.  1.
<mgrwt>
<rscale>  2 0.14217203E+03</rscale>
<asrwt>0</asrwt>
<pdfrwt beam="1">  1       21 0.89794225E-01 0.14217203E+03</pdfrwt>
<pdfrwt beam="2">  1       21 0.56889872E-02 0.14217203E+03</pdfrwt>
<totfact> 0.23145677E+05</totfact>
</mgrwt>
</event>
<event>
 5    1  0.1624116E+000  0.7875048E+02  0.7546771E-02  0.1332635E+00
         21   -1    0    0  503  502  0.00000000000E+00  0.00000000000E+00  0.35289393572E+02  0.35289393572E+02  0.00000000000E+00 0.  1.
         21   -1    0    0  501  503 -0.00000000000E+00 -0.00000000000E+00 -0.85873355458E+03  0.85873355458E+03  0.00000000000E+00 0. -1.
         24    1    1    2    0    0 -0.28351399609E+02 -0.50354170909E+02 -0.20972966218E+03  0.23193337738E+03  0.80419002446E+02 0. -1.
          1    1    1    2  501    0  0.20373464483E+02  0.27208754150E+02 -0.63113040399E+03  0.63204507846E+03  0.00000000000E+00 0. -1.
         -2    1    1    2    0  502  0.79779351261E+01  0.23145416759E+02  0.17415905168E+02  0.30044492318E+02  0.00000000000E+00 0.  1.
<mgrwt>
<rscale>  2 0.78750478E+02</rscale>
<asrwt>0</asrwt>
<pdfrwt beam="1">  1       21 0.54291371E-02 0.78750478E+02</pdfrwt>
<pdfrwt beam="2">  1       21 0.13211286E+00 0.78750478E+02</pdfrwt>
<totfact> 0.10308170E+05</totfact>
</mgrwt>
</event>
<event>
 5    1  0.1624116E+000  0.8832434E+02  0.7546771E-02  0.1306961E+00
         21   -1    0    0  503  502  0.00000000000E+00  0.00000000000E+00  0.37575802300E+03  0.37575802300E+03  0.00000000000E+00 0.  1.
         21   -1    0    0  501  503 -0.00000000000E+00 -0.00000000000E+00 -0.23610811941E+02  0.23610811941E+02  0.00000000000E+00 0. -1.
         24    1    1    2    0    0  0.71857720586E+01  0.41189995401E+02  0.18678834657E+03  0.20761828775E+03  0.80419002446E+02 0. -1.
          1    1    1    2  501    0 -0.32020534309E+02  0.60986667016E+01  0.23542509395E+02  0.40208930620E+02  0.00000000000E+00 0. -1.
         -2    1    1    2    0  502  0.24834762251E+02 -0.47288662103E+02  0.14181635510E+03  0.15154161657E+03  0.00000000000E+00 0.  1.
<mgrwt>
<rscale>  2 0.88324338E+02</rscale>
<asrwt>0</asrwt>
<pdfrwt beam="1">  1       21 0.57808922E-01 0.88324338E+02</pdfrwt>
<pdfrwt beam="2">  1       21 0.36324329E-02 0.88324338E+02</pdfrwt>
<totfact> 0.12841768E+06</totfact>
</mgrwt>
</event>
<event>
 5    1  0.1624116E+000  0.8632779E+02  0.7546771E-02  0.1311996E+00
         21   -1    0    0  503  502  0.00000000000E+00  0.00000000000E+00  0.93173363356E+03  0.93173363356E+03  0.00000000000E+00 0. -1.
         21   -1    0    0  501  503 -0.00000000000E+00 -0.00000000000E+00 -0.11339290528E+02  0.11339290528E+02  0.00000000000E+00 0. -1.
         24    1    1    2    0    0 -0.37353382073E+02  0.23534695895E+02  0.53224130069E+03  0.54008996952E+03  0.80419002446E+02 0. -1.
          1    1    1    2  501    0  0.57357035042E+02 -0.18786899667E+02  0.12275956515E+03  0.13679432701E+03  0.00000000000E+00 0. -1.
         -2    1    1    2    0  502 -0.20003652969E+02 -0.47477962273E+01  0.26539347720E+03  0.26618862755E+03  0.00000000000E+00 0.  1.
<mgrwt>
<rscale>  2 0.86327793E+02</rscale>
<asrwt>0</asrwt>
<pdfrwt beam="1">  1       21 0.14334358E+00 0.86327793E+02</pdfrwt>
<pdfrwt beam="2">  1       21 0.17445070E-02 0.86327793E+02</pdfrwt>
<totfact> 0.53077739E+05</totfact>
</mgrwt>
</event>
<event>
 5    1  0.1624116E+000  0.1329492E+03  0.7546771E-02  0.1223144E+00
         21   -1    0    0  501  502  0.00000000000E+00  0.00000000000E+00  0.41735336832E+03  0.41735336832E+03  0.00000000000E+00 0.  1.
         21   -1    0    0  502  503 -0.00000000000E+00 -0.00000000000E+00 -0.86371716429E+02  0.86371716429E+02  0.00000000000E+00 0.  1.
         24    1    1    2    0    0 -0.10698363346E+02  0.11074870677E+03  0.29686389708E+03  0.32707051284E+03  0.80419002446E+02 0.  1.
          1    1    1    2  501    0  0.34387518335E+02 -0.34260407486E+02  0.72980316203E+02  0.87649321112E+02  0.00000000000E+00 0. -1.
         -2    1    1    2    0  503 -0.23689154988E+02 -0.76488299279E+02 -0.38862561391E+02  0.89005250792E+02  0.00000000000E+00 0.  1.
<mgrwt>
<rscale>  2 0.13294919E+03</rscale>
<asrwt>0</asrwt>
<pdfrwt beam="1">  1       21 0.64208209E-01 0.13294919E+03</pdfrwt>
<pdfrwt beam="2">  1       21 0.13287957E-01 0.13294919E+03</pdfrwt>
<totfact> 0.11186377E+05</totfact>
</mgrwt>
</event>
<event>
 5    1  0.2019808E+000  0.6968777E+02  0.7546771E-02  0.1361158E+00
         21   -1    0    0  503  502  0.00000000000E+00  0.00000000000E+00  0.10172652688E+04  0.10172652688E+04  0.00000000000E+00 0. -1.
         21   -1    0    0  501  503 -0.00000000000E+00 -0.00000000000E+00 -0.34120807109E+02  0.34120807109E+02  0.00000000000E+00 0. -1.
         24    1    1    2    0    0 -0.15848983995E+02  0.23502084879E+02  0.92596025769E+03  0.92987803129E+03  0.80419002446E+02 0. -1.
          1    1    1    2  501    0  0.31813197376E+02 -0.10448186954E+02 -0.21747200273E+02  0.39927244554E+02  0.00000000000E+00 0. -1.
         -2    1    1    2    0  502 -0.15964213382E+02 -0.13053897924E+02  0.78931404295E+02  0.81580800093E+02  0.00000000000E+00 0.  1.
<mgrwt>
<rscale>  2 0.69687772E+02</rscale>
<asrwt>0</asrwt>
<pdfrwt beam="1">  1       21 0.15650233E+00 0.69687772E+02</pdfrwt>
<pdfrwt beam="2">  1       21 0.52493557E-02 0.69687772E+02</pdfrwt>
<totfact> 0.71956893E+04</totfact>
</mgrwt>
</event>
<event>
 5    1  0.1624116E+000  0.8569593E+02  0.7546771E-02  0.1313623E+00
         21   -1    0    0  501  502  0.00000000000E+00  0.00000000000E+00  0.43638671465E+02  0.43638671465E+02  0.00000000000E+00 0. -1.
         21   -1    0    0  502  503 -0.00000000000E+00 -0.00000000000E+00 -0.21190289082E+03  0.21190289082E+03  0.00000000000E+00 0.  1.
         24    1    1    2    0    0  0.12976656078E+02  0.40418846830E+02 -0.42763927242E+02  0.10048903527E+03  0.80419002446E+02 0.  0.
          1    1    1    2  501    0 -0.30440353440E+02  0.58535015213E+01 -0.15962339621E+02  0.34866529564E+02  0.00000000000E+00 0. -1.
         -2    1    1    2    0  503  0.17463697362E+02 -0.46272348351E+02 -0.10953795250E+03  0.12018599746E+03  0.00000000000E+00 0.  1.
<mgrwt>
<rscale>  2 0.85695934E+02</rscale>
<asrwt>0</asrwt>
<pdfrwt beam="1">  1       21 0.67136418E-02 0.85695934E+02</pdfrwt>
<pdfrwt beam="2">  1       21 0.32600444E-01 0.85695934E+02</pdfrwt>
<totfact> 0.14543578E+06</totfact>
</mgrwt>
</event>
<event>
 5    1  0.1624116E+000  0.6578223E+02  0.7546771E-02  0.1375053E+00
         21   -1    0    0  501  502  0.00000000000E+00  0.00000000000E+00  0.16062423591E+03  0.16062423591E+03  0.00000000000E+00 0. -1.
         21   -1    0    0  502  503 -0.00000000000E+00 -0.00000000000E+00 -0.80670360145E+02  0.80670360145E+02  0.00000000000E+00 0. -1.
         24    1    1    2    0    0 -0.35068878571E+02  0.20805455499E+02 -0.48429790565E+02  0.10234917582E+03  0.80419002446E+02 0. -1.
          1    1    1    2  501    0  0.18762106575E+02 -0.69759485175E+01  0.10644572689E+03  0.10831146419E+03  0.00000000000E+00 0. -1.
         -2    1    1    2    0  503  0.16306771996E+02 -0.13829506982E+02  0.21937939441E+02  0.30633956049E+02  0.00000000000E+00 0.  1.
<mgrwt>
<rscale>  2 0.65782228E+02</rscale>
<asrwt>0</asrwt>
<pdfrwt beam="1">  1       21 0.24711421E-01 0.65782228E+02</pdfrwt>
<pdfrwt beam="2">  1       21 0.12410825E-01 0.65782228E+02</pdfrwt>
<totfact> 0.84941585E+05</totfact>
</mgrwt>
</event>
<event>
 5    1  0.2952089E+000  0.1554090E+03  0.7546771E-02  0.1193980E+00
         21   -1    0    0  501  502  0.00000000000E+00  0.00000000000E+00  0.27891971638E+03  0.27891971638E+03  0.00000000000E+00 0. -1.
         21   -1    0    0  502  503 -0.00000000000E+00 -0.00000000000E+00 -0.13203695549E+03  0.13203695549E+03  0.00000000000E+00 0.  1.
         24    1    1    2    0    0  0.29248805318E+02  0.95564940409E+01  0.68438113505E+02  0.10999004739E+03  0.80419002446E+02 0. -1.
          1    1    1    2  501    0 -0.12232307821E+03 -0.36791062155E+02  0.13729713781E+03  0.18752872251E+03  0.00000000000E+00 0. -1.
         -2    1    1    2    0  503  0.93074272887E+02  0.27234568115E+02 -0.58852490424E+02  0.11343790197E+03  0.00000000000E+00 0.  1.
<mgrwt>
<rscale>  2 0.15540897E+03</rscale>
<asrwt>0</asrwt>
<pdfrwt beam="1">  1       21 0.42910726E-01 0.15540897E+03</pdfrwt>
<pdfrwt beam="2">  1       21 0.20313378E-01 0.15540897E+03</pdfrwt>
<totfact> 0.11871142E+05</totfact>
</mgrwt>
</event>
<event>
 5    1  0.1624116E+000  0.7280414E+02  0.7546771E-02  0.1350809E+00
         21   -1    0    0  503  502  0.00000000000E+00  0.00000000000E+00  0.18865946325E+03  0.18865946325E+03  0.00000000000E+00 0.  1.
         21   -1    0    0  501  503 -0.00000000000E+00 -0.00000000000E+00 -0.61603634449E+02  0.61603634449E+02  0.00000000000E+00 0.  1.
         24    1    1    2    0    0  0.93133302344E+01 -0.48401155003E+02 -0.63378591511E+00  0.94324056129E+02  0.80419002446E+02 0.  1.
          1    1    1    2  501    0 -0.11250949218E+02  0.21062607177E+02 -0.14499643450E+01  0.23923203715E+02  0.00000000000E+00 0. -1.
         -2    1    1    2    0  502  0.19376189837E+01  0.27338547826E+02  0.12913957906E+03  0.13201583785E+03  0.00000000000E+00 0.  1.
<mgrwt>
<rscale>  2 0.72804138E+02</rscale>
<asrwt>0</asrwt>
<pdfrwt beam="1">  1       21 0.29024533E-01 0.72804138E+02</pdfrwt>
<pdfrwt beam="2">  1       21 0.94774823E-02 0.72804138E+02</pdfrwt>
<totfact> 0.10048767E+06</totfact>
</mgrwt>
</event>
<event>
 5    1  0.1624116E+000  0.7264993E+02  0.7546771E-02  0.1351307E+00
         21   -1    0    0  501  502  0.00000000000E+00  0.00000000000E+00  0.17873700335E+03  0.17873700335E+03  0.00000000000E+00 0. -1.
         21   -1    0    0  502  503 -0.00000000000E+00 -0.00000000000E+00 -0.14341901460E+03  0.14341901460E+03  0.00000000000E+00 0.  1.
         24    1    1    2    0    0  0.44314907119E+02 -0.30376670945E+01  0.26181195312E+02  0.95528578743E+02  0.80419002446E+02 0. -1.
          1    1    1    2  501    0 -0.21563994732E+02 -0.13375647394E+02  0.11466230995E+03  0.11743661752E+03  0.00000000000E+00 0. -1.
         -2    1    1    2    0  503 -0.22750912387E+02  0.16413314489E+02 -0.10552551651E+03  0.10919082169E+03  0.00000000000E+00 0.  1.
<mgrwt>
<rscale>  2 0.72649925E+02</rscale>
<asrwt>0</asrwt>
<pdfrwt beam="1">  1       21 0.27498001E-01 0.72649925E+02</pdfrwt>
<pdfrwt beam="2">  1       21 0.22064464E-01 0.72649925E+02</pdfrwt>
<totfact> 0.24906235E+05</totfact>
</mgrwt>
</event>
<event>
 5    1  0.1624116E+000  0.6533296E+02  0.7546771E-02  0.1376723E+00
         21   -1    0    0  501  502  0.00000000000E+00  0.00000000000E+00  0.43503507194E+02  0.43503507194E+02  0.00000000000E+00 0.  1.
         21   -1    0    0  502  503 -0.00000000000E+00 -0.00000000000E+00 -0.42082209047E+03  0.42082209047E+03  0.00000000000E+00 0.  1.
         24    1    1    2    0    0  0.78011933876E+00 -0.29970950181E+02 -0.13107172429E+03  0.15667124594E+03  0.80419002446E+02 0.  1.
          1    1    1    2  501    0  0.16224854233E+02  0.16554725415E+02  0.25836229834E+02  0.34710453764E+02  0.00000000000E+00 0. -1.
         -2    1    1    2    0  503 -0.17004973572E+02  0.13416224766E+02 -0.27208308882E+03  0.27294389796E+03  0.00000000000E+00 0.  1.
<mgrwt>
<rscale>  2 0.65332960E+02</rscale>
<asrwt>0</asrwt>
<pdfrwt beam="1">  1       21 0.66928474E-02 0.65332960E+02</pdfrwt>
<pdfrwt beam="2">  1       21 0.64741859E-01 0.65332960E+02</pdfrwt>
<totfact> 0.36702260E+05</totfact>
</mgrwt>
</event>
<event>
 5    1  0.1624116E+000  0.2829360E+03  0.7546771E-02  0.1094096E+00
         21   -1    0    0  503  502  0.00000000000E+00  0.00000000000E+00  0.45662924899E+03  0.45662924899E+03  0.00000000000E+00 0.  1.
         21   -1    0    0  501  503 -0.00000000000E+00 -0.00000000000E+00 -0.39896646657E+03  0.39896646657E+03  0.00000000000E+00 0. -1.
         24    1    1    2    0    0  0.90846555546E+02  0.21173861597E+03  0.26338768151E+03  0.35906353877E+03  0.80419002446E+02 0.  1.
          1    1    1    2  501    0 -0.16445700237E+03 -0.17284451707E+03 -0.29170746510E+03  0.37684821600E+03  0.00000000000E+00 0. -1.
         -2    1    1    2    0  502  0.73610446820E+02 -0.38894098903E+02  0.85982566019E+02  0.11968396079E+03  0.00000000000E+00 0.  1.
<mgrwt>
<rscale>  2 0.28293601E+03</rscale>
<asrwt>0</asrwt>
<pdfrwt beam="1">  1       21 0.70250654E-01 0.28293601E+03</pdfrwt>
<pdfrwt beam="2">  1       21 0.61379456E-01 0.28293601E+03</pdfrwt>
<totfact> 0.42690169E+03</totfact>
</mgrwt>
</event>
<event>
 5    1  0.1624116E+000  0.6654069E+02  0.7546771E-02  0.1372268E+00
         21   -1    0    0  501  502  0.00000000000E+00  0.00000000000E+00  0.51886093653E+02  0.51886093653E+02  0.00000000000E+00 0. -1.
         21   -1    0    0  502  503 -0.00000000000E+00 -0.00000000000E+00 -0.18879628514E+03  0.18879628514E+03  0.00000000000E+00 0.  1.
         24    1    1    2    0    0 -0.12497959192E+01 -0.29178891169E+02 -0.44491421497E+02  0.96434808139E+02  0.80419002446E+02 0. -1.
          1    1    1    2  501    0  0.19196831424E+02  0.18384188276E+02  0.17843546337E+02  0.32013885443E+02  0.00000000000E+00 0. -1.
         -2    1    1    2    0  503 -0.17947035505E+02  0.10794702893E+02 -0.11026231633E+03  0.11223368521E+03  0.00000000000E+00 0.  1.
<mgrwt>
<rscale>  2 0.66540693E+02</rscale>
<asrwt>0</asrwt>
<pdfrwt beam="1">  1       21 0.79824758E-02 0.66540693E+02</pdfrwt>
<pdfrwt beam="2">  1       21 0.29045583E-01 0.66540693E+02</pdfrwt>
<totfact> 0.13405577E+06</totfact>
</mgrwt>
</event>
<event>
 5    1  0.1624116E+000  0.1452276E+03  0.7546771E-02  0.1206463E+00
         21   -1    0    0  501  502  0.00000000000E+00  0.00000000000E+00  0.72415410415E+02  0.72415410415E+02  0.00000000000E+00 0. -1.
         21   -1    0    0  502  503 -0.00000000000E+00 -0.00000000000E+00 -0.43875228273E+03  0.43875228273E+03  0.00000000000E+00 0. -1.
         24    1    1    2    0    0  0.57291794503E+02 -0.10091373322E+03 -0.15334184329E+03  0.20843912331E+03  0.80419002446E+02 0. -1.
          1    1    1    2  501    0 -0.39168211434E+02  0.11801933459E+03 -0.43997378869E+02  0.13190330349E+03  0.00000000000E+00 0. -1.
         -2    1    1    2    0  503 -0.18123583069E+02 -0.17105601368E+02 -0.16899765015E+03  0.17082526634E+03  0.00000000000E+00 0.  1.
<mgrwt>
<rscale>  2 0.14522757E+03</rscale>
<asrwt>0</asrwt>
<pdfrwt beam="1">  1       21 0.11140833E-01 0.14522757E+03</pdfrwt>
<pdfrwt beam="2">  1       21 0.67500350E-01 0.14522757E+03</pdfrwt>
<totfact> 0.13671602E+05</totfact>
</mgrwt>
</event>
<event>
 5    1  0.1624116E+000  0.6812546E+02  0.7546771E-02  0.1366586E+00
         21   -1    0    0  503  502  0.00000000000E+00  0.00000000000E+00  0.17347513953E+03  0.17347513953E+03  0.00000000000E+00 0. -1.
         21   -1    0    0  501  503 -0.00000000000E+00 -0.00000000000E+00 -0.62177328588E+02  0.62177328588E+02  0.00000000000E+00 0.  1.
         24    1    1    2    0    0 -0.36489206713E+01  0.10992009710E+02  0.69257258572E+01  0.81543365963E+02  0.80419002446E+02 0.  1.
          1    1    1    2  501    0  0.11669557165E+02 -0.31173065408E+02 -0.12260535024E+02  0.35471950755E+02  0.00000000000E+00 0. -1.
         -2    1    1    2    0  502 -0.80206364936E+01  0.20181055697E+02  0.11663262011E+03  0.11863715140E+03  0.00000000000E+00 0.  1.
<mgrwt>
<rscale>  2 0.68125458E+02</rscale>
<asrwt>0</asrwt>
<pdfrwt beam="1">  1       21 0.26688483E-01 0.68125458E+02</pdfrwt>
<pdfrwt beam="2">  1       21 0.95657429E-02 0.68125458E+02</pdfrwt>
<totfact> 0.11555735E+06</totfact>
</mgrwt>
</event>
<event>
 5    1  0.1624116E+000  0.9059579E+02  0.7546771E-02  0.1301415E+00
         21   -1    0    0  501  502  0.00000000000E+00  0.00000000000E+00  0.38620425174E+02  0.38620425174E+02  0.00000000000E+00 0.  1.
         21   -1    0    0  502  503 -0.00000000000E+00 -0.00000000000E+00 -0.38307898946E+03  0.38307898946E+03  0.00000000000E+00 0.  1.
         24    1    1    2    0    0 -0.33195242453E+02 -0.53496445108E+02 -0.12303697462E+03  0.15990342972E+03  0.80419002446E+02 0.  1.
          1    1    1    2  501    0  0.42301752883E+02  0.24986086493E+02 -0.12437634722E+02  0.50679755058E+02  0.00000000000E+00 0. -1.
         -2    1    1    2    0  503 -0.91065104305E+01  0.28510358615E+02 -0.20898395494E+03  0.21111622985E+03  0.00000000000E+00 0.  1.
<mgrwt>
<rscale>  2 0.90595787E+02</rscale>
<asrwt>0</asrwt>
<pdfrwt beam="1">  1       21 0.59416037E-02 0.90595787E+02</pdfrwt>
<pdfrwt beam="2">  1       21 0.58935231E-01 0.90595787E+02</pdfrwt>
<totfact> 0.54562029E+05</totfact>
</mgrwt>
</event>
<event>
 5    1  0.1624116E+000  0.8813266E+02  0.7546771E-02  0.1307438E+00
         21   -1    0    0  503  502  0.00000000000E+00  0.00000000000E+00  0.12952419441E+02  0.12952419441E+02  0.00000000000E+00 0.  1.
         21   -1    0    0  501  503 -0.00000000000E+00 -0.00000000000E+00 -0.12070979649E+04  0.12070979649E+04  0.00000000000E+00 0.  1.
         24    1    1    2    0    0  0.35353034943E+02  0.35156836520E+02 -0.10142055417E+04  0.10186098061E+04  0.80419002446E+02 0.  1.
          1    1    1    2  501    0 -0.21884427818E+02  0.17041348089E+02 -0.10823099781E+03  0.11172862039E+03  0.00000000000E+00 0. -1.
         -2    1    1    2    0  502 -0.13468607126E+02 -0.52198184609E+02 -0.71709005916E+02  0.89711957864E+02  0.00000000000E+00 0.  1.
<mgrwt>
<rscale>  2 0.88132660E+02</rscale>
<asrwt>0</asrwt>
<pdfrwt beam="1">  1       21 0.19926792E-02 0.88132660E+02</pdfrwt>
<pdfrwt beam="2">  1       21 0.18570745E+00 0.88132660E+02</pdfrwt>
<totfact> 0.21767490E+05</totfact>
</mgrwt>
</event>
<event>
 5    1  0.1624116E+000  0.7521240E+02  0.7546771E-02  0.1343215E+00
         21   -1    0    0  503  502  0.00000000000E+00  0.00000000000E+00  0.72802534988E+03  0.72802534988E+03  0.00000000000E+00 0.  1.
         21   -1    0    0  501  503 -0.00000000000E+00 -0.00000000000E+00 -0.10141314921E+02  0.10141314921E+02  0.00000000000E+00 0. -1.
         24    1    1    2    0    0  0.80264916208E+01 -0.76500681321E+01  0.31866077412E+03  0.32883864284E+03  0.80419002446E+02 0. -1.
          1    1    1    2  501    0 -0.22851443551E+02  0.32844864003E+02  0.87238594519E+02  0.95976798954E+02  0.00000000000E+00 0. -1.
         -2    1    1    2    0  502  0.14824951931E+02 -0.25194795871E+02  0.31198466632E+03  0.31335122301E+03  0.00000000000E+00 0.  1.
<mgrwt>
<rscale>  2 0.75212400E+02</rscale>
<asrwt>0</asrwt>
<pdfrwt beam="1">  1       21 0.11200386E+00 0.75212400E+02</pdfrwt>
<pdfrwt beam="2">  1       21 0.15602029E-02 0.75212400E+02</pdfrwt>
<totfact> 0.11535870E+06</totfact>
</mgrwt>
</event>
<event>
 5    1  0.1624116E+000  0.8712261E+02  0.7546771E-02  0.1309973E+00
         21   -1    0    0  501  502  0.00000000000E+00  0.00000000000E+00  0.11385720882E+03  0.11385720882E+03  0.00000000000E+00 0.  1.
         21   -1    0    0  502  503 -0.00000000000E+00 -0.00000000000E+00 -0.73666461344E+02  0.73666461344E+02  0.00000000000E+00 0.  1.
         24    1    1    2    0    0 -0.63052803593E+02  0.63391485305E+01  0.51407177931E+02  0.11456768629E+03  0.80419002446E+02 0.  1.
          1    1    1    2  501    0  0.23201164138E+02 -0.19059415643E+02 -0.18191701906E+01  0.30080969436E+02  0.00000000000E+00 0. -1.
         -2    1    1    2    0  503  0.39851639456E+02  0.12720267113E+02 -0.93972602623E+01  0.42875014439E+02  0.00000000000E+00 0.  1.
<mgrwt>
<rscale>  2 0.87122607E+02</rscale>
<asrwt>0</asrwt>
<pdfrwt beam="1">  1       21 0.17516494E-01 0.87122607E+02</pdfrwt>
<pdfrwt beam="2">  1       21 0.11333302E-01 0.87122607E+02</pdfrwt>
<totfact> 0.18842322E+06</totfact>
</mgrwt>
</event>
<event>
 5    1  0.1624116E+000  0.1046292E+03  0.7546771E-02  0.1270852E+00
         21   -1    0    0  503  502  0.00000000000E+00  0.00000000000E+00  0.43294520479E+03  0.43294520479E+03  0.00000000000E+00 0.  1.
         21   -1    0    0  501  503 -0.00000000000E+00 -0.00000000000E+00 -0.14102476768E+03  0.14102476768E+03  0.00000000000E+00 0.  1.
         24    1    1    2    0    0  0.70350446844E+02 -0.12889898518E+02  0.40522470497E+03  0.41927271832E+03  0.80419002446E+02 0.  1.
          1    1    1    2  501    0 -0.19164676214E+02 -0.29498525879E+02 -0.59792119275E+02  0.69372511637E+02  0.00000000000E+00 0. -1.
         -2    1    1    2    0  502 -0.51185770630E+02  0.42388424397E+02 -0.53512148586E+02  0.85324742509E+02  0.00000000000E+00 0.  1.
<mgrwt>
<rscale>  2 0.10462918E+03</rscale>
<asrwt>0</asrwt>
<pdfrwt beam="1">  1       21 0.66606954E-01 0.10462918E+03</pdfrwt>
<pdfrwt beam="2">  1       21 0.21696118E-01 0.10462918E+03</pdfrwt>
<totfact> 0.43039463E+04</totfact>
</mgrwt>
</event>
<event>
 5    1  0.1624116E+000  0.1031873E+03  0.7546771E-02  0.1273733E+00
         21   -1    0    0  503  502  0.00000000000E+00  0.00000000000E+00  0.29081082964E+03  0.29081082964E+03  0.00000000000E+00 0.  1.
         21   -1    0    0  501  503 -0.00000000000E+00 -0.00000000000E+00 -0.15447866215E+03  0.15447866215E+03  0.00000000000E+00 0.  1.
         24    1    1    2    0    0  0.35487052514E+02 -0.79950250416E+02  0.84673705598E+02  0.14590485191E+03  0.80419002446E+02 0. -1.
          1    1    1    2  501    0 -0.21509693537E+02  0.52873545504E+02 -0.11583832796E+03  0.12913867335E+03  0.00000000000E+00 0. -1.
         -2    1    1    2    0  502 -0.13977358977E+02  0.27076704912E+02  0.16749678984E+03  0.17024596653E+03  0.00000000000E+00 0.  1.
<mgrwt>
<rscale>  2 0.10318727E+03</rscale>
<asrwt>0</asrwt>
<pdfrwt beam="1">  1       21 0.44740127E-01 0.10318727E+03</pdfrwt>
<pdfrwt beam="2">  1       21 0.23765948E-01 0.10318727E+03</pdfrwt>
<totfact> 0.83186992E+04</totfact>
</mgrwt>
</event>
<event>
 5    1  0.1624116E+000  0.7483235E+02  0.7546771E-02  0.1344391E+00
         21   -1    0    0  503  502  0.00000000000E+00  0.00000000000E+00  0.24405104888E+02  0.24405104888E+02  0.00000000000E+00 0. -1.
         21   -1    0    0  501  503 -0.00000000000E+00 -0.00000000000E+00 -0.37608919664E+03  0.37608919664E+03  0.00000000000E+00 0. -1.
         24    1    1    2    0    0 -0.12467933741E+02 -0.24740093753E+02 -0.92452414397E+02  0.12562717259E+03  0.80419002446E+02 0. -1.
          1    1    1    2  501    0  0.46598053501E+01  0.43780731652E+02 -0.24707105777E+03  0.25096329181E+03  0.00000000000E+00 0. -1.
         -2    1    1    2    0  502  0.78081283910E+01 -0.19040637899E+02 -0.12160619581E+02  0.23903837122E+02  0.00000000000E+00 0.  1.
<mgrwt>
<rscale>  2 0.74832351E+02</rscale>
<asrwt>0</asrwt>
<pdfrwt beam="1">  1       21 0.37546316E-02 0.74832351E+02</pdfrwt>
<pdfrwt beam="2">  1       21 0.57859875E-01 0.74832351E+02</pdfrwt>
<totfact> 0.12093832E+06</totfact>
</mgrwt>
</event>
<event>
 5    1  0.1624116E+000  0.6537576E+02  0.7546771E-02  0.1376564E+00
         21   -1    0    0  503  502  0.00000000000E+00  0.00000000000E+00  0.88873881901E+02  0.88873881901E+02  0.00000000000E+00 0.  1.
         21   -1    0    0  501  503 -0.00000000000E+00 -0.00000000000E+00 -0.12551140758E+03  0.12551140758E+03  0.00000000000E+00 0.  1.
         24    1    1    2    0    0  0.24520137084E+02  0.23593411776E+02 -0.89390601488E+02  0.12496312172E+03  0.80419002446E+02 0.  1.
          1    1    1    2  501    0 -0.20838408851E+02 -0.13483219329E+01 -0.96989371153E+01  0.23024479074E+02  0.00000000000E+00 0. -1.
         -2    1    1    2    0  502 -0.36817282334E+01 -0.22245089844E+02  0.62452012922E+02  0.66397688687E+02  0.00000000000E+00 0.  1.
<mgrwt>
<rscale>  2 0.65375762E+02</rscale>
<asrwt>0</asrwt>
<pdfrwt beam="1">  1       21 0.13672905E-01 0.65375762E+02</pdfrwt>
<pdfrwt beam="2">  1       21 0.19309447E-01 0.65375762E+02</pdfrwt>
<totfact> 0.11255810E+06</totfact>
</mgrwt>
</event>
<event>
 5    1  0.1624116E+000  0.8187091E+02  0.7546771E-02  0.1323824E+00
         21   -1    0    0  501  502  0.00000000000E+00  0.00000000000E+00  0.65338808363E+01  0.65338808363E+01  0.00000000000E+00 0.  1.
         21   -1    0    0  502  503 -0.00000000000E+00 -0.00000000000E+00 -0.13825960993E+04  0.13825960993E+04  0.00000000000E+00 0.  1.
         24    1    1    2    0    0  0.51402411088E+02  0.27069188175E+02 -0.83441479743E+03  0.84029174632E+03  0.80419002446E+02 0.  1.
          1    1    1    2  501    0 -0.22452746327E+02 -0.27600396901E+02 -0.98205702077E+02  0.10445222663E+03  0.00000000000E+00 0. -1.
         -2    1    1    2    0  503 -0.28949664760E+02  0.53120872566E+00 -0.44344171899E+03  0.44438600722E+03  0.00000000000E+00 0.  1.
<mgrwt>
<rscale>  2 0.81870910E+02</rscale>
<asrwt>0</asrwt>
<pdfrwt beam="1">  1       21 0.10052129E-02 0.81870910E+02</pdfrwt>
<pdfrwt beam="2">  1       21 0.21270700E+00 0.81870910E+02</pdfrwt>
<totfact> 0.43891900E+05</totfact>
</mgrwt>
</event>
<event>
 5    1  0.1624116E+000  0.7412275E+02  0.7546771E-02  0.1346609E+00
         21   -1    0    0  501  502  0.00000000000E+00  0.00000000000E+00  0.48663336395E+02  0.48663336395E+02  0.00000000000E+00 0. -1.
         21   -1    0    0  502  503 -0.00000000000E+00 -0.00000000000E+00 -0.39747260988E+03  0.39747260988E+03  0.00000000000E+00 0.  1.
         24    1    1    2    0    0 -0.15636717390E+02  0.14969012743E+02 -0.25614150560E+03  0.26934042608E+03  0.80419002446E+02 0.  1.
          1    1    1    2  501    0  0.55298726210E+01  0.24039599740E+02  0.35056449576E+02  0.42865329857E+02  0.00000000000E+00 0. -1.
         -2    1    1    2    0  503  0.10106844769E+02 -0.39008612483E+02 -0.12772421746E+03  0.13393019034E+03  0.00000000000E+00 0.  1.
<mgrwt>
<rscale>  2 0.74122746E+02</rscale>
<asrwt>0</asrwt>
<pdfrwt beam="1">  1       21 0.74866676E-02 0.74122746E+02</pdfrwt>
<pdfrwt beam="2">  1       21 0.61149629E-01 0.74122746E+02</pdfrwt>
<totfact> 0.34239023E+05</totfact>
</mgrwt>
</event>
<event>
 5    1  0.1624116E+000  0.8419748E+02  0.7546771E-02  0.1317545E+00
         21   -1    0    0  501  502  0.00000000000E+00  0.00000000000E+00  0.19699706414E+02  0.19699706414E+02  0.00000000000E+00 0.  1.
         21   -1    0    0  502  503 -0.00000000000E+00 -0.00000000000E+00 -0.41206953144E+03  0.41206953144E+03  0.00000000000E+00 0. -1.
         24    1    1    2    0    0  0.21600156870E+02  0.13668741812E+02 -0.13832382490E+03  0.16203116296E+03  0.80419002446E+02 0.  1.
          1    1    1    2  501    0 -0.30963277564E+02  0.27730919030E+02 -0.75186755697E+02  0.85911446618E+02  0.00000000000E+00 0. -1.
         -2    1    1    2    0  503  0.93631206939E+01 -0.41399660843E+02 -0.17885924443E+03  0.18382662828E+03  0.00000000000E+00 0.  1.
<mgrwt>
<rscale>  2 0.84197480E+02</rscale>
<asrwt>0</asrwt>
<pdfrwt beam="1">  1       21 0.30307244E-02 0.84197480E+02</pdfrwt>
<pdfrwt beam="2">  1       21 0.63395306E-01 0.84197480E+02</pdfrwt>
<totfact> 0.14195698E+06</totfact>
</mgrwt>
</event>
<event>
 5    1  0.1624116E+000  0.7286461E+02  0.7546771E-02  0.1350614E+00
         21   -1    0    0  503  502  0.00000000000E+00  0.00000000000E+00  0.13699888951E+02  0.13699888951E+02  0.00000000000E+00 0. -1.
         21   -1    0    0  501  503 -0.00000000000E+00 -0.00000000000E+00 -0.75198857532E+03  0.75198857532E+03  0.00000000000E+00 0.  1.
         24    1    1    2    0    0 -0.13385377799E+02 -0.21531638545E+02 -0.48875743810E+03  0.49597764975E+03  0.80419002446E+02 0. -1.
          1    1    1    2  501    0 -0.21291915370E+02  0.14617117633E+01 -0.21714704022E+03  0.21819330727E+03  0.00000000000E+00 0. -1.
         -2    1    1    2    0  502  0.34677293169E+02  0.20069926782E+02 -0.32384208050E+02  0.51517507253E+02  0.00000000000E+00 0.  1.
<mgrwt>
<rscale>  2 0.72864612E+02</rscale>
<asrwt>0</asrwt>
<pdfrwt beam="1">  1       21 0.21076751E-02 0.72864612E+02</pdfrwt>
<pdfrwt beam="2">  1       21 0.11569055E+00 0.72864612E+02</pdfrwt>
<totfact> 0.66323517E+05</totfact>
</mgrwt>
</event>
<event>
 5    1  0.1624116E+000  0.6774104E+02  0.7546771E-02  0.1367948E+00
         21   -1    0    0  503  502  0.00000000000E+00  0.00000000000E+00  0.30762582080E+03  0.30762582080E+03  0.00000000000E+00 0.  1.
         21   -1    0    0  501  503 -0.00000000000E+00 -0.00000000000E+00 -0.19072700749E+02  0.19072700749E+02  0.00000000000E+00 0. -1.
         24    1    1    2    0    0  0.85784967847E+01  0.17204844735E+01  0.16386757556E+03  0.18274667972E+03  0.80419002446E+02 0.  1.
          1    1    1    2  501    0  0.88844638299E+01  0.22808800191E+02  0.11902285483E+02  0.27218366289E+02  0.00000000000E+00 0. -1.
         -2    1    1    2    0  502 -0.17462960615E+02 -0.24529284665E+02  0.11278325900E+03  0.11673347554E+03  0.00000000000E+00 0.  1.
<mgrwt>
<rscale>  2 0.67741040E+02</rscale>
<asrwt>0</asrwt>
<pdfrwt beam="1">  1       21 0.47327046E-01 0.67741040E+02</pdfrwt>
<pdfrwt beam="2">  1       21 0.29342619E-02 0.67741040E+02</pdfrwt>
<totfact> 0.27075059E+06</totfact>
</mgrwt>
</event>
<event>
 5    1  0.1624116E+000  0.9229157E+02  0.7546771E-02  0.1297395E+00
         21   -1    0    0  501  502  0.00000000000E+00  0.00000000000E+00  0.36373784272E+02  0.36373784272E+02  0.00000000000E+00 0. -1.
         21   -1    0    0  502  503 -0.00000000000E+00 -0.00000000000E+00 -0.29136020810E+03  0.29136020810E+03  0.00000000000E+00 0. -1.
         24    1    1    2    0    0 -0.40337495226E+02 -0.53777058966E+02 -0.19599963900E+03  0.22226596689E+03  0.80419002446E+02 0. -1.
          1    1    1    2  501    0  0.46836639831E+02  0.31208337473E+02 -0.19574204648E+02  0.59588427115E+02  0.00000000000E+00 0. -1.
         -2    1    1    2    0  503 -0.64991446056E+01  0.22568721493E+02 -0.39412580173E+02  0.45879598367E+02  0.00000000000E+00 0.  1.
<mgrwt>
<rscale>  2 0.92291571E+02</rscale>
<asrwt>0</asrwt>
<pdfrwt beam="1">  1       21 0.55959669E-02 0.92291571E+02</pdfrwt>
<pdfrwt beam="2">  1       21 0.44824646E-01 0.92291571E+02</pdfrwt>
<totfact> 0.10579795E+06</totfact>
</mgrwt>
</event>
<event>
 5    1  0.1624116E+000  0.7239524E+02  0.7546771E-02  0.1352132E+00
         21   -1    0    0  501  502  0.00000000000E+00  0.00000000000E+00  0.15217444372E+04  0.15217444372E+04  0.00000000000E+00 0. -1.
         21   -1    0    0  502  503 -0.00000000000E+00 -0.00000000000E+00 -0.45317775886E+01  0.45317775886E+01  0.00000000000E+00 0.  1.
         24    1    1    2    0    0 -0.12474497573E+02  0.13486037567E+01  0.62381557824E+03  0.62910295137E+03  0.80419002446E+02 0.  1.
          1    1    1    2  501    0 -0.53848672479E+01 -0.29539690143E+02  0.71812242584E+03  0.71874989293E+03  0.00000000000E+00 0. -1.
         -2    1    1    2    0  503  0.17859364821E+02  0.28191086386E+02  0.17527465556E+03  0.17842337051E+03  0.00000000000E+00 0.  1.
<mgrwt>
<rscale>  2 0.72395244E+02</rscale>
<asrwt>0</asrwt>
<pdfrwt beam="1">  1       21 0.23411412E+00 0.72395244E+02</pdfrwt>
<pdfrwt beam="2">  1       21 0.69719777E-03 0.72395244E+02</pdfrwt>
<totfact> 0.58578733E+05</totfact>
</mgrwt>
</event>
<event>
 5    1  0.1624116E+000  0.9520825E+02  0.7546771E-02  0.1290708E+00
         21   -1    0    0  501  502  0.00000000000E+00  0.00000000000E+00  0.16678722934E+02  0.16678722934E+02  0.00000000000E+00 0. -1.
         21   -1    0    0  502  503 -0.00000000000E+00 -0.00000000000E+00 -0.99720502370E+03  0.99720502370E+03  0.00000000000E+00 0. -1.
         24    1    1    2    0    0 -0.40594654976E+02 -0.81555301181E+01 -0.64080167496E+03  0.64715410937E+03  0.80419002446E+02 0. -1.
          1    1    1    2  501    0  0.66707029076E+02  0.22212938043E+02 -0.85113442340E+02  0.11039719386E+03  0.00000000000E+00 0. -1.
         -2    1    1    2    0  503 -0.26112374100E+02 -0.14057407925E+02 -0.25461118347E+03  0.25633244341E+03  0.00000000000E+00 0.  1.
<mgrwt>
<rscale>  2 0.95208250E+02</rscale>
<asrwt>0</asrwt>
<pdfrwt beam="1">  1       21 0.25659570E-02 0.95208250E+02</pdfrwt>
<pdfrwt beam="2">  1       21 0.15341618E+00 0.95208250E+02</pdfrwt>
<totfact> 0.23981551E+05</totfact>
</mgrwt>
</event>
<event>
 5    1  0.1624116E+000  0.7762982E+02  0.7546771E-02  0.1335915E+00
         21   -1    0    0  503  502  0.00000000000E+00  0.00000000000E+00  0.11692720300E+03  0.11692720300E+03  0.00000000000E+00 0. -1.
         21   -1    0    0  501  503 -0.00000000000E+00 -0.00000000000E+00 -0.10147935001E+03  0.10147935001E+03  0.00000000000E+00 0. -1.
         24    1    1    2    0    0  0.26613945061E+02  0.45705775453E+02 -0.33018415717E+02  0.10175830046E+03  0.80419002446E+02 0. -1.
          1    1    1    2  501    0 -0.25367071468E+02 -0.17602235042E+02 -0.23874861781E+02  0.39029937463E+02  0.00000000000E+00 0. -1.
         -2    1    1    2    0  502 -0.12468735932E+01 -0.28103540411E+02  0.72341130489E+02  0.77618315093E+02  0.00000000000E+00 0.  1.
<mgrwt>
<rscale>  2 0.77629820E+02</rscale>
<asrwt>0</asrwt>
<pdfrwt beam="1">  1       21 0.17988801E-01 0.77629820E+02</pdfrwt>
<pdfrwt beam="2">  1       21 0.15612208E-01 0.77629820E+02</pdfrwt>
<totfact> 0.10169287E+06</totfact>
</mgrwt>
</event>
<event>
 5    1  0.1624116E+000  0.7479176E+02  0.7546771E-02  0.1344517E+00
         21   -1    0    0  501  502  0.00000000000E+00  0.00000000000E+00  0.10098993805E+02  0.10098993805E+02  0.00000000000E+00 0.  1.
         21   -1    0    0  502  503 -0.00000000000E+00 -0.00000000000E+00 -0.60582640095E+03  0.60582640095E+03  0.00000000000E+00 0. -1.
         24    1    1    2    0    0 -0.28341896435E+01  0.88582203103E+01 -0.31890975257E+03  0.32902453850E+03  0.80419002446E+02 0. -1.
          1    1    1    2  501    0  0.12235629591E+02  0.28017753437E+02 -0.66809631153E+02  0.73472661269E+02  0.00000000000E+00 0. -1.
         -2    1    1    2    0  503 -0.94014399470E+01 -0.36875973747E+02 -0.21000802342E+03  0.21342819498E+03  0.00000000000E+00 0.  1.
<mgrwt>
<rscale>  2 0.74791761E+02</rscale>
<asrwt>0</asrwt>
<pdfrwt beam="1">  1       21 0.15536913E-02 0.74791761E+02</pdfrwt>
<pdfrwt beam="2">  1       21 0.93204063E-01 0.74791761E+02</pdfrwt>
<totfact> 0.17745328E+06</totfact>
</mgrwt>
</event>
<event>
 5    1  0.1624116E+000  0.6433031E+02  0.7546771E-02  0.1380508E+00
         21   -1    0    0  501  502  0.00000000000E+00  0.00000000000E+00  0.76028589740E+03  0.76028589740E+03  0.00000000000E+00 0. -1.
         21   -1    0    0  502  503 -0.00000000000E+00 -0.00000000000E+00 -0.63586623028E+02  0.63586623028E+02  0.00000000000E+00 0. -1.
         24    1    1    2    0    0 -0.45249544274E+01 -0.77258102891E+01 -0.27647878527E+02  0.85508973205E+02  0.80419002446E+02 0. -1.
          1    1    1    2  501    0 -0.21070856867E+02  0.67675724385E+01  0.70718610190E+03  0.70753230581E+03  0.00000000000E+00 0. -1.
         -2    1    1    2    0  503  0.25595811295E+02  0.95823785065E+00  0.17161050998E+02  0.30831241411E+02  0.00000000000E+00 0.  1.
<mgrwt>
<rscale>  2 0.64330309E+02</rscale>
<asrwt>0</asrwt>
<pdfrwt beam="1">  1       21 0.11696705E+00 0.64330309E+02</pdfrwt>
<pdfrwt beam="2">  1       21 0.97825579E-02 0.64330309E+02</pdfrwt>
<totfact> 0.51792602E+04</totfact>
</mgrwt>
</event>
<event>
 5    1  0.1624116E+000  0.7139601E+02  0.7546771E-02  0.1355409E+00
         21   -1    0    0  503  502  0.00000000000E+00  0.00000000000E+00  0.12966155885E+03  0.12966155885E+03  0.00000000000E+00 0. -1.
         21   -1    0    0  501  503 -0.00000000000E+00 -0.00000000000E+00 -0.11500560059E+03  0.11500560059E+03  0.00000000000E+00 0. -1.
         24    1    1    2    0    0  0.64454876033E+01 -0.10378049267E+02  0.87833397654E+02  0.11971286445E+03  0.80419002446E+02 0. -1.
          1    1    1    2  501    0 -0.15055596253E+01 -0.25343839990E+02 -0.83637559726E+02  0.87406054322E+02  0.00000000000E+00 0. -1.
         -2    1    1    2    0  502 -0.49399279781E+01  0.35721889257E+02  0.10460120331E+02  0.37548240676E+02  0.00000000000E+00 0.  1.
<mgrwt>
<rscale>  2 0.71396005E+02</rscale>
<asrwt>0</asrwt>
<pdfrwt beam="1">  1       21 0.19947932E-01 0.71396005E+02</pdfrwt>
<pdfrwt beam="2">  1       21 0.17693169E-01 0.71396005E+02</pdfrwt>
<totfact> 0.67285428E+05</totfact>
</mgrwt>
</event>
<event>
 5    1  0.1624116E+000  0.1060158E+03  0.7546771E-02  0.1268131E+00
         21   -1    0    0  501  502  0.00000000000E+00  0.00000000000E+00  0.15689248762E+03  0.15689248762E+03  0.00000000000E+00 0. -1.
         21   -1    0    0  502  503 -0.00000000000E+00 -0.00000000000E+00 -0.16998319977E+03  0.16998319977E+03  0.00000000000E+00 0.  1.
         24    1    1    2    0    0 -0.19351866530E+02 -0.50597949115E+02 -0.35880344435E+02  0.10338888849E+03  0.80419002446E+02 0.  1.
          1    1    1    2  501    0 -0.22026143086E+01 -0.30793011867E+02  0.10280102034E+03  0.10733643776E+03  0.00000000000E+00 0. -1.
         -2    1    1    2    0  503  0.21554480838E+02  0.81390960982E+02 -0.80011388056E+02  0.11615036114E+03  0.00000000000E+00 0.  1.
<mgrwt>
<rscale>  2 0.10601580E+03</rscale>
<asrwt>0</asrwt>
<pdfrwt beam="1">  1       21 0.24137306E-01 0.10601580E+03</pdfrwt>
<pdfrwt beam="2">  1       21 0.26151261E-01 0.10601580E+03</pdfrwt>
<totfact> 0.22995133E+05</totfact>
</mgrwt>
</event>
<event>
 5    1  0.1624116E+000  0.6845387E+02  0.7546771E-02  0.1365431E+00
         21   -1    0    0  503  502  0.00000000000E+00  0.00000000000E+00  0.77800421083E+01  0.77800421083E+01  0.00000000000E+00 0. -1.
         21   -1    0    0  501  503 -0.00000000000E+00 -0.00000000000E+00 -0.74832791534E+03  0.74832791534E+03  0.00000000000E+00 0. -1.
         24    1    1    2    0    0  0.36627341937E+02  0.64579808064E+01 -0.30245069532E+03  0.31516171523E+03  0.80419002446E+02 0. -1.
          1    1    1    2  501    0 -0.18694858769E+02 -0.18817694861E+02 -0.29646788703E+03  0.29765216516E+03  0.00000000000E+00 0. -1.
         -2    1    1    2    0  502 -0.17932483168E+02  0.12359714055E+02 -0.14162929088E+03  0.14329407706E+03  0.00000000000E+00 0.  1.
<mgrwt>
<rscale>  2 0.68453873E+02</rscale>
<asrwt>0</asrwt>
<pdfrwt beam="1">  1       21 0.11969296E-02 0.68453873E+02</pdfrwt>
<pdfrwt beam="2">  1       21 0.11512736E+00 0.68453873E+02</pdfrwt>
<totfact> 0.16359825E+06</totfact>
</mgrwt>
</event>
<event>
 5    1  0.1624116E+000  0.7058587E+02  0.7546771E-02  0.1358112E+00
         21   -1    0    0  503  502  0.00000000000E+00  0.00000000000E+00  0.18344109037E+02  0.18344109037E+02  0.00000000000E+00 0.  1.
         21   -1    0    0  501  503 -0.00000000000E+00 -0.00000000000E+00 -0.29628973322E+03  0.29628973322E+03  0.00000000000E+00 0.  1.
         24    1    1    2    0    0  0.27550545126E+02 -0.33590852680E+02 -0.21069080286E+03  0.22966324975E+03  0.80419002446E+02 0.  0.
          1    1    1    2  501    0 -0.46102460797E+01  0.24762256442E+02 -0.46135553091E+02  0.52563418572E+02  0.00000000000E+00 0. -1.
         -2    1    1    2    0  502 -0.22940299047E+02  0.88285962385E+01 -0.21119268232E+02  0.32407173936E+02  0.00000000000E+00 0.  1.
<mgrwt>
<rscale>  2 0.70585873E+02</rscale>
<asrwt>0</asrwt>
<pdfrwt beam="1">  1       21 0.28221705E-02 0.70585873E+02</pdfrwt>
<pdfrwt beam="2">  1       21 0.45583038E-01 0.70585873E+02</pdfrwt>
<totfact> 0.31153494E+06</totfact>
</mgrwt>
</event>
<event>
 5    1  0.1624116E+000  0.8841063E+02  0.7546771E-02  0.1306747E+00
         21   -1    0    0  503  502  0.00000000000E+00  0.00000000000E+00  0.10772242843E+03  0.10772242843E+03  0.00000000000E+00 0.  1.
         21   -1    0    0  501  503 -0.00000000000E+00 -0.00000000000E+00 -0.21997256523E+03  0.21997256523E+03  0.00000000000E+00 0.  1.
         24    1    1    2    0    0  0.21250485466E+02 -0.41053413329E+02  0.75342227088E+02  0.11950160256E+03  0.80419002446E+02 0.  1.
          1    1    1    2  501    0  0.18002417727E+02 -0.92633232919E+01 -0.84954027096E+02  0.87333171946E+02  0.00000000000E+00 0. -1.
         -2    1    1    2    0  502 -0.39252903193E+02  0.50316736621E+02 -0.10263833679E+03  0.12086021915E+03  0.00000000000E+00 0.  1.
<mgrwt>
<rscale>  2 0.88410635E+02</rscale>
<asrwt>0</asrwt>
<pdfrwt beam="1">  1       21 0.16572682E-01 0.88410635E+02</pdfrwt>
<pdfrwt beam="2">  1       21 0.33841933E-01 0.88410635E+02</pdfrwt>
<totfact> 0.28112424E+05</totfact>
</mgrwt>
</event>
<event>
 5    1  0.1624116E+000  0.1061179E+03  0.7546771E-02  0.1267933E+00
         21   -1    0    0  503  502  0.00000000000E+00  0.00000000000E+00  0.11929611427E+03  0.11929611427E+03  0.00000000000E+00 0.  1.
         21   -1    0    0  501  503 -0.00000000000E+00 -0.00000000000E+00 -0.95991466316E+02  0.95991466316E+02  0.00000000000E+00 0.  1.
         24    1    1    2    0    0  0.86553970069E+02 -0.24241683292E+02  0.24146844512E+02  0.12300217477E+03  0.80419002446E+02 0.  1.
          1    1    1    2  501    0 -0.23029953560E+02  0.14875418311E+02 -0.52849168659E+01  0.27921088395E+02  0.00000000000E+00 0. -1.
         -2    1    1    2    0  502 -0.63524016509E+02  0.93662649804E+01  0.44427203038E+01  0.64364317419E+02  0.00000000000E+00 0.  1.
<mgrwt>
<rscale>  2 0.10611795E+03</rscale>
<asrwt>0</asrwt>
<pdfrwt beam="1">  1       21 0.18353248E-01 0.10611795E+03</pdfrwt>
<pdfrwt beam="2">  1       21 0.14767918E-01 0.10611795E+03</pdfrwt>
<totfact> 0.10901005E+06</totfact>
</mgrwt>
</event>
<event>
 5    1  0.1624116E+000  0.6822926E+02  0.7546771E-02  0.1366220E+00
         21   -1    0    0  501  502  0.00000000000E+00  0.00000000000E+00  0.83616332759E+03  0.83616332759E+03  0.00000000000E+00 0. -1.
         21   -1    0    0  502  503 -0.00000000000E+00 -0.00000000000E+00 -0.12313709630E+02  0.12313709630E+02  0.00000000000E+00 0. -1.
         24    1    1    2    0    0 -0.10605170790E+01 -0.14453335973E+02  0.19705946607E+03  0.21332996212E+03  0.80419002446E+02 0. -1.
          1    1    1    2  501    0  0.20470572742E+02  0.25272077938E+02  0.59748522529E+03  0.59836971574E+03  0.00000000000E+00 0. -1.
         -2    1    1    2    0  503 -0.19410055663E+02 -0.10818741965E+02  0.29304926607E+02  0.36777359367E+02  0.00000000000E+00 0.  1.
<mgrwt>
<rscale>  2 0.68229264E+02</rscale>
<asrwt>0</asrwt>
<pdfrwt beam="1">  1       21 0.12864047E+00 0.68229264E+02</pdfrwt>
<pdfrwt beam="2">  1       21 0.18944175E-02 0.68229264E+02</pdfrwt>
<totfact> 0.60959230E+05</totfact>
</mgrwt>
</event>
<event>
 5    1  0.1624116E+000  0.1329017E+03  0.7546771E-02  0.1223213E+00
         21   -1    0    0  501  502  0.00000000000E+00  0.00000000000E+00  0.36567945307E+02  0.36567945307E+02  0.00000000000E+00 0. -1.
         21   -1    0    0  502  503 -0.00000000000E+00 -0.00000000000E+00 -0.59006291091E+03  0.59006291091E+03  0.00000000000E+00 0. -1.
         24    1    1    2    0    0  0.20653961192E+02  0.65916904965E+02 -0.36165724626E+03  0.37687505117E+03  0.80419002446E+02 0. -1.
          1    1    1    2  501    0 -0.55210659050E+02  0.26414237719E+02 -0.78518851652E+02  0.99554703012E+02  0.00000000000E+00 0. -1.
         -2    1    1    2    0  503  0.34556697857E+02 -0.92331142684E+02 -0.11331886769E+03  0.15020110203E+03  0.00000000000E+00 0.  1.
<mgrwt>
<rscale>  2 0.13290171E+03</rscale>
<asrwt>0</asrwt>
<pdfrwt beam="1">  1       21 0.56258380E-02 0.13290171E+03</pdfrwt>
<pdfrwt beam="2">  1       21 0.90778905E-01 0.13290171E+03</pdfrwt>
<totfact> 0.23063366E+05</totfact>
</mgrwt>
</event>
<event>
 5    1  0.1624116E+000  0.6234022E+02  0.7546771E-02  0.1388265E+00
         21   -1    0    0  501  502  0.00000000000E+00  0.00000000000E+00  0.24940589940E+02  0.24940589940E+02  0.00000000000E+00 0. -1.
         21   -1    0    0  502  503 -0.00000000000E+00 -0.00000000000E+00 -0.62091169298E+03  0.62091169298E+03  0.00000000000E+00 0.  1.
         24    1    1    2    0    0  0.91639653698E+01 -0.41477835484E+01 -0.15823971045E+03  0.17778696321E+03  0.80419002446E+02 0.  0.
          1    1    1    2  501    0  0.30035985472E-02  0.22827225793E+02  0.61939208999E+01  0.23652629928E+02  0.00000000000E+00 0. -1.
         -2    1    1    2    0  503 -0.91669689684E+01 -0.18679442244E+02 -0.44392531349E+03  0.44441268978E+03  0.00000000000E+00 0.  1.
<mgrwt>
<rscale>  2 0.62340225E+02</rscale>
<asrwt>0</asrwt>
<pdfrwt beam="1">  1       21 0.38370139E-02 0.62340225E+02</pdfrwt>
<pdfrwt beam="2">  1       21 0.95524875E-01 0.62340225E+02</pdfrwt>
<totfact> 0.39386300E+05</totfact>
</mgrwt>
</event>
<event>
 5    1  0.1624116E+000  0.7526479E+02  0.7546771E-02  0.1343053E+00
         21   -1    0    0  503  502  0.00000000000E+00  0.00000000000E+00  0.16498262785E+03  0.16498262785E+03  0.00000000000E+00 0. -1.
         21   -1    0    0  501  503 -0.00000000000E+00 -0.00000000000E+00 -0.72047551708E+02  0.72047551708E+02  0.00000000000E+00 0.  1.
         24    1    1    2    0    0 -0.57864763043E+01 -0.13343228738E+02 -0.34036116502E+02  0.88527951756E+02  0.80419002446E+02 0.  1.
          1    1    1    2  501    0  0.37312995510E+01  0.40951608448E+02  0.40537040230E+02  0.57742605253E+02  0.00000000000E+00 0. -1.
         -2    1    1    2    0  502  0.20551767532E+01 -0.27608379710E+02  0.86434152409E+02  0.90759622544E+02  0.00000000000E+00 0.  1.
<mgrwt>
<rscale>  2 0.75264789E+02</rscale>
<asrwt>0</asrwt>
<pdfrwt beam="1">  1       21 0.25381943E-01 0.75264789E+02</pdfrwt>
<pdfrwt beam="2">  1       21 0.11084239E-01 0.75264789E+02</pdfrwt>
<totfact> 0.98731400E+05</totfact>
</mgrwt>
</event>
<event>
 5    1  0.1624116E+000  0.7549500E+02  0.7546771E-02  0.1342345E+00
         21   -1    0    0  501  502  0.00000000000E+00  0.00000000000E+00  0.20592076471E+02  0.20592076471E+02  0.00000000000E+00 0. -1.
         21   -1    0    0  502  503 -0.00000000000E+00 -0.00000000000E+00 -0.55903956102E+03  0.55903956102E+03  0.00000000000E+00 0. -1.
         24    1    1    2    0    0  0.23158131887E+02 -0.13064780132E+02 -0.31964809705E+03  0.33067976874E+03  0.80419002446E+02 0. -1.
          1    1    1    2  501    0 -0.16588738852E+02  0.37489950859E+02 -0.15100646693E+02  0.43688810954E+02  0.00000000000E+00 0. -1.
         -2    1    1    2    0  503 -0.65693930356E+01 -0.24425170727E+02 -0.20369874081E+03  0.20526305780E+03  0.00000000000E+00 0.  1.
<mgrwt>
<rscale>  2 0.75494999E+02</rscale>
<asrwt>0</asrwt>
<pdfrwt beam="1">  1       21 0.31680117E-02 0.75494999E+02</pdfrwt>
<pdfrwt beam="2">  1       21 0.86006089E-01 0.75494999E+02</pdfrwt>
<totfact> 0.68042476E+05</totfact>
</mgrwt>
</event>
<event>
 5    1  0.1624116E+000  0.7551328E+02  0.7546771E-02  0.1342289E+00
         21   -1    0    0  503  502  0.00000000000E+00  0.00000000000E+00  0.32736659311E+03  0.32736659311E+03  0.00000000000E+00 0.  1.
         21   -1    0    0  501  503 -0.00000000000E+00 -0.00000000000E+00 -0.67064722963E+02  0.67064722963E+02  0.00000000000E+00 0.  1.
         24    1    1    2    0    0  0.18144976006E+02 -0.40109998494E+02 -0.63709856402E+01  0.91901346812E+02  0.80419002446E+02 0.  1.
          1    1    1    2  501    0  0.12203021948E+02  0.18213471304E+02 -0.94566048823E+01  0.23876173427E+02  0.00000000000E+00 0. -1.
         -2    1    1    2    0  502 -0.30347997955E+02  0.21896527190E+02  0.27612946067E+03  0.27865379583E+03  0.00000000000E+00 0.  1.
<mgrwt>
<rscale>  2 0.75513278E+02</rscale>
<asrwt>0</asrwt>
<pdfrwt beam="1">  1       21 0.50364091E-01 0.75513278E+02</pdfrwt>
<pdfrwt beam="2">  1       21 0.10317650E-01 0.75513278E+02</pdfrwt>
<totfact> 0.29527980E+05</totfact>
</mgrwt>
</event>
<event>
 5    1  0.1624116E+000  0.6811717E+02  0.7546771E-02  0.1366615E+00
         21   -1    0    0  501  502  0.00000000000E+00  0.00000000000E+00  0.88560413192E+02  0.88560413192E+02  0.00000000000E+00 0. -1.
         21   -1    0    0  502  503 -0.00000000000E+00 -0.00000000000E+00 -0.95927632111E+02  0.95927632111E+02  0.00000000000E+00 0. -1.
         24    1    1    2    0    0  0.31022343584E+01  0.33862419259E+02 -0.39304040104E+02  0.95751296696E+02  0.80419002446E+02 0.  0.
          1    1    1    2  501    0 -0.18046289285E+02 -0.96384033618E+01  0.50682164395E+02  0.54655733131E+02  0.00000000000E+00 0. -1.
         -2    1    1    2    0  503  0.14944054926E+02 -0.24224015897E+02 -0.18745343209E+02  0.34081015476E+02  0.00000000000E+00 0.  1.
<mgrwt>
<rscale>  2 0.68117169E+02</rscale>
<asrwt>0</asrwt>
<pdfrwt beam="1">  1       21 0.13624679E-01 0.68117169E+02</pdfrwt>
<pdfrwt beam="2">  1       21 0.14758097E-01 0.68117169E+02</pdfrwt>
<totfact> 0.18339975E+06</totfact>
</mgrwt>
</event>
<event>
 5    1  0.1624116E+000  0.1912603E+03  0.7546771E-02  0.1157329E+00
         21   -1    0    0  501  502  0.00000000000E+00  0.00000000000E+00  0.14999317406E+03  0.14999317406E+03  0.00000000000E+00 0. -1.
         21   -1    0    0  502  503 -0.00000000000E+00 -0.00000000000E+00 -0.39438366241E+03  0.39438366241E+03  0.00000000000E+00 0. -1.
         24    1    1    2    0    0  0.12930518367E+03  0.80803124297E+02 -0.26594607880E+03  0.31692823826E+03  0.80419002446E+02 0. -1.
          1    1    1    2  501    0 -0.15151735360E+03 -0.99362389648E+02  0.48853023397E+02  0.18766195889E+03  0.00000000000E+00 0. -1.
         -2    1    1    2    0  503  0.22212169935E+02  0.18559265351E+02 -0.27297432943E+02  0.39786639326E+02  0.00000000000E+00 0.  1.
<mgrwt>
<rscale>  2 0.19126034E+03</rscale>
<asrwt>0</asrwt>
<pdfrwt beam="1">  1       21 0.23075873E-01 0.19126034E+03</pdfrwt>
<pdfrwt beam="2">  1       21 0.60674409E-01 0.19126034E+03</pdfrwt>
<totfact> 0.44651157E+04</totfact>
</mgrwt>
</event>
<event>
 5    1  0.1624116E+000  0.7835559E+02  0.7546771E-02  0.1333784E+00
         21   -1    0    0  503  502  0.00000000000E+00  0.00000000000E+00  0.29458905281E+03  0.29458905281E+03  0.00000000000E+00 0. -1.
         21   -1    0    0  501  503 -0.00000000000E+00 -0.00000000000E+00 -0.80493599674E+02  0.80493599674E+02  0.00000000000E+00 0. -1.
         24    1    1    2    0    0 -0.94815521979E+01  0.34501910718E+02  0.22170660454E+03  0.23853996757E+03  0.80419002446E+02 0. -1.
          1    1    1    2  501    0  0.30493301270E+02 -0.27504892107E+01 -0.62584221683E+02  0.69672027507E+02  0.00000000000E+00 0. -1.
         -2    1    1    2    0  502 -0.21011749072E+02 -0.31751421507E+02  0.54973070280E+02  0.66870657413E+02  0.00000000000E+00 0.  1.
<mgrwt>
<rscale>  2 0.78355595E+02</rscale>
<asrwt>0</asrwt>
<pdfrwt beam="1">  1       21 0.45321392E-01 0.78355595E+02</pdfrwt>
<pdfrwt beam="2">  1       21 0.12383631E-01 0.78355595E+02</pdfrwt>
<totfact> 0.26582399E+05</totfact>
</mgrwt>
</event>
<event>
 5    1  0.1624116E+000  0.7691359E+02  0.7546771E-02  0.1338046E+00
         21   -1    0    0  503  502  0.00000000000E+00  0.00000000000E+00  0.10806385762E+02  0.10806385762E+02  0.00000000000E+00 0. -1.
         21   -1    0    0  501  503 -0.00000000000E+00 -0.00000000000E+00 -0.82390293154E+03  0.82390293154E+03  0.00000000000E+00 0.  1.
         24    1    1    2    0    0 -0.19137139148E+01  0.36309324028E+02 -0.68261764839E+03  0.68829942551E+03  0.80419002446E+02 0.  1.
          1    1    1    2  501    0  0.19297902662E+02  0.56868832420E+01 -0.51436373269E+02  0.55230880703E+02  0.00000000000E+00 0. -1.
         -2    1    1    2    0  502 -0.17384188747E+02 -0.41996207270E+02 -0.79042524117E+02  0.91179011084E+02  0.00000000000E+00 0.  1.
<mgrwt>
<rscale>  2 0.76913586E+02</rscale>
<asrwt>0</asrwt>
<pdfrwt beam="1">  1       21 0.16625210E-02 0.76913586E+02</pdfrwt>
<pdfrwt beam="2">  1       21 0.12675429E+00 0.76913586E+02</pdfrwt>
<totfact> 0.77677464E+05</totfact>
</mgrwt>
</event>
<event>
 5    1  0.1624116E+000  0.8073789E+02  0.7546771E-02  0.1326970E+00
         21   -1    0    0  501  502  0.00000000000E+00  0.00000000000E+00  0.64831789497E+02  0.64831789497E+02  0.00000000000E+00 0.  1.
         21   -1    0    0  502  503 -0.00000000000E+00 -0.00000000000E+00 -0.17455912620E+03  0.17455912620E+03  0.00000000000E+00 0.  1.
         24    1    1    2    0    0 -0.20651539509E+02 -0.38071038636E+02 -0.13618685160E+03  0.16398159827E+03  0.80419002446E+02 0.  1.
          1    1    1    2  501    0 -0.18496522817E+02  0.19255910697E+02  0.14378227046E+02  0.30325647001E+02  0.00000000000E+00 0. -1.
         -2    1    1    2    0  503  0.39148062326E+02  0.18815127940E+02  0.12081287850E+02  0.45083670429E+02  0.00000000000E+00 0.  1.
<mgrwt>
<rscale>  2 0.80737891E+02</rscale>
<asrwt>0</asrwt>
<pdfrwt beam="1">  1       21 0.99741216E-02 0.80737891E+02</pdfrwt>
<pdfrwt beam="2">  1       21 0.26855250E-01 0.80737891E+02</pdfrwt>
<totfact> 0.10682006E+06</totfact>
</mgrwt>
</event>
<event>
 5    1  0.1624116E+000  0.1114141E+03  0.7546771E-02  0.1257973E+00
         21   -1    0    0  501  502  0.00000000000E+00  0.00000000000E+00  0.13324908372E+03  0.13324908372E+03  0.00000000000E+00 0. -1.
         21   -1    0    0  502  503 -0.00000000000E+00 -0.00000000000E+00 -0.13067828285E+03  0.13067828285E+03  0.00000000000E+00 0.  1.
         24    1    1    2    0    0 -0.43183135022E+01  0.22758545513E+02  0.93038563650E+00  0.83693971092E+02  0.80419002446E+02 0.  1.
          1    1    1    2  501    0 -0.10370370744E+01  0.58097270664E+02  0.57551446562E+02  0.81783478197E+02  0.00000000000E+00 0. -1.
         -2    1    1    2    0  503  0.53553505766E+01 -0.80855816178E+02 -0.55911031323E+02  0.98449917284E+02  0.00000000000E+00 0.  1.
<mgrwt>
<rscale>  2 0.11141415E+03</rscale>
<asrwt>0</asrwt>
<pdfrwt beam="1">  1       21 0.20499859E-01 0.11141415E+03</pdfrwt>
<pdfrwt beam="2">  1       21 0.20104351E-01 0.11141415E+03</pdfrwt>
<totfact> 0.50836977E+05</totfact>
</mgrwt>
</event>
<event>
 5    1  0.1624116E+000  0.9584200E+02  0.7546771E-02  0.1289291E+00
         21   -1    0    0  503  502  0.00000000000E+00  0.00000000000E+00  0.70281038888E+02  0.70281038888E+02  0.00000000000E+00 0. -1.
         21   -1    0    0  501  503 -0.00000000000E+00 -0.00000000000E+00 -0.13629673925E+03  0.13629673925E+03  0.00000000000E+00 0.  1.
         24    1    1    2    0    0  0.55805004512E+02  0.90945358494E+01 -0.49633845647E+02  0.11012558149E+03  0.80419002446E+02 0.  0.
          1    1    1    2  501    0  0.15755506458E+02 -0.14765361988E+02  0.37084817835E+01  0.21909010373E+02  0.00000000000E+00 0. -1.
         -2    1    1    2    0  502 -0.71560510970E+02  0.56708261382E+01 -0.20090336502E+02  0.74543186276E+02  0.00000000000E+00 0.  1.
<mgrwt>
<rscale>  2 0.95842000E+02</rscale>
<asrwt>0</asrwt>
<pdfrwt beam="1">  1       21 0.10812467E-01 0.95842000E+02</pdfrwt>
<pdfrwt beam="2">  1       21 0.20968729E-01 0.95842000E+02</pdfrwt>
<totfact> 0.14779833E+06</totfact>
</mgrwt>
</event>
<event>
 5    1  0.1624116E+000  0.1222597E+03  0.7546771E-02  0.1239415E+00
         21   -1    0    0  503  502  0.00000000000E+00  0.00000000000E+00  0.17686863923E+02  0.17686863923E+02  0.00000000000E+00 0. -1.
         21   -1    0    0  501  503 -0.00000000000E+00 -0.00000000000E+00 -0.10462130409E+04  0.10462130409E+04  0.00000000000E+00 0.  1.
         24    1    1    2    0    0  0.49688557074E+02  0.30233191478E+01 -0.36218501609E+03  0.37433046229E+03  0.80419002446E+02 0.  1.
          1    1    1    2  501    0 -0.63207570125E+02 -0.62533277606E+02 -0.55955880845E+03  0.56657891582E+03  0.00000000000E+00 0. -1.
         -2    1    1    2    0  502  0.13519013051E+02  0.59509958458E+02 -0.10678235239E+03  0.12299052667E+03  0.00000000000E+00 0.  1.
<mgrwt>
<rscale>  2 0.12225967E+03</rscale>
<asrwt>0</asrwt>
<pdfrwt beam="1">  1       21 0.27210566E-02 0.12225967E+03</pdfrwt>
<pdfrwt beam="2">  1       21 0.16095581E+00 0.12225967E+03</pdfrwt>
<totfact> 0.18985489E+05</totfact>
</mgrwt>
</event>
<event>
 5    1  0.1624116E+000  0.7731082E+02  0.7546771E-02  0.1336861E+00
         21   -1    0    0  503  502  0.00000000000E+00  0.00000000000E+00  0.25431970927E+03  0.25431970927E+03  0.00000000000E+00 0.  1.
         21   -1    0    0  501  503 -0.00000000000E+00 -0.00000000000E+00 -0.93129249592E+02  0.93129249592E+02  0.00000000000E+00 0. -1.
         24    1    1    2    0    0  0.22860551663E+02  0.15500311408E+02  0.13974807021E+02  0.86170619481E+02  0.80419002446E+02 0.  1.
          1    1    1    2  501    0 -0.23213428624E+02  0.22063698550E+02 -0.50624023278E+02  0.59903771125E+02  0.00000000000E+00 0. -1.
         -2    1    1    2    0  502  0.35287696145E+00 -0.37564009958E+02  0.19783967593E+03  0.20137456825E+03  0.00000000000E+00 0.  1.
<mgrwt>
<rscale>  2 0.77310816E+02</rscale>
<asrwt>0</asrwt>
<pdfrwt beam="1">  1       21 0.39126109E-01 0.77310816E+02</pdfrwt>
<pdfrwt beam="2">  1       21 0.14327577E-01 0.77310816E+02</pdfrwt>
<totfact> 0.27530970E+05</totfact>
</mgrwt>
</event>
<event>
 5    1  0.1852931E+000  0.7809655E+02  0.7546771E-02  0.1334542E+00
         21   -1    0    0  503  502  0.00000000000E+00  0.00000000000E+00  0.31208007166E+03  0.31208007166E+03  0.00000000000E+00 0.  1.
         21   -1    0    0  501  503 -0.00000000000E+00 -0.00000000000E+00 -0.91477703224E+02  0.91477703224E+02  0.00000000000E+00 0. -1.
         24    1    1    2    0    0 -0.37172094265E+02 -0.35265879481E+02  0.26865344797E+03  0.28507426735E+03  0.80419002446E+02 0.  1.
          1    1    1    2  501    0  0.46628231075E+01  0.26856569731E+02 -0.72165913612E+02  0.77142312284E+02  0.00000000000E+00 0. -1.
         -2    1    1    2    0  502  0.32509271158E+02  0.84093097509E+01  0.24114834082E+02  0.41341195248E+02  0.00000000000E+00 0.  1.
<mgrwt>
<rscale>  2 0.78096548E+02</rscale>
<asrwt>0</asrwt>
<pdfrwt beam="1">  1       21 0.48012318E-01 0.78096548E+02</pdfrwt>
<pdfrwt beam="2">  1       21 0.14073493E-01 0.78096548E+02</pdfrwt>
<totfact> 0.18898230E+05</totfact>
</mgrwt>
</event>
<event>
 5    1  0.1624116E+000  0.8715454E+02  0.7546771E-02  0.1309892E+00
         21   -1    0    0  503  502  0.00000000000E+00  0.00000000000E+00  0.63208158217E+03  0.63208158217E+03  0.00000000000E+00 0.  1.
         21   -1    0    0  501  503 -0.00000000000E+00 -0.00000000000E+00 -0.22002726556E+02  0.22002726556E+02  0.00000000000E+00 0. -1.
         24    1    1    2    0    0 -0.37833314812E+02 -0.24587866087E+02  0.30762686204E+03  0.32115015969E+03  0.80419002446E+02 0. -1.
          1    1    1    2  501    0  0.57366530298E+02  0.11291056323E+02  0.43419763011E+02  0.72826386504E+02  0.00000000000E+00 0. -1.
         -2    1    1    2    0  502 -0.19533215487E+02  0.13296809763E+02  0.25903223056E+03  0.26010776253E+03  0.00000000000E+00 0.  1.
<mgrwt>
<rscale>  2 0.87154537E+02</rscale>
<asrwt>0</asrwt>
<pdfrwt beam="1">  1       21 0.97243306E-01 0.87154537E+02</pdfrwt>
<pdfrwt beam="2">  1       21 0.33850353E-02 0.87154537E+02</pdfrwt>
<totfact> 0.46269753E+05</totfact>
</mgrwt>
</event>
<event>
 5    1  0.1624116E+000  0.6825029E+02  0.7546771E-02  0.1366146E+00
         21   -1    0    0  501  502  0.00000000000E+00  0.00000000000E+00  0.36567462204E+02  0.36567462204E+02  0.00000000000E+00 0.  1.
         21   -1    0    0  502  503 -0.00000000000E+00 -0.00000000000E+00 -0.13207580911E+03  0.13207580911E+03  0.00000000000E+00 0. -1.
         24    1    1    2    0    0  0.34519547230E+02  0.18736942179E+02 -0.50901506545E+02  0.10296043641E+03  0.80419002446E+02 0.  1.
          1    1    1    2  501    0 -0.22449452513E+02  0.24867609455E+01 -0.14171961602E+02  0.26664703144E+02  0.00000000000E+00 0. -1.
         -2    1    1    2    0  503 -0.12070094717E+02 -0.21223703124E+02 -0.30434878755E+02  0.39018131755E+02  0.00000000000E+00 0.  1.
<mgrwt>
<rscale>  2 0.68250286E+02</rscale>
<asrwt>0</asrwt>
<pdfrwt beam="1">  1       21 0.56257633E-02 0.68250286E+02</pdfrwt>
<pdfrwt beam="2">  1       21 0.20319356E-01 0.68250286E+02</pdfrwt>
<totfact> 0.46750058E+06</totfact>
</mgrwt>
</event>
<event>
 5    1  0.1624116E+000  0.9730290E+02  0.7546771E-02  0.1286072E+00
         21   -1    0    0  501  502  0.00000000000E+00  0.00000000000E+00  0.99681947250E+02  0.99681947250E+02  0.00000000000E+00 0. -1.
         21   -1    0    0  502  503 -0.00000000000E+00 -0.00000000000E+00 -0.23630266578E+03  0.23630266578E+03  0.00000000000E+00 0. -1.
         24    1    1    2    0    0 -0.70031412217E+02 -0.29719884701E+02 -0.13349465808E+03  0.17342349880E+03  0.80419002446E+02 0. -1.
          1    1    1    2  501    0  0.24343378059E+02 -0.69544718886E+01  0.66740683240E+02  0.71381254779E+02  0.00000000000E+00 0. -1.
         -2    1    1    2    0  503  0.45688034159E+02  0.36674356589E+02 -0.69866743682E+02  0.91179859449E+02  0.00000000000E+00 0.  1.
<mgrwt>
<rscale>  2 0.97302900E+02</rscale>
<asrwt>0</asrwt>
<pdfrwt beam="1">  1       21 0.15335685E-01 0.97302900E+02</pdfrwt>
<pdfrwt beam="2">  1       21 0.36354255E-01 0.97302900E+02</pdfrwt>
<totfact> 0.28059197E+05</totfact>
</mgrwt>
</event>
<event>
 5    1  0.1624116E+000  0.8740721E+02  0.7546771E-02  0.1309255E+00
         21   -1    0    0  503  502  0.00000000000E+00  0.00000000000E+00  0.43344340109E+02  0.43344340109E+02  0.00000000000E+00 0. -1.
         21   -1    0    0  501  503 -0.00000000000E+00 -0.00000000000E+00 -0.32256286860E+03  0.32256286860E+03  0.00000000000E+00 0.  1.
         24    1    1    2    0    0 -0.10342524405E+02 -0.20528031892E+02 -0.24418288326E+03  0.25811017867E+03  0.80419002446E+02 0.  0.
          1    1    1    2  501    0 -0.19631432228E+02 -0.27963918654E+02 -0.37506306640E+02  0.50735558690E+02  0.00000000000E+00 0. -1.
         -2    1    1    2    0  502  0.29973956634E+02  0.48491950546E+02  0.24706614102E+01  0.57061471343E+02  0.00000000000E+00 0.  1.
<mgrwt>
<rscale>  2 0.87407210E+02</rscale>
<asrwt>0</asrwt>
<pdfrwt beam="1">  1       21 0.66683599E-02 0.87407210E+02</pdfrwt>
<pdfrwt beam="2">  1       21 0.49625058E-01 0.87407210E+02</pdfrwt>
<totfact> 0.64075288E+05</totfact>
</mgrwt>
</event>
<event>
 5    1  0.1624116E+000  0.1037148E+03  0.7546771E-02  0.1272673E+00
         21   -1    0    0  501  502  0.00000000000E+00  0.00000000000E+00  0.86763020612E+01  0.86763020612E+01  0.00000000000E+00 0.  1.
         21   -1    0    0  502  503 -0.00000000000E+00 -0.00000000000E+00 -0.22671578278E+04  0.22671578278E+04  0.00000000000E+00 0.  1.
         24    1    1    2    0    0 -0.79490952483E+02 -0.36340574699E+02 -0.59131726751E+03  0.60312749540E+03  0.80419002446E+02 0.  1.
          1    1    1    2  501    0  0.44085527493E+02  0.11989129076E+02 -0.21014893631E+03  0.21505777917E+03  0.00000000000E+00 0. -1.
         -2    1    1    2    0  503  0.35405424990E+02  0.24351445623E+02 -0.14570153219E+04  0.14576488553E+04  0.00000000000E+00 0.  1.
<mgrwt>
<rscale>  2 0.10371476E+03</rscale>
<asrwt>0</asrwt>
<pdfrwt beam="1">  1       21 0.13348140E-02 0.10371476E+03</pdfrwt>
<pdfrwt beam="2">  1       21 0.34879396E+00 0.10371476E+03</pdfrwt>
<totfact> 0.47274365E+04</totfact>
</mgrwt>
</event>
<event>
 5    1  0.1624116E+000  0.7870777E+02  0.7546771E-02  0.1332759E+00
         21   -1    0    0  501  502  0.00000000000E+00  0.00000000000E+00  0.14080187273E+03  0.14080187273E+03  0.00000000000E+00 0.  1.
         21   -1    0    0  502  503 -0.00000000000E+00 -0.00000000000E+00 -0.85516348265E+02  0.85516348265E+02  0.00000000000E+00 0.  1.
         24    1    1    2    0    0  0.13167560172E+02 -0.35004086024E+02  0.78547549602E+02  0.11847195526E+03  0.80419002446E+02 0.  0.
          1    1    1    2  501    0 -0.21822304930E+02 -0.91999884233E+01  0.29916169172E+02  0.38155339828E+02  0.00000000000E+00 0. -1.
         -2    1    1    2    0  503  0.86547447583E+01  0.44204074447E+02 -0.53178194308E+02  0.69690925912E+02  0.00000000000E+00 0.  1.
<mgrwt>
<rscale>  2 0.78707765E+02</rscale>
<asrwt>0</asrwt>
<pdfrwt beam="1">  1       21 0.21661827E-01 0.78707765E+02</pdfrwt>
<pdfrwt beam="2">  1       21 0.13156361E-01 0.78707765E+02</pdfrwt>
<totfact> 0.98214456E+05</totfact>
</mgrwt>
</event>
<event>
 5    1  0.1624116E+000  0.6762574E+02  0.7546771E-02  0.1368358E+00
         21   -1    0    0  501  502  0.00000000000E+00  0.00000000000E+00  0.45125546836E+02  0.45125546836E+02  0.00000000000E+00 0. -1.
         21   -1    0    0  502  503 -0.00000000000E+00 -0.00000000000E+00 -0.15277202659E+03  0.15277202659E+03  0.00000000000E+00 0. -1.
         24    1    1    2    0    0  0.15024277800E+02  0.21742464284E+01 -0.94115462605E+02  0.12472125932E+03  0.80419002446E+02 0. -1.
          1    1    1    2  501    0 -0.28859562002E+02 -0.16707199316E+02  0.16384623497E+02  0.37154551741E+02  0.00000000000E+00 0. -1.
         -2    1    1    2    0  503  0.13835284202E+02  0.14532952888E+02 -0.29915640645E+02  0.36021762364E+02  0.00000000000E+00 0.  1.
<mgrwt>
<rscale>  2 0.67625741E+02</rscale>
<asrwt>0</asrwt>
<pdfrwt beam="1">  1       21 0.69423918E-02 0.67625741E+02</pdfrwt>
<pdfrwt beam="2">  1       21 0.23503389E-01 0.67625741E+02</pdfrwt>
<totfact> 0.25189181E+06</totfact>
</mgrwt>
</event>
<event>
 5    1  0.1624116E+000  0.7216879E+02  0.7546771E-02  0.1352869E+00
         21   -1    0    0  501  502  0.00000000000E+00  0.00000000000E+00  0.13074351553E+02  0.13074351553E+02  0.00000000000E+00 0. -1.
         21   -1    0    0  502  503 -0.00000000000E+00 -0.00000000000E+00 -0.14125117561E+04  0.14125117561E+04  0.00000000000E+00 0. -1.
         24    1    1    2    0    0  0.88828651049E+01 -0.32212850307E+02 -0.98774664980E+03  0.99157815283E+03  0.80419002446E+02 0. -1.
          1    1    1    2  501    0  0.19222162340E+02  0.12740672636E+02 -0.22818134817E+01  0.23173755350E+02  0.00000000000E+00 0. -1.
         -2    1    1    2    0  503 -0.28105027445E+02  0.19472177671E+02 -0.40940894128E+03  0.41083419949E+03  0.00000000000E+00 0.  1.
<mgrwt>
<rscale>  2 0.72168794E+02</rscale>
<asrwt>0</asrwt>
<pdfrwt beam="1">  1       21 0.20114396E-02 0.72168794E+02</pdfrwt>
<pdfrwt beam="2">  1       21 0.21730940E+00 0.72168794E+02</pdfrwt>
<totfact> 0.13953900E+05</totfact>
</mgrwt>
</event>
<event>
 5    1  0.1624116E+000  0.8246586E+02  0.7546771E-02  0.1322196E+00
         21   -1    0    0  501  502  0.00000000000E+00  0.00000000000E+00  0.51528227755E+02  0.51528227755E+02  0.00000000000E+00 0. -1.
         21   -1    0    0  502  503 -0.00000000000E+00 -0.00000000000E+00 -0.20163165763E+03  0.20163165763E+03  0.00000000000E+00 0. -1.
         24    1    1    2    0    0 -0.17641029828E+02  0.13419649980E+02 -0.11853301412E+03  0.14494338319E+03  0.80419002446E+02 0. -1.
          1    1    1    2  501    0  0.48927909876E+02 -0.10889258223E+02  0.14761099599E+02  0.52253290527E+02  0.00000000000E+00 0. -1.
         -2    1    1    2    0  503 -0.31286880048E+02 -0.25303917569E+01 -0.46331515356E+02  0.55963211673E+02  0.00000000000E+00 0.  1.
<mgrwt>
<rscale>  2 0.82465861E+02</rscale>
<asrwt>0</asrwt>
<pdfrwt beam="1">  1       21 0.79274196E-02 0.82465861E+02</pdfrwt>
<pdfrwt beam="2">  1       21 0.31020255E-01 0.82465861E+02</pdfrwt>
<totfact> 0.12056201E+06</totfact>
</mgrwt>
</event>
<event>
 5    1  0.1624116E+000  0.1384876E+03  0.7546771E-02  0.1215379E+00
         21   -1    0    0  501  502  0.00000000000E+00  0.00000000000E+00  0.42670267259E+02  0.42670267259E+02  0.00000000000E+00 0.  1.
         21   -1    0    0  502  503 -0.00000000000E+00 -0.00000000000E+00 -0.59132932362E+03  0.59132932362E+03  0.00000000000E+00 0.  1.
         24    1    1    2    0    0  0.87801998491E+02 -0.46996732401E+02 -0.32842815823E+03  0.35249135431E+03  0.80419002446E+02 0.  1.
          1    1    1    2  501    0  0.26599796100E+02  0.13114929358E+02  0.15202606692E+01  0.29696156606E+02  0.00000000000E+00 0. -1.
         -2    1    1    2    0  503 -0.11440179459E+03  0.33881803043E+02 -0.22175115881E+03  0.25181207996E+03  0.00000000000E+00 0.  1.
<mgrwt>
<rscale>  2 0.13848758E+03</rscale>
<asrwt>0</asrwt>
<pdfrwt beam="1">  1       21 0.65646568E-02 0.13848758E+03</pdfrwt>
<pdfrwt beam="2">  1       21 0.90973738E-01 0.13848758E+03</pdfrwt>
<totfact> 0.17626832E+05</totfact>
</mgrwt>
</event>
<event>
 5    1  0.1993942E+000  0.1252765E+03  0.7546771E-02  0.1234638E+00
         21   -1    0    0  503  502  0.00000000000E+00  0.00000000000E+00  0.23463182970E+03  0.23463182970E+03  0.00000000000E+00 0.  1.
         21   -1    0    0  501  503 -0.00000000000E+00 -0.00000000000E+00 -0.34783906924E+03  0.34783906924E+03  0.00000000000E+00 0. -1.
         24    1    1    2    0    0  0.81352831851E+02  0.56191769658E+02  0.16514623263E+03  0.20860559037E+03  0.80419002446E+02 0.  1.
          1    1    1    2  501    0 -0.18749828028E+02  0.18026457900E+02 -0.27550321797E+03  0.27672826446E+03  0.00000000000E+00 0. -1.
         -2    1    1    2    0  502 -0.62603003823E+02 -0.74218227557E+02 -0.28502541931E+01  0.97137044110E+02  0.00000000000E+00 0.  1.
<mgrwt>
<rscale>  2 0.12527655E+03</rscale>
<asrwt>0</asrwt>
<pdfrwt beam="1">  1       21 0.36097205E-01 0.12527655E+03</pdfrwt>
<pdfrwt beam="2">  1       21 0.53513703E-01 0.12527655E+03</pdfrwt>
<totfact> 0.25497641E+04</totfact>
</mgrwt>
</event>
<event>
 5    1  0.1624116E+000  0.9765278E+02  0.7546771E-02  0.1285311E+00
         21   -1    0    0  503  502  0.00000000000E+00  0.00000000000E+00  0.21189562196E+03  0.21189562196E+03  0.00000000000E+00 0. -1.
         21   -1    0    0  501  503 -0.00000000000E+00 -0.00000000000E+00 -0.46695494445E+02  0.46695494445E+02  0.00000000000E+00 0.  1.
         24    1    1    2    0    0  0.13952987952E+02 -0.50592524552E+02  0.58006598010E+02  0.11218855013E+03  0.80419002446E+02 0.  0.
          1    1    1    2  501    0  0.67216524935E+01 -0.22413603195E+02  0.19680443995E+02  0.30575645476E+02  0.00000000000E+00 0. -1.
         -2    1    1    2    0  502 -0.20674640445E+02  0.73006127747E+02  0.87513085507E+02  0.11582692080E+03  0.00000000000E+00 0.  1.
<mgrwt>
<rscale>  2 0.97652784E+02</rscale>
<asrwt>0</asrwt>
<pdfrwt beam="1">  1       21 0.32599326E-01 0.97652784E+02</pdfrwt>
<pdfrwt beam="2">  1       21 0.71839223E-02 0.97652784E+02</pdfrwt>
<totfact> 0.13013198E+06</totfact>
</mgrwt>
</event>
<event>
 5    1  0.1624116E+000  0.6447608E+02  0.7546771E-02  0.1379953E+00
         21   -1    0    0  501  502  0.00000000000E+00  0.00000000000E+00  0.95583670929E+03  0.95583670929E+03  0.00000000000E+00 0. -1.
         21   -1    0    0  502  503 -0.00000000000E+00 -0.00000000000E+00 -0.16695060858E+02  0.16695060858E+02  0.00000000000E+00 0. -1.
         24    1    1    2    0    0 -0.61190919982E+01  0.61804704669E+00  0.11547975399E+03  0.14085671729E+03  0.80419002446E+02 0. -1.
          1    1    1    2  501    0  0.83353220528E+01  0.23058226232E+02  0.79043664971E+03  0.79081682873E+03  0.00000000000E+00 0. -1.
         -2    1    1    2    0  503 -0.22162300546E+01 -0.23676273279E+02  0.33225244732E+02  0.40858224136E+02  0.00000000000E+00 0.  1.
<mgrwt>
<rscale>  2 0.64476080E+02</rscale>
<asrwt>0</asrwt>
<pdfrwt beam="1">  1       21 0.14705176E+00 0.64476080E+02</pdfrwt>
<pdfrwt beam="2">  1       21 0.25684716E-02 0.64476080E+02</pdfrwt>
<totfact> 0.27050451E+05</totfact>
</mgrwt>
</event>
<event>
 5    1  0.1624116E+000  0.8070747E+02  0.7546771E-02  0.1327056E+00
         21   -1    0    0  503  502  0.00000000000E+00  0.00000000000E+00  0.63223239367E+01  0.63223239367E+01  0.00000000000E+00 0.  1.
         21   -1    0    0  501  503 -0.00000000000E+00 -0.00000000000E+00 -0.15933735876E+04  0.15933735876E+04  0.00000000000E+00 0. -1.
         24    1    1    2    0    0  0.87170662564E+01 -0.44534786431E+02 -0.57331511979E+03  0.58070369121E+03  0.80419002446E+02 0.  1.
          1    1    1    2  501    0 -0.30719488452E+02  0.24057820246E+02 -0.91383141049E+03  0.91466404350E+03  0.00000000000E+00 0. -1.
         -2    1    1    2    0  502  0.22002422195E+02  0.20476966185E+02 -0.99904733342E+02  0.10432817678E+03  0.00000000000E+00 0.  1.
<mgrwt>
<rscale>  2 0.80707467E+02</rscale>
<asrwt>0</asrwt>
<pdfrwt beam="1">  1       21 0.97266669E-03 0.80707467E+02</pdfrwt>
<pdfrwt beam="2">  1       21 0.24513403E+00 0.80707467E+02</pdfrwt>
<totfact> 0.30126231E+05</totfact>
</mgrwt>
</event>
<event>
 5    1  0.1624116E+000  0.6445713E+02  0.7546771E-02  0.1380025E+00
         21   -1    0    0  503  502  0.00000000000E+00  0.00000000000E+00  0.29742261755E+01  0.29742261755E+01  0.00000000000E+00 0. -1.
         21   -1    0    0  501  503 -0.00000000000E+00 -0.00000000000E+00 -0.18667598277E+04  0.18667598277E+04  0.00000000000E+00 0.  1.
         24    1    1    2    0    0  0.24676164621E+01  0.10801032091E+02 -0.95676847911E+03  0.96020617057E+03  0.80419002446E+02 0. -1.
          1    1    1    2  501    0  0.21526867262E+02 -0.99783584887E+01 -0.77386047570E+03  0.77422413389E+03  0.00000000000E+00 0. -1.
         -2    1    1    2    0  502 -0.23994483724E+02 -0.82267360256E+00 -0.13315664670E+03  0.13530374940E+03  0.00000000000E+00 0.  1.
<mgrwt>
<rscale>  2 0.64457131E+02</rscale>
<asrwt>0</asrwt>
<pdfrwt beam="1">  1       21 0.45757296E-03 0.64457131E+02</pdfrwt>
<pdfrwt beam="2">  1       21 0.28719401E+00 0.64457131E+02</pdfrwt>
<totfact> 0.57706951E+05</totfact>
</mgrwt>
</event>
<event>
 5    1  0.1624116E+000  0.9799220E+02  0.7546771E-02  0.1284576E+00
         21   -1    0    0  503  502  0.00000000000E+00  0.00000000000E+00  0.60558964390E+03  0.60558964390E+03  0.00000000000E+00 0.  1.
         21   -1    0    0  501  503 -0.00000000000E+00 -0.00000000000E+00 -0.18595202185E+02  0.18595202185E+02  0.00000000000E+00 0.  1.
         24    1    1    2    0    0  0.14176778118E+01  0.77440867268E+02  0.41968639030E+03  0.43428444584E+03  0.80419002446E+02 0.  1.
          1    1    1    2  501    0  0.15790111684E+02 -0.43516502308E+02  0.58287547806E+02  0.74434211417E+02  0.00000000000E+00 0. -1.
         -2    1    1    2    0  502 -0.17207789496E+02 -0.33924364961E+02  0.10902050360E+03  0.11546618883E+03  0.00000000000E+00 0.  1.
<mgrwt>
<rscale>  2 0.97992204E+02</rscale>
<asrwt>0</asrwt>
<pdfrwt beam="1">  1       21 0.93167623E-01 0.97992204E+02</pdfrwt>
<pdfrwt beam="2">  1       21 0.28608008E-02 0.97992204E+02</pdfrwt>
<totfact> 0.67068887E+05</totfact>
</mgrwt>
</event>
<event>
 5    1  0.1624116E+000  0.1200461E+03  0.7546771E-02  0.1243021E+00
         21   -1    0    0  503  502  0.00000000000E+00  0.00000000000E+00  0.21571248058E+04  0.21571248058E+04  0.00000000000E+00 0.  1.
         21   -1    0    0  501  503 -0.00000000000E+00 -0.00000000000E+00 -0.44114894991E+02  0.44114894991E+02  0.00000000000E+00 0. -1.
         24    1    1    2    0    0 -0.26879824892E+01 -0.83268799256E+02  0.25152112091E+03  0.27689530223E+03  0.80419002446E+02 0. -1.
          1    1    1    2  501    0 -0.34064095639E+02  0.80537622598E+02  0.29945743318E+02  0.92430616185E+02  0.00000000000E+00 0. -1.
         -2    1    1    2    0  502  0.36752078128E+02  0.27311766575E+01  0.18315430466E+04  0.18319137824E+04  0.00000000000E+00 0.  1.
<mgrwt>
<rscale>  2 0.12004608E+03</rscale>
<asrwt>0</asrwt>
<pdfrwt beam="1">  1       21 0.33186527E+00 0.12004608E+03</pdfrwt>
<pdfrwt beam="2">  1       21 0.67869086E-02 0.12004608E+03</pdfrwt>
<totfact> 0.39882006E+03</totfact>
</mgrwt>
</event>
<event>
 5    1  0.1624116E+000  0.8062297E+02  0.7546771E-02  0.1327293E+00
         21   -1    0    0  503  502  0.00000000000E+00  0.00000000000E+00  0.75290791231E+02  0.75290791231E+02  0.00000000000E+00 0.  1.
         21   -1    0    0  501  503 -0.00000000000E+00 -0.00000000000E+00 -0.13964967208E+03  0.13964967208E+03  0.00000000000E+00 0.  1.
         24    1    1    2    0    0 -0.28833544979E+02  0.17376771692E+02  0.23043695755E+02  0.90175126165E+02  0.80419002446E+02 0.  1.
          1    1    1    2  501    0 -0.16902669523E+02 -0.22391055617E+02 -0.70279520462E+02  0.75672125681E+02  0.00000000000E+00 0. -1.
         -2    1    1    2    0  502  0.45736214502E+02  0.50142839253E+01 -0.17123056141E+02  0.49093211464E+02  0.00000000000E+00 0.  1.
<mgrwt>
<rscale>  2 0.80622965E+02</rscale>
<asrwt>0</asrwt>
<pdfrwt beam="1">  1       21 0.11583199E-01 0.80622965E+02</pdfrwt>
<pdfrwt beam="2">  1       21 0.21484565E-01 0.80622965E+02</pdfrwt>
<totfact> 0.12470855E+06</totfact>
</mgrwt>
</event>
<event>
 5    1  0.1624116E+000  0.8213682E+02  0.7546771E-02  0.1323095E+00
         21   -1    0    0  501  502  0.00000000000E+00  0.00000000000E+00  0.18659401748E+03  0.18659401748E+03  0.00000000000E+00 0. -1.
         21   -1    0    0  502  503 -0.00000000000E+00 -0.00000000000E+00 -0.59004267865E+02  0.59004267865E+02  0.00000000000E+00 0.  1.
         24    1    1    2    0    0 -0.39271218344E+02  0.72118059992E+01 -0.86347614529E+01  0.90199854743E+02  0.80419002446E+02 0.  1.
          1    1    1    2  501    0  0.63877882333E+01  0.26580212471E+02  0.43556998944E+02  0.51424932577E+02  0.00000000000E+00 0. -1.
         -2    1    1    2    0  503  0.32883430111E+02 -0.33792018471E+02  0.92667512122E+02  0.10397349802E+03  0.00000000000E+00 0.  1.
<mgrwt>
<rscale>  2 0.82136821E+02</rscale>
<asrwt>0</asrwt>
<pdfrwt beam="1">  1       21 0.28706772E-01 0.82136821E+02</pdfrwt>
<pdfrwt beam="2">  1       21 0.90775798E-02 0.82136821E+02</pdfrwt>
<totfact> 0.11082418E+06</totfact>
</mgrwt>
</event>
<event>
 5    1  0.1624116E+000  0.8611116E+02  0.7546771E-02  0.1312552E+00
         21   -1    0    0  501  502  0.00000000000E+00  0.00000000000E+00  0.12231458709E+04  0.12231458709E+04  0.00000000000E+00 0. -1.
         21   -1    0    0  502  503 -0.00000000000E+00 -0.00000000000E+00 -0.77102685059E+02  0.77102685059E+02  0.00000000000E+00 0.  1.
         24    1    1    2    0    0  0.96633296888E+01 -0.20359665266E+02  0.13832211033E+03  0.16158006706E+03  0.80419002446E+02 0.  0.
          1    1    1    2  501    0  0.38334728416E+02  0.94807764241E+01  0.10635276699E+04  0.10642605607E+04  0.00000000000E+00 0. -1.
         -2    1    1    2    0  503 -0.47998058104E+02  0.10878888841E+02 -0.55806594351E+02  0.74407928188E+02  0.00000000000E+00 0.  1.
<mgrwt>
<rscale>  2 0.86111160E+02</rscale>
<asrwt>0</asrwt>
<pdfrwt beam="1">  1       21 0.18817627E+00 0.86111160E+02</pdfrwt>
<pdfrwt beam="2">  1       21 0.11861952E-01 0.86111160E+02</pdfrwt>
<totfact> 0.10791497E+04</totfact>
</mgrwt>
</event>
<event>
 5    1  0.1624116E+000  0.8038741E+02  0.7546771E-02  0.1327956E+00
         21   -1    0    0  503  502  0.00000000000E+00  0.00000000000E+00  0.20147597127E+03  0.20147597127E+03  0.00000000000E+00 0. -1.
         21   -1    0    0  501  503 -0.00000000000E+00 -0.00000000000E+00 -0.39637787455E+02  0.39637787455E+02  0.00000000000E+00 0.  1.
         24    1    1    2    0    0  0.26208214170E+02  0.13172930729E+02  0.47233885018E+02  0.97768361151E+02  0.80419002446E+02 0.  0.
          1    1    1    2  501    0  0.23494492040E+02 -0.94755079196E+01  0.95601599550E+01  0.27077168702E+02  0.00000000000E+00 0. -1.
         -2    1    1    2    0  502 -0.49702706210E+02 -0.36974228089E+01  0.10504413884E+03  0.11626822887E+03  0.00000000000E+00 0.  1.
<mgrwt>
<rscale>  2 0.80387412E+02</rscale>
<asrwt>0</asrwt>
<pdfrwt beam="1">  1       21 0.30996303E-01 0.80387412E+02</pdfrwt>
<pdfrwt beam="2">  1       21 0.60981213E-02 0.80387412E+02</pdfrwt>
<totfact> 0.18791896E+06</totfact>
</mgrwt>
</event>
<event>
 5    1  0.1624116E+000  0.8549425E+02  0.7546771E-02  0.1314145E+00
         21   -1    0    0  503  502  0.00000000000E+00  0.00000000000E+00  0.14220082677E+02  0.14220082677E+02  0.00000000000E+00 0.  1.
         21   -1    0    0  501  503 -0.00000000000E+00 -0.00000000000E+00 -0.76578643091E+03  0.76578643091E+03  0.00000000000E+00 0. -1.
         24    1    1    2    0    0  0.30642227083E+02  0.46759731235E+02 -0.55251351279E+03  0.56112727283E+03  0.80419002446E+02 0. -1.
          1    1    1    2  501    0  0.50311995406E+01 -0.35184068581E+02 -0.16309228970E+03  0.16692012044E+03  0.00000000000E+00 0. -1.
         -2    1    1    2    0  502 -0.35673426624E+02 -0.11575662654E+02 -0.35960545745E+02  0.51959120308E+02  0.00000000000E+00 0.  1.
<mgrwt>
<rscale>  2 0.85494245E+02</rscale>
<asrwt>0</asrwt>
<pdfrwt beam="1">  1       21 0.21877048E-02 0.85494245E+02</pdfrwt>
<pdfrwt beam="2">  1       21 0.11781331E+00 0.85494245E+02</pdfrwt>
<totfact> 0.59813816E+05</totfact>
</mgrwt>
</event>
<event>
 5    1  0.2152512E+000  0.1063867E+03  0.7546771E-02  0.1267411E+00
         21   -1    0    0  501  502  0.00000000000E+00  0.00000000000E+00  0.67263624276E+02  0.67263624276E+02  0.00000000000E+00 0. -1.
         21   -1    0    0  502  503 -0.00000000000E+00 -0.00000000000E+00 -0.61962428964E+03  0.61962428964E+03  0.00000000000E+00 0.  1.
         24    1    1    2    0    0 -0.15238817274E+02  0.24716652700E+02 -0.66126511637E+02  0.10808823233E+03  0.80419002446E+02 0.  0.
          1    1    1    2  501    0  0.61529282210E+02 -0.45505519539E+02  0.12455056003E+02  0.77535368045E+02  0.00000000000E+00 0. -1.
         -2    1    1    2    0  503 -0.46290464936E+02  0.20788866839E+02 -0.49868920973E+03  0.50126431354E+03  0.00000000000E+00 0.  1.
<mgrwt>
<rscale>  2 0.10638667E+03</rscale>
<asrwt>0</asrwt>
<pdfrwt beam="1">  1       21 0.10348250E-01 0.10638667E+03</pdfrwt>
<pdfrwt beam="2">  1       21 0.95326817E-01 0.10638667E+03</pdfrwt>
<totfact> 0.73228478E+04</totfact>
</mgrwt>
</event>
<event>
 5    1  0.1624116E+000  0.8548746E+02  0.7546771E-02  0.1314163E+00
         21   -1    0    0  503  502  0.00000000000E+00  0.00000000000E+00  0.99061168599E+02  0.99061168599E+02  0.00000000000E+00 0.  1.
         21   -1    0    0  501  503 -0.00000000000E+00 -0.00000000000E+00 -0.21431483868E+03  0.21431483868E+03  0.00000000000E+00 0.  1.
         24    1    1    2    0    0 -0.14047044732E+02  0.64944944690E+02 -0.17829763369E+03  0.20657305594E+03  0.80419002446E+02 0.  1.
          1    1    1    2  501    0  0.80707886415E+01 -0.25100685036E+02 -0.58364006231E+01  0.27004547595E+02  0.00000000000E+00 0. -1.
         -2    1    1    2    0  502  0.59762560904E+01 -0.39844259654E+02  0.68880364230E+02  0.79798403747E+02  0.00000000000E+00 0.  1.
<mgrwt>
<rscale>  2 0.85487457E+02</rscale>
<asrwt>0</asrwt>
<pdfrwt beam="1">  1       21 0.15240180E-01 0.85487457E+02</pdfrwt>
<pdfrwt beam="2">  1       21 0.32971513E-01 0.85487457E+02</pdfrwt>
<totfact> 0.34368362E+05</totfact>
</mgrwt>
</event>
<event>
 5    1  0.1624116E+000  0.9996836E+02  0.7546771E-02  0.1280363E+00
         21   -1    0    0  501  502  0.00000000000E+00  0.00000000000E+00  0.86488780537E+02  0.86488780537E+02  0.00000000000E+00 0. -1.
         21   -1    0    0  502  503 -0.00000000000E+00 -0.00000000000E+00 -0.14384550426E+03  0.14384550426E+03  0.00000000000E+00 0. -1.
         24    1    1    2    0    0  0.59620644795E+02 -0.48500271267E+02 -0.81981952889E+02  0.13818521684E+03  0.80419002446E+02 0. -1.
          1    1    1    2  501    0 -0.45663473690E+02  0.86520879008E+01  0.15086138066E+02  0.48863104856E+02  0.00000000000E+00 0. -1.
         -2    1    1    2    0  503 -0.13957171105E+02  0.39848183366E+02  0.95390910979E+01  0.43285963104E+02  0.00000000000E+00 0.  1.
<mgrwt>
<rscale>  2 0.99968358E+02</rscale>
<asrwt>0</asrwt>
<pdfrwt beam="1">  1       21 0.13305967E-01 0.99968358E+02</pdfrwt>
<pdfrwt beam="2">  1       21 0.22130077E-01 0.99968358E+02</pdfrwt>
<totfact> 0.92957271E+05</totfact>
</mgrwt>
</event>
<event>
 5    1  0.1624116E+000  0.9405148E+02  0.7546771E-02  0.1293327E+00
         21   -1    0    0  501  502  0.00000000000E+00  0.00000000000E+00  0.24226798642E+02  0.24226798642E+02  0.00000000000E+00 0.  1.
         21   -1    0    0  502  503 -0.00000000000E+00 -0.00000000000E+00 -0.48058378451E+03  0.48058378451E+03  0.00000000000E+00 0. -1.
         24    1    1    2    0    0  0.21013106025E+02 -0.35599417652E+02 -0.23258604659E+03  0.24954429303E+03  0.80419002446E+02 0. -1.
          1    1    1    2  501    0 -0.22106437935E+02 -0.27099657992E+02 -0.16410831630E+02  0.38631612136E+02  0.00000000000E+00 0. -1.
         -2    1    1    2    0  503  0.10933319106E+01  0.62699075644E+02 -0.20736010765E+03  0.21663467799E+03  0.00000000000E+00 0.  1.
<mgrwt>
<rscale>  2 0.94051481E+02</rscale>
<asrwt>0</asrwt>
<pdfrwt beam="1">  1       21 0.37271995E-02 0.94051481E+02</pdfrwt>
<pdfrwt beam="2">  1       21 0.73935973E-01 0.94051481E+02</pdfrwt>
<totfact> 0.72893493E+05</totfact>
</mgrwt>
</event>
<event>
 5    1  0.1624116E+000  0.1147634E+03  0.7546771E-02  0.1251995E+00
         21   -1    0    0  501  502  0.00000000000E+00  0.00000000000E+00  0.29652174033E+02  0.29652174033E+02  0.00000000000E+00 0.  1.
         21   -1    0    0  502  503 -0.00000000000E+00 -0.00000000000E+00 -0.10949421441E+04  0.10949421441E+04  0.00000000000E+00 0. -1.
         24    1    1    2    0    0 -0.29597822016E+02  0.39842228191E+02 -0.82784222320E+03  0.83321869679E+03  0.80419002446E+02 0. -1.
          1    1    1    2  501    0  0.22431603400E+02  0.44788158951E+02 -0.13523226369E+02  0.51884811503E+02  0.00000000000E+00 0. -1.
         -2    1    1    2    0  503  0.71662186164E+01 -0.84630387142E+02 -0.22392452051E+03  0.23949080985E+03  0.00000000000E+00 0.  1.
<mgrwt>
<rscale>  2 0.11476342E+03</rscale>
<asrwt>0</asrwt>
<pdfrwt beam="1">  1       21 0.45618729E-02 0.11476342E+03</pdfrwt>
<pdfrwt beam="2">  1       21 0.16845264E+00 0.11476342E+03</pdfrwt>
<totfact> 0.72073303E+04</totfact>
</mgrwt>
</event>
<event>
 5    1  0.1624116E+000  0.8141688E+02  0.7546771E-02  0.1325078E+00
         21   -1    0    0  503  502  0.00000000000E+00  0.00000000000E+00  0.60092834196E+01  0.60092834196E+01  0.00000000000E+00 0.  1.
         21   -1    0    0  501  503 -0.00000000000E+00 -0.00000000000E+00 -0.12762160074E+04  0.12762160074E+04  0.00000000000E+00 0. -1.
         24    1    1    2    0    0 -0.40030213512E+02 -0.94720811326E+00 -0.91074462192E+03  0.91516462864E+03  0.80419002446E+02 0.  0.
          1    1    1    2  501    0  0.47886971835E+02 -0.19031030221E+02 -0.28246640753E+03  0.28712821799E+03  0.00000000000E+00 0. -1.
         -2    1    1    2    0  502 -0.78567583228E+01  0.19978238334E+02 -0.76995694484E+02  0.79932444147E+02  0.00000000000E+00 0.  1.
<mgrwt>
<rscale>  2 0.81416883E+02</rscale>
<asrwt>0</asrwt>
<pdfrwt beam="1">  1       21 0.92450446E-03 0.81416883E+02</pdfrwt>
<pdfrwt beam="2">  1       21 0.19634107E+00 0.81416883E+02</pdfrwt>
<totfact> 0.62823931E+05</totfact>
</mgrwt>
</event>
<event>
 5    1  0.1624116E+000  0.7971332E+02  0.7546771E-02  0.1329867E+00
         21   -1    0    0  501  502  0.00000000000E+00  0.00000000000E+00  0.63351956644E+03  0.63351956644E+03  0.00000000000E+00 0.  1.
         21   -1    0    0  502  503 -0.00000000000E+00 -0.00000000000E+00 -0.17684139590E+02  0.17684139590E+02  0.00000000000E+00 0.  1.
         24    1    1    2    0    0 -0.11123480018E+02 -0.27668219835E+02  0.41060503464E+03  0.41946748697E+03  0.80419002446E+02 0.  1.
          1    1    1    2  501    0 -0.92681972817E+01 -0.19872348861E+02  0.16434224262E+03  0.16579862014E+03  0.00000000000E+00 0. -1.
         -2    1    1    2    0  503  0.20391677300E+02  0.47540568696E+02  0.40888149589E+02  0.65937598924E+02  0.00000000000E+00 0.  1.
<mgrwt>
<rscale>  2 0.79713322E+02</rscale>
<asrwt>0</asrwt>
<pdfrwt beam="1">  1       21 0.97464531E-01 0.79713322E+02</pdfrwt>
<pdfrwt beam="2">  1       21 0.27206373E-02 0.79713322E+02</pdfrwt>
<totfact> 0.65649857E+05</totfact>
</mgrwt>
</event>
<event>
 5    1  0.1624116E+000  0.9766071E+02  0.7546771E-02  0.1285293E+00
         21   -1    0    0  501  502  0.00000000000E+00  0.00000000000E+00  0.27020191034E+03  0.27020191034E+03  0.00000000000E+00 0.  1.
         21   -1    0    0  502  503 -0.00000000000E+00 -0.00000000000E+00 -0.37071601912E+02  0.37071601912E+02  0.00000000000E+00 0. -1.
         24    1    1    2    0    0  0.49382797803E+02 -0.21025799611E+02  0.10224237777E+03  0.14071767741E+03  0.80419002446E+02 0.  0.
          1    1    1    2  501    0 -0.58091603458E+02  0.44772626424E+02  0.11589495254E+03  0.13715269773E+03  0.00000000000E+00 0. -1.
         -2    1    1    2    0  503  0.87088056553E+01 -0.23746826814E+02  0.14992978119E+02  0.29403137121E+02  0.00000000000E+00 0.  1.
<mgrwt>
<rscale>  2 0.97660708E+02</rscale>
<asrwt>0</asrwt>
<pdfrwt beam="1">  1       21 0.41569523E-01 0.97660708E+02</pdfrwt>
<pdfrwt beam="2">  1       21 0.57033235E-02 0.97660708E+02</pdfrwt>
<totfact> 0.11929820E+06</totfact>
</mgrwt>
</event>
<event>
 5    1  0.1624116E+000  0.8361803E+02  0.7546771E-02  0.1319087E+00
         21   -1    0    0  501  502  0.00000000000E+00  0.00000000000E+00  0.13206657532E+03  0.13206657532E+03  0.00000000000E+00 0. -1.
         21   -1    0    0  502  503 -0.00000000000E+00 -0.00000000000E+00 -0.27892327161E+03  0.27892327161E+03  0.00000000000E+00 0.  1.
         24    1    1    2    0    0 -0.16007796883E+02  0.45636522781E+02 -0.14348658006E+02  0.94931773993E+02  0.80419002446E+02 0.  1.
          1    1    1    2  501    0 -0.20710816888E+02 -0.17969218003E+02  0.87294103354E+02  0.91499132303E+02  0.00000000000E+00 0. -1.
         -2    1    1    2    0  503  0.36718613770E+02 -0.27667304778E+02 -0.21980214163E+03  0.22455894063E+03  0.00000000000E+00 0.  1.
<mgrwt>
<rscale>  2 0.83618025E+02</rscale>
<asrwt>0</asrwt>
<pdfrwt beam="1">  1       21 0.20317935E-01 0.83618025E+02</pdfrwt>
<pdfrwt beam="2">  1       21 0.42911272E-01 0.83618025E+02</pdfrwt>
<totfact> 0.12207040E+05</totfact>
</mgrwt>
</event>
<event>
 5    1  0.1624116E+000  0.1290161E+03  0.7546771E-02  0.1228923E+00
         21   -1    0    0  501  502  0.00000000000E+00  0.00000000000E+00  0.32463677801E+03  0.32463677801E+03  0.00000000000E+00 0.  1.
         21   -1    0    0  502  503 -0.00000000000E+00 -0.00000000000E+00 -0.55064055830E+02  0.55064055830E+02  0.00000000000E+00 0.  1.
         24    1    1    2    0    0 -0.84701188029E+01  0.86795122766E+02  0.75651064589E+02  0.14069625360E+03  0.80419002446E+02 0.  1.
          1    1    1    2  501    0  0.55433342955E+02 -0.22594885016E+02  0.91081183798E+02  0.10899158858E+03  0.00000000000E+00 0. -1.
         -2    1    1    2    0  503 -0.46963224152E+02 -0.64200237750E+02  0.10284047379E+03  0.13001299166E+03  0.00000000000E+00 0.  1.
<mgrwt>
<rscale>  2 0.12901606E+03</rscale>
<asrwt>0</asrwt>
<pdfrwt beam="1">  1       21 0.49944119E-01 0.12901606E+03</pdfrwt>
<pdfrwt beam="2">  1       21 0.84713934E-02 0.12901606E+03</pdfrwt>
<totfact> 0.41915342E+05</totfact>
</mgrwt>
</event>
<event>
 5    1  0.1624116E+000  0.8207784E+02  0.7546771E-02  0.1323256E+00
         21   -1    0    0  501  502  0.00000000000E+00  0.00000000000E+00  0.15078304835E+03  0.15078304835E+03  0.00000000000E+00 0. -1.
         21   -1    0    0  502  503 -0.00000000000E+00 -0.00000000000E+00 -0.14727546840E+03  0.14727546840E+03  0.00000000000E+00 0.  1.
         24    1    1    2    0    0 -0.24553922190E+02 -0.25727132241E+00 -0.17184356207E+02  0.85822370837E+02  0.80419002446E+02 0. -1.
          1    1    1    2  501    0  0.51647688130E+02  0.70826771074E+01  0.10834682235E+03  0.12023594270E+03  0.00000000000E+00 0. -1.
         -2    1    1    2    0  503 -0.27093765940E+02 -0.68254057850E+01 -0.87654886189E+02  0.92000203205E+02  0.00000000000E+00 0.  1.
<mgrwt>
<rscale>  2 0.82077837E+02</rscale>
<asrwt>0</asrwt>
<pdfrwt beam="1">  1       21 0.23197392E-01 0.82077837E+02</pdfrwt>
<pdfrwt beam="2">  1       21 0.22657764E-01 0.82077837E+02</pdfrwt>
<totfact> 0.32517707E+05</totfact>
</mgrwt>
</event>
<event>
 5    1  0.1624116E+000  0.6900523E+02  0.7546771E-02  0.1363509E+00
         21   -1    0    0  503  502  0.00000000000E+00  0.00000000000E+00  0.14542812193E+03  0.14542812193E+03  0.00000000000E+00 0.  1.
         21   -1    0    0  501  503 -0.00000000000E+00 -0.00000000000E+00 -0.84005387234E+03  0.84005387234E+03  0.00000000000E+00 0. -1.
         24    1    1    2    0    0 -0.35924821479E+02 -0.26164768866E+02 -0.64127152595E+01  0.92106062773E+02  0.80419002446E+02 0.  0.
          1    1    1    2  501    0  0.16724768843E+02  0.19760042087E+02 -0.78958189411E+03  0.79000616748E+03  0.00000000000E+00 0. -1.
         -2    1    1    2    0  502  0.19200052637E+02  0.64047267788E+01  0.10136885896E+03  0.10336976402E+03  0.00000000000E+00 0.  1.
<mgrwt>
<rscale>  2 0.69005229E+02</rscale>
<asrwt>0</asrwt>
<pdfrwt beam="1">  1       21 0.22373558E-01 0.69005229E+02</pdfrwt>
<pdfrwt beam="2">  1       21 0.12923906E+00 0.69005229E+02</pdfrwt>
<totfact> 0.93715493E+03</totfact>
</mgrwt>
</event>
<event>
 5    1  0.1624116E+000  0.8021707E+02  0.7546771E-02  0.1328437E+00
         21   -1    0    0  501  502  0.00000000000E+00  0.00000000000E+00  0.13253951664E+03  0.13253951664E+03  0.00000000000E+00 0.  1.
         21   -1    0    0  502  503 -0.00000000000E+00 -0.00000000000E+00 -0.62458546858E+02  0.62458546858E+02  0.00000000000E+00 0.  1.
         24    1    1    2    0    0 -0.31159352042E+02 -0.26491222875E+01  0.56398559564E+02  0.10308218345E+03  0.80419002446E+02 0.  1.
          1    1    1    2  501    0 -0.98656744844E+01  0.25392299087E+02  0.31583539066E+02  0.41708755986E+02  0.00000000000E+00 0. -1.
         -2    1    1    2    0  503  0.41025026527E+02 -0.22743176799E+02 -0.17901128853E+02  0.50207124062E+02  0.00000000000E+00 0.  1.
<mgrwt>
<rscale>  2 0.80217073E+02</rscale>
<asrwt>0</asrwt>
<pdfrwt beam="1">  1       21 0.20390695E-01 0.80217073E+02</pdfrwt>
<pdfrwt beam="2">  1       21 0.96090072E-02 0.80217073E+02</pdfrwt>
<totfact> 0.18970096E+06</totfact>
</mgrwt>
</event>
<event>
 5    1  0.1624116E+000  0.8284535E+02  0.7546771E-02  0.1321165E+00
         21   -1    0    0  501  502  0.00000000000E+00  0.00000000000E+00  0.71844570433E+03  0.71844570433E+03  0.00000000000E+00 0. -1.
         21   -1    0    0  502  503 -0.00000000000E+00 -0.00000000000E+00 -0.62845906442E+02  0.62845906442E+02  0.00000000000E+00 0.  1.
         24    1    1    2    0    0 -0.56281936471E+01 -0.25993977901E+02  0.34381350903E+02  0.91414750971E+02  0.80419002446E+02 0.  0.
          1    1    1    2  501    0  0.35809014677E+02  0.34403076026E+02  0.64724453198E+03  0.64914662546E+03  0.00000000000E+00 0. -1.
         -2    1    1    2    0  503 -0.30180821029E+02 -0.84090981248E+01 -0.26026084993E+02  0.40730234339E+02  0.00000000000E+00 0.  1.
<mgrwt>
<rscale>  2 0.82845351E+02</rscale>
<asrwt>0</asrwt>
<pdfrwt beam="1">  1       21 0.11053010E+00 0.82845351E+02</pdfrwt>
<pdfrwt beam="2">  1       21 0.96686015E-02 0.82845351E+02</pdfrwt>
<totfact> 0.59328560E+04</totfact>
</mgrwt>
</event>
<event>
 5    1  0.1624116E+000  0.6649328E+02  0.7546771E-02  0.1372441E+00
         21   -1    0    0  501  502  0.00000000000E+00  0.00000000000E+00  0.34021591031E+01  0.34021591031E+01  0.00000000000E+00 0.  1.
         21   -1    0    0  502  503 -0.00000000000E+00 -0.00000000000E+00 -0.19190560122E+04  0.19190560122E+04  0.00000000000E+00 0.  1.
         24    1    1    2    0    0  0.10830093546E+02 -0.13027734821E+02 -0.72321467808E+03  0.72786928727E+03  0.80419002446E+02 0.  1.
          1    1    1    2  501    0  0.16838645436E+02  0.15677601471E+02 -0.14779812183E+03  0.14957811332E+03  0.00000000000E+00 0. -1.
         -2    1    1    2    0  503 -0.27668738981E+02 -0.26498666498E+01 -0.10446410532E+04  0.10450107707E+04  0.00000000000E+00 0.  1.
<mgrwt>
<rscale>  2 0.66493283E+02</rscale>
<asrwt>0</asrwt>
<pdfrwt beam="1">  1       21 0.52340880E-03 0.66493283E+02</pdfrwt>
<pdfrwt beam="2">  1       21 0.29523955E+00 0.66493283E+02</pdfrwt>
<totfact> 0.42487925E+05</totfact>
</mgrwt>
</event>
<event>
 5    1  0.1624116E+000  0.8589657E+02  0.7546771E-02  0.1313104E+00
         21   -1    0    0  503  502  0.00000000000E+00  0.00000000000E+00  0.32543717404E+02  0.32543717404E+02  0.00000000000E+00 0. -1.
         21   -1    0    0  501  503 -0.00000000000E+00 -0.00000000000E+00 -0.34605607540E+03  0.34605607540E+03  0.00000000000E+00 0.  1.
         24    1    1    2    0    0  0.65761448059E+02  0.29921152112E+01 -0.24882964423E+03  0.26966076579E+03  0.80419002446E+02 0.  1.
          1    1    1    2  501    0 -0.40748738530E+02  0.62011205129E+01 -0.70498014348E+02  0.81663232942E+02  0.00000000000E+00 0. -1.
         -2    1    1    2    0  502 -0.25012709529E+02 -0.91932357241E+01  0.58153005884E+01  0.27275794067E+02  0.00000000000E+00 0.  1.
<mgrwt>
<rscale>  2 0.85896568E+02</rscale>
<asrwt>0</asrwt>
<pdfrwt beam="1">  1       21 0.50067255E-02 0.85896568E+02</pdfrwt>
<pdfrwt beam="2">  1       21 0.53239399E-01 0.85896568E+02</pdfrwt>
<totfact> 0.89653359E+05</totfact>
</mgrwt>
</event>
<event>
 5    1  0.1624116E+000  0.1014921E+03  0.7546771E-02  0.1277189E+00
         21   -1    0    0  503  502  0.00000000000E+00  0.00000000000E+00  0.59524417291E+02  0.59524417291E+02  0.00000000000E+00 0.  1.
         21   -1    0    0  501  503 -0.00000000000E+00 -0.00000000000E+00 -0.24169424424E+03  0.24169424424E+03  0.00000000000E+00 0. -1.
         24    1    1    2    0    0 -0.82425457750E+01  0.17236430721E+02 -0.68069053223E+02  0.10707775710E+03  0.80419002446E+02 0.  0.
          1    1    1    2  501    0 -0.53223729579E+02 -0.24200483197E+02 -0.11848582554E+03  0.13212615044E+03  0.00000000000E+00 0. -1.
         -2    1    1    2    0  502  0.61466275354E+02  0.69640524758E+01  0.43850518107E+01  0.62014753988E+02  0.00000000000E+00 0.  1.
<mgrwt>
<rscale>  2 0.10149214E+03</rscale>
<asrwt>0</asrwt>
<pdfrwt beam="1">  1       21 0.91576026E-02 0.10149214E+03</pdfrwt>
<pdfrwt beam="2">  1       21 0.37183730E-01 0.10149214E+03</pdfrwt>
<totfact> 0.66453869E+05</totfact>
</mgrwt>
</event>
<event>
 5    1  0.1624116E+000  0.3057190E+03  0.7546771E-02  0.1082416E+00
         21   -1    0    0  501  502  0.00000000000E+00  0.00000000000E+00  0.14964021077E+04  0.14964021077E+04  0.00000000000E+00 0.  1.
         21   -1    0    0  502  503 -0.00000000000E+00 -0.00000000000E+00 -0.71041836162E+03  0.71041836162E+03  0.00000000000E+00 0.  1.
         24    1    1    2    0    0 -0.13835226740E+02 -0.24478511139E+03  0.90201587393E+03  0.93819561768E+03  0.80419002446E+02 0.  1.
          1    1    1    2  501    0 -0.19195222821E+02 -0.51670129948E+02  0.54270593131E+03  0.54549792556E+03  0.00000000000E+00 0. -1.
         -2    1    1    2    0  503  0.33030449560E+02  0.29645524134E+03 -0.65873805913E+03  0.72312692611E+03  0.00000000000E+00 0.  1.
<mgrwt>
<rscale>  2 0.30571896E+03</rscale>
<asrwt>0</asrwt>
<pdfrwt beam="1">  1       21 0.23021571E+00 0.30571896E+03</pdfrwt>
<pdfrwt beam="2">  1       21 0.10929513E+00 0.30571896E+03</pdfrwt>
<totfact> 0.50238282E+01</totfact>
</mgrwt>
</event>
<event>
 5    1  0.1624116E+000  0.6484782E+02  0.7546771E-02  0.1378545E+00
         21   -1    0    0  503  502  0.00000000000E+00  0.00000000000E+00  0.10808726081E+02  0.10808726081E+02  0.00000000000E+00 0. -1.
         21   -1    0    0  501  503 -0.00000000000E+00 -0.00000000000E+00 -0.78689087542E+03  0.78689087542E+03  0.00000000000E+00 0.  1.
         24    1    1    2    0    0  0.12860816278E+02 -0.33239709763E+00 -0.21507217855E+03  0.22997558354E+03  0.80419002446E+02 0. -1.
          1    1    1    2  501    0 -0.75364139658E+01 -0.23061618998E+02 -0.51724812962E+03  0.51781682417E+03  0.00000000000E+00 0. -1.
         -2    1    1    2    0  502 -0.53244023121E+01  0.23394016096E+02 -0.43761841172E+02  0.49907193789E+02  0.00000000000E+00 0.  1.
<mgrwt>
<rscale>  2 0.64847824E+02</rscale>
<asrwt>0</asrwt>
<pdfrwt beam="1">  1       21 0.16628807E-02 0.64847824E+02</pdfrwt>
<pdfrwt beam="2">  1       21 0.12106015E+00 0.64847824E+02</pdfrwt>
<totfact> 0.86654631E+05</totfact>
</mgrwt>
</event>
<event>
 5    1  0.1815731E+000  0.1267356E+03  0.7546771E-02  0.1232381E+00
         21   -1    0    0  503  502  0.00000000000E+00  0.00000000000E+00  0.90834679161E+03  0.90834679161E+03  0.00000000000E+00 0.  1.
         21   -1    0    0  501  503 -0.00000000000E+00 -0.00000000000E+00 -0.92536066766E+02  0.92536066766E+02  0.00000000000E+00 0. -1.
         24    1    1    2    0    0 -0.77827421958E+02 -0.65906586449E+00  0.24123692361E+03  0.26593234335E+03  0.80419002446E+02 0. -1.
          1    1    1    2  501    0  0.10819508189E+03 -0.11586110588E+02 -0.42639157131E+02  0.11686963432E+03  0.00000000000E+00 0. -1.
         -2    1    1    2    0  502 -0.30367659934E+02  0.12245176452E+02  0.61721295837E+03  0.61808088070E+03  0.00000000000E+00 0.  1.
<mgrwt>
<rscale>  2 0.12673563E+03</rscale>
<asrwt>0</asrwt>
<pdfrwt beam="1">  1       21 0.13974565E+00 0.12673563E+03</pdfrwt>
<pdfrwt beam="2">  1       21 0.14236319E-01 0.12673563E+03</pdfrwt>
<totfact> 0.16309142E+04</totfact>
</mgrwt>
</event>
<event>
 5    1  0.1624116E+000  0.1000907E+03  0.7546771E-02  0.1280105E+00
         21   -1    0    0  503  502  0.00000000000E+00  0.00000000000E+00  0.25014389909E+03  0.25014389909E+03  0.00000000000E+00 0. -1.
         21   -1    0    0  501  503 -0.00000000000E+00 -0.00000000000E+00 -0.62113055047E+02  0.62113055047E+02  0.00000000000E+00 0. -1.
         24    1    1    2    0    0 -0.10959898447E+02 -0.71286856991E+02  0.10606946247E+03  0.15139313781E+03  0.80419002446E+02 0. -1.
          1    1    1    2  501    0  0.21239929969E+02  0.11497431618E+01 -0.24824769461E+02  0.32691370623E+02  0.00000000000E+00 0. -1.
         -2    1    1    2    0  502 -0.10280031522E+02  0.70137113829E+02  0.10678615103E+03  0.12817244570E+03  0.00000000000E+00 0.  1.
<mgrwt>
<rscale>  2 0.10009068E+03</rscale>
<asrwt>0</asrwt>
<pdfrwt beam="1">  1       21 0.38483676E-01 0.10009068E+03</pdfrwt>
<pdfrwt beam="2">  1       21 0.95558548E-02 0.10009068E+03</pdfrwt>
<totfact> 0.57692450E+05</totfact>
</mgrwt>
</event>
<event>
 5    1  0.1624116E+000  0.6385329E+02  0.7546771E-02  0.1382338E+00
         21   -1    0    0  501  502  0.00000000000E+00  0.00000000000E+00  0.15510571118E+03  0.15510571118E+03  0.00000000000E+00 0. -1.
         21   -1    0    0  502  503 -0.00000000000E+00 -0.00000000000E+00 -0.29093010692E+02  0.29093010692E+02  0.00000000000E+00 0.  1.
         24    1    1    2    0    0 -0.42972955057E+01  0.71921742349E+01  0.10519515415E+03  0.13267792028E+03  0.80419002446E+02 0. -1.
          1    1    1    2  501    0 -0.19926340235E+02 -0.10298565267E+02  0.12749815309E+02  0.25800722318E+02  0.00000000000E+00 0. -1.
         -2    1    1    2    0  503  0.24223635741E+02  0.31063910316E+01  0.80677310231E+01  0.25720079269E+02  0.00000000000E+00 0.  1.
<mgrwt>
<rscale>  2 0.63853290E+02</rscale>
<asrwt>0</asrwt>
<pdfrwt beam="1">  1       21 0.23862417E-01 0.63853290E+02</pdfrwt>
<pdfrwt beam="2">  1       21 0.44758479E-02 0.63853290E+02</pdfrwt>
<totfact> 0.50546151E+06</totfact>
</mgrwt>
</event>
<event>
 5    1  0.1624116E+000  0.1066160E+03  0.7546771E-02  0.1266968E+00
         21   -1    0    0  503  502  0.00000000000E+00  0.00000000000E+00  0.22126535063E+03  0.22126535063E+03  0.00000000000E+00 0. -1.
         21   -1    0    0  501  503 -0.00000000000E+00 -0.00000000000E+00 -0.10187731523E+03  0.10187731523E+03  0.00000000000E+00 0.  1.
         24    1    1    2    0    0 -0.48828968710E+02 -0.60817026818E+01 -0.55891587040E+02  0.10960082458E+03  0.80419002446E+02 0.  1.
          1    1    1    2  501    0  0.81977166598E+02 -0.91251215772E+01  0.98020621772E+02  0.12810763435E+03  0.00000000000E+00 0. -1.
         -2    1    1    2    0  502 -0.33148197889E+02  0.15206824259E+02  0.77259000672E+02  0.85434206920E+02  0.00000000000E+00 0.  1.
<mgrwt>
<rscale>  2 0.10661601E+03</rscale>
<asrwt>0</asrwt>
<pdfrwt beam="1">  1       21 0.34040823E-01 0.10661601E+03</pdfrwt>
<pdfrwt beam="2">  1       21 0.15673433E-01 0.10661601E+03</pdfrwt>
<totfact> 0.30626754E+05</totfact>
</mgrwt>
</event>
<event>
 5    1  0.1624116E+000  0.1260775E+03  0.7546771E-02  0.1233395E+00
         21   -1    0    0  503  502  0.00000000000E+00  0.00000000000E+00  0.22979470169E+03  0.22979470169E+03  0.00000000000E+00 0.  1.
         21   -1    0    0  501  503 -0.00000000000E+00 -0.00000000000E+00 -0.14994727963E+03  0.14994727963E+03  0.00000000000E+00 0. -1.
         24    1    1    2    0    0  0.69894787084E+02 -0.39529514808E+02  0.93484555342E+02  0.14715448292E+03  0.80419002446E+02 0.  1.
          1    1    1    2  501    0 -0.86608745997E+01 -0.38420966944E+02 -0.95964565020E+02  0.10373224759E+03  0.00000000000E+00 0. -1.
         -2    1    1    2    0  502 -0.61233912485E+02  0.77950481752E+02  0.82327431744E+02  0.12885525081E+03  0.00000000000E+00 0.  1.
<mgrwt>
<rscale>  2 0.12607755E+03</rscale>
<asrwt>0</asrwt>
<pdfrwt beam="1">  1       21 0.35353031E-01 0.12607755E+03</pdfrwt>
<pdfrwt beam="2">  1       21 0.23068812E-01 0.12607755E+03</pdfrwt>
<totfact> 0.13918658E+05</totfact>
</mgrwt>
</event>
<event>
 5    1  0.1624116E+000  0.8608139E+02  0.7546771E-02  0.1312629E+00
         21   -1    0    0  503  502  0.00000000000E+00  0.00000000000E+00  0.80753217025E+02  0.80753217025E+02  0.00000000000E+00 0. -1.
         21   -1    0    0  501  503 -0.00000000000E+00 -0.00000000000E+00 -0.10697471981E+03  0.10697471981E+03  0.00000000000E+00 0.  1.
         24    1    1    2    0    0  0.39129479656E+02 -0.96872212245E+00 -0.37966265292E+02  0.97163305086E+02  0.80419002446E+02 0.  1.
          1    1    1    2  501    0  0.12666061678E+02 -0.22530849342E+02 -0.12529897517E+02  0.28723972954E+02  0.00000000000E+00 0. -1.
         -2    1    1    2    0  502 -0.51795541334E+02  0.23499571465E+02  0.24274660023E+02  0.61840658796E+02  0.00000000000E+00 0.  1.
<mgrwt>
<rscale>  2 0.86081394E+02</rscale>
<asrwt>0</asrwt>
<pdfrwt beam="1">  1       21 0.12423572E-01 0.86081394E+02</pdfrwt>
<pdfrwt beam="2">  1       21 0.16457649E-01 0.86081394E+02</pdfrwt>
<totfact> 0.17941237E+06</totfact>
</mgrwt>
</event>
<event>
 5    1  0.1624116E+000  0.7568024E+02  0.7546771E-02  0.1341777E+00
         21   -1    0    0  501  502  0.00000000000E+00  0.00000000000E+00  0.70018434140E+03  0.70018434140E+03  0.00000000000E+00 0. -1.
         21   -1    0    0  502  503 -0.00000000000E+00 -0.00000000000E+00 -0.12676459584E+02  0.12676459584E+02  0.00000000000E+00 0.  1.
         24    1    1    2    0    0  0.20747820658E+02 -0.50066989677E+02  0.59558931142E+03  0.60343269662E+03  0.80419002446E+02 0. -1.
          1    1    1    2  501    0 -0.69077907058E+01  0.22524963443E+02  0.62603314242E+02  0.66889958175E+02  0.00000000000E+00 0. -1.
         -2    1    1    2    0  503 -0.13840029952E+02  0.27542026233E+02  0.29315256161E+02  0.42538146198E+02  0.00000000000E+00 0.  1.
<mgrwt>
<rscale>  2 0.75680236E+02</rscale>
<asrwt>0</asrwt>
<pdfrwt beam="1">  1       21 0.10772064E+00 0.75680236E+02</pdfrwt>
<pdfrwt beam="2">  1       21 0.19502251E-02 0.75680236E+02</pdfrwt>
<totfact> 0.88756999E+05</totfact>
</mgrwt>
</event>
<event>
 5    1  0.1624116E+000  0.9645206E+02  0.7546771E-02  0.1287939E+00
         21   -1    0    0  503  502  0.00000000000E+00  0.00000000000E+00  0.23622750337E+02  0.23622750337E+02  0.00000000000E+00 0. -1.
         21   -1    0    0  501  503 -0.00000000000E+00 -0.00000000000E+00 -0.51754919034E+03  0.51754919034E+03  0.00000000000E+00 0. -1.
         24    1    1    2    0    0  0.18577981823E+02  0.70999727167E+02 -0.15874152407E+03  0.19248945448E+03  0.80419002446E+02 0. -1.
          1    1    1    2  501    0 -0.31736503673E+02 -0.52003822485E+02 -0.30298185800E+03  0.30904629021E+03  0.00000000000E+00 0. -1.
         -2    1    1    2    0  502  0.13158521849E+02 -0.18995904682E+02 -0.32203057928E+02  0.39636195981E+02  0.00000000000E+00 0.  1.
<mgrwt>
<rscale>  2 0.96452061E+02</rscale>
<asrwt>0</asrwt>
<pdfrwt beam="1">  1       21 0.36342691E-02 0.96452061E+02</pdfrwt>
<pdfrwt beam="2">  1       21 0.79622955E-01 0.96452061E+02</pdfrwt>
<totfact> 0.64567292E+05</totfact>
</mgrwt>
</event>
<event>
 5    1  0.2081029E+000  0.7776738E+02  0.7546771E-02  0.1335509E+00
         21   -1    0    0  501  502  0.00000000000E+00  0.00000000000E+00  0.14675113642E+03  0.14675113642E+03  0.00000000000E+00 0. -1.
         21   -1    0    0  502  503 -0.00000000000E+00 -0.00000000000E+00 -0.35004679877E+03  0.35004679877E+03  0.00000000000E+00 0.  1.
         24    1    1    2    0    0  0.34890785771E+02  0.26678003086E+01  0.78359506845E+02  0.11760915082E+03  0.80419002446E+02 0. -1.
          1    1    1    2  501    0 -0.19014118753E+02 -0.30411929244E+02  0.41274461985E+02  0.54680923222E+02  0.00000000000E+00 0. -1.
         -2    1    1    2    0  503 -0.15876667019E+02  0.27744128935E+02 -0.32292963119E+03  0.32450786115E+03  0.00000000000E+00 0.  1.
<mgrwt>
<rscale>  2 0.77767377E+02</rscale>
<asrwt>0</asrwt>
<pdfrwt beam="1">  1       21 0.22577098E-01 0.77767377E+02</pdfrwt>
<pdfrwt beam="2">  1       21 0.53853353E-01 0.77767377E+02</pdfrwt>
<totfact> 0.63748668E+04</totfact>
</mgrwt>
</event>
<event>
 5    1  0.1624116E+000  0.1052749E+03  0.7546771E-02  0.1269579E+00
         21   -1    0    0  503  502  0.00000000000E+00  0.00000000000E+00  0.10496853110E+03  0.10496853110E+03  0.00000000000E+00 0. -1.
         21   -1    0    0  501  503 -0.00000000000E+00 -0.00000000000E+00 -0.11949953079E+03  0.11949953079E+03  0.00000000000E+00 0.  1.
         24    1    1    2    0    0 -0.15584870409E+02  0.48821279425E+02 -0.18193216569E+02  0.97080454232E+02  0.80419002446E+02 0. -1.
          1    1    1    2  501    0 -0.28834749790E+02  0.18699648057E+02 -0.24050068936E+02  0.41946697710E+02  0.00000000000E+00 0. -1.
         -2    1    1    2    0  502  0.44419620199E+02 -0.67520927483E+02  0.27712285819E+02  0.85440909944E+02  0.00000000000E+00 0.  1.
<mgrwt>
<rscale>  2 0.10527490E+03</rscale>
<asrwt>0</asrwt>
<pdfrwt beam="1">  1       21 0.16149005E-01 0.10527490E+03</pdfrwt>
<pdfrwt beam="2">  1       21 0.18384543E-01 0.10527490E+03</pdfrwt>
<totfact> 0.92528287E+05</totfact>
</mgrwt>
</event>
<event>
 5    1  0.1624116E+000  0.7437689E+02  0.7546771E-02  0.1345812E+00
         21   -1    0    0  503  502  0.00000000000E+00  0.00000000000E+00  0.25488914638E+03  0.25488914638E+03  0.00000000000E+00 0. -1.
         21   -1    0    0  501  503 -0.00000000000E+00 -0.00000000000E+00 -0.60136498144E+02  0.60136498144E+02  0.00000000000E+00 0. -1.
         24    1    1    2    0    0  0.54820998188E+01 -0.16588917410E+02  0.92869685283E+02  0.12408561560E+03  0.80419002446E+02 0. -1.
          1    1    1    2  501    0 -0.60030881875E+01  0.41304139281E+02 -0.33375234171E+02  0.53441325260E+02  0.00000000000E+00 0. -1.
         -2    1    1    2    0  502  0.52098836870E+00 -0.24715221870E+02  0.13525819713E+03  0.13749870367E+03  0.00000000000E+00 0.  1.
<mgrwt>
<rscale>  2 0.74376890E+02</rscale>
<asrwt>0</asrwt>
<pdfrwt beam="1">  1       21 0.39213714E-01 0.74376890E+02</pdfrwt>
<pdfrwt beam="2">  1       21 0.92517691E-02 0.74376890E+02</pdfrwt>
<totfact> 0.58715594E+05</totfact>
</mgrwt>
</event>
<event>
 5    1  0.1624116E+000  0.2023071E+03  0.7546771E-02  0.1147807E+00
         21   -1    0    0  501  502  0.00000000000E+00  0.00000000000E+00  0.22582566811E+03  0.22582566811E+03  0.00000000000E+00 0. -1.
         21   -1    0    0  502  503 -0.00000000000E+00 -0.00000000000E+00 -0.26567891998E+03  0.26567891998E+03  0.00000000000E+00 0.  1.
         24    1    1    2    0    0 -0.14836582144E+02 -0.10133397354E+03  0.10615450369E+02  0.13064686029E+03  0.80419002446E+02 0. -1.
          1    1    1    2  501    0  0.71486821836E+02  0.17056759280E+03  0.80949185120E+02  0.20188224286E+03  0.00000000000E+00 0. -1.
         -2    1    1    2    0  503 -0.56650239693E+02 -0.69233619259E+02 -0.13141788736E+03  0.15897548494E+03  0.00000000000E+00 0.  1.
<mgrwt>
<rscale>  2 0.20230708E+03</rscale>
<asrwt>0</asrwt>
<pdfrwt beam="1">  1       21 0.34742410E-01 0.20230708E+03</pdfrwt>
<pdfrwt beam="2">  1       21 0.40873680E-01 0.20230708E+03</pdfrwt>
<totfact> 0.45822377E+04</totfact>
</mgrwt>
</event>
<event>
 5    1  0.1624116E+000  0.8563183E+02  0.7546771E-02  0.1313788E+00
         21   -1    0    0  501  502  0.00000000000E+00  0.00000000000E+00  0.22951571483E+04  0.22951571483E+04  0.00000000000E+00 0.  1.
         21   -1    0    0  502  503 -0.00000000000E+00 -0.00000000000E+00 -0.42983345997E+01  0.42983345997E+01  0.00000000000E+00 0. -1.
         24    1    1    2    0    0  0.10264691312E+01 -0.14685601768E+02  0.84738835006E+03  0.85132305989E+03  0.80419002446E+02 0.  0.
          1    1    1    2  501    0 -0.40272893365E+02 -0.12030815045E+02  0.11563128220E+04  0.11570764836E+04  0.00000000000E+00 0. -1.
         -2    1    1    2    0  503  0.39246424234E+02  0.26716416813E+02  0.28715764167E+03  0.29105593949E+03  0.00000000000E+00 0.  1.
<mgrwt>
<rscale>  2 0.85631831E+02</rscale>
<asrwt>0</asrwt>
<pdfrwt beam="1">  1       21 0.35310012E+00 0.85631831E+02</pdfrwt>
<pdfrwt beam="2">  1       21 0.66128408E-03 0.85631831E+02</pdfrwt>
<totfact> 0.13848423E+05</totfact>
</mgrwt>
</event>
<event>
 5    1  0.1624116E+000  0.9252044E+02  0.7546771E-02  0.1296860E+00
         21   -1    0    0  501  502  0.00000000000E+00  0.00000000000E+00  0.19551761035E+03  0.19551761035E+03  0.00000000000E+00 0. -1.
         21   -1    0    0  502  503 -0.00000000000E+00 -0.00000000000E+00 -0.55440652163E+02  0.55440652163E+02  0.00000000000E+00 0. -1.
         24    1    1    2    0    0 -0.44206152910E+02  0.35983211665E+02  0.19288773945E+02  0.10044027196E+03  0.80419002446E+02 0. -1.
          1    1    1    2  501    0  0.54711986613E+02 -0.64099297231E+01  0.95352940078E+02  0.11012116899E+03  0.00000000000E+00 0. -1.
         -2    1    1    2    0  503 -0.10505833703E+02 -0.29573281942E+02  0.25435244164E+02  0.40396821562E+02  0.00000000000E+00 0.  1.
<mgrwt>
<rscale>  2 0.92520437E+02</rscale>
<asrwt>0</asrwt>
<pdfrwt beam="1">  1       21 0.30079632E-01 0.92520437E+02</pdfrwt>
<pdfrwt beam="2">  1       21 0.85293312E-02 0.92520437E+02</pdfrwt>
<totfact> 0.11316106E+06</totfact>
</mgrwt>
</event>
<event>
 5    1  0.1624116E+000  0.8102492E+02  0.7546771E-02  0.1326168E+00
         21   -1    0    0  503  502  0.00000000000E+00  0.00000000000E+00  0.13134696376E+04  0.13134696376E+04  0.00000000000E+00 0.  1.
         21   -1    0    0  501  503 -0.00000000000E+00 -0.00000000000E+00 -0.35955939625E+02  0.35955939625E+02  0.00000000000E+00 0. -1.
         24    1    1    2    0    0 -0.35106896680E+02 -0.85722978532E+01  0.92964788575E+02  0.12812355893E+03  0.80419002446E+02 0.  0.
          1    1    1    2  501    0  0.35613922829E+02  0.33534114470E+02  0.14547819706E+02  0.51034570546E+02  0.00000000000E+00 0. -1.
         -2    1    1    2    0  502 -0.50702614921E+00 -0.24961816617E+02  0.11700010897E+04  0.11702674477E+04  0.00000000000E+00 0.  1.
<mgrwt>
<rscale>  2 0.81024922E+02</rscale>
<asrwt>0</asrwt>
<pdfrwt beam="1">  1       21 0.20207222E+00 0.81024922E+02</pdfrwt>
<pdfrwt beam="2">  1       21 0.55316840E-02 0.81024922E+02</pdfrwt>
<totfact> 0.32775952E+04</totfact>
</mgrwt>
</event>
<event>
 5    1  0.1624116E+000  0.6603301E+02  0.7546771E-02  0.1374127E+00
         21   -1    0    0  503  502  0.00000000000E+00  0.00000000000E+00  0.43481340285E+03  0.43481340285E+03  0.00000000000E+00 0. -1.
         21   -1    0    0  501  503 -0.00000000000E+00 -0.00000000000E+00 -0.16222852843E+02  0.16222852843E+02  0.00000000000E+00 0. -1.
         24    1    1    2    0    0  0.71952834719E+01 -0.27481317678E+02  0.31735682130E+03  0.32861765459E+03  0.80419002446E+02 0. -1.
          1    1    1    2  501    0  0.12536976258E+02  0.23517650788E+02  0.91754182295E+01  0.28185882494E+02  0.00000000000E+00 0. -1.
         -2    1    1    2    0  502 -0.19732259730E+02  0.39636668900E+01  0.92058310479E+02  0.94232718615E+02  0.00000000000E+00 0.  1.
<mgrwt>
<rscale>  2 0.66033013E+02</rscale>
<asrwt>0</asrwt>
<pdfrwt beam="1">  1       21 0.66894361E-01 0.66033013E+02</pdfrwt>
<pdfrwt beam="2">  1       21 0.24958238E-02 0.66033013E+02</pdfrwt>
<totfact> 0.17185836E+06</totfact>
</mgrwt>
</event>
<event>
 5    1  0.1624116E+000  0.8463528E+02  0.7546771E-02  0.1316389E+00
         21   -1    0    0  503  502  0.00000000000E+00  0.00000000000E+00  0.98263391205E+02  0.98263391205E+02  0.00000000000E+00 0.  1.
         21   -1    0    0  501  503 -0.00000000000E+00 -0.00000000000E+00 -0.19807834169E+03  0.19807834169E+03  0.00000000000E+00 0. -1.
         24    1    1    2    0    0 -0.36202734118E+02  0.44183311171E+02  0.43280410576E+02  0.10771821033E+03  0.80419002446E+02 0.  1.
          1    1    1    2  501    0  0.23025365802E+02  0.15094349187E+01 -0.13898926489E+03  0.14089166625E+03  0.00000000000E+00 0. -1.
         -2    1    1    2    0  502  0.13177368316E+02 -0.45692746090E+02 -0.41060961692E+01  0.47731856310E+02  0.00000000000E+00 0.  1.
<mgrwt>
<rscale>  2 0.84635282E+02</rscale>
<asrwt>0</asrwt>
<pdfrwt beam="1">  1       21 0.15117445E-01 0.84635282E+02</pdfrwt>
<pdfrwt beam="2">  1       21 0.30473591E-01 0.84635282E+02</pdfrwt>
<totfact> 0.40559552E+05</totfact>
</mgrwt>
</event>
<event>
 5    1  0.1624116E+000  0.7653355E+02  0.7546771E-02  0.1339187E+00
         21   -1    0    0  501  502  0.00000000000E+00  0.00000000000E+00  0.90681717100E+02  0.90681717100E+02  0.00000000000E+00 0. -1.
         21   -1    0    0  502  503 -0.00000000000E+00 -0.00000000000E+00 -0.81961772315E+02  0.81961772315E+02  0.00000000000E+00 0. -1.
         24    1    1    2    0    0 -0.12674971269E+02  0.30930694584E+02  0.18542212905E+02  0.89041520528E+02  0.80419002446E+02 0.  1.
          1    1    1    2  501    0  0.34571456223E+02 -0.10761643532E+02  0.20083614978E+02  0.41404711658E+02  0.00000000000E+00 0. -1.
         -2    1    1    2    0  503 -0.21896484955E+02 -0.20169051053E+02 -0.29905883098E+02  0.42197257229E+02  0.00000000000E+00 0.  1.
<mgrwt>
<rscale>  2 0.76533548E+02</rscale>
<asrwt>0</asrwt>
<pdfrwt beam="1">  1       21 0.13951034E-01 0.76533548E+02</pdfrwt>
<pdfrwt beam="2">  1       21 0.12609503E-01 0.76533548E+02</pdfrwt>
<totfact> 0.23342765E+06</totfact>
</mgrwt>
</event>
<event>
 5    1  0.1624116E+000  0.2334150E+03  0.7546771E-02  0.1124259E+00
         21   -1    0    0  503  502  0.00000000000E+00  0.00000000000E+00  0.21775166135E+04  0.21775166135E+04  0.00000000000E+00 0. -1.
         21   -1    0    0  501  503 -0.00000000000E+00 -0.00000000000E+00 -0.62609738334E+02  0.62609738334E+02  0.00000000000E+00 0. -1.
         24    1    1    2    0    0 -0.11640117650E+03 -0.18269913623E+03  0.57641191804E+03  0.62100412517E+03  0.80419002446E+02 0. -1.
          1    1    1    2  501    0  0.86928640728E+02  0.18676454709E+03  0.22412967009E+03  0.30442025826E+03  0.00000000000E+00 0. -1.
         -2    1    1    2    0  502  0.29472535770E+02 -0.40654108613E+01  0.13143652871E+04  0.13147019684E+04  0.00000000000E+00 0.  1.
<mgrwt>
<rscale>  2 0.23341497E+03</rscale>
<asrwt>0</asrwt>
<pdfrwt beam="1">  1       21 0.33500250E+00 0.23341497E+03</pdfrwt>
<pdfrwt beam="2">  1       21 0.96322691E-02 0.23341497E+03</pdfrwt>
<totfact> 0.17640743E+03</totfact>
</mgrwt>
</event>
<event>
 5    1  0.1624116E+000  0.9231378E+02  0.7546771E-02  0.1297343E+00
         21   -1    0    0  501  502  0.00000000000E+00  0.00000000000E+00  0.72270189335E+01  0.72270189335E+01  0.00000000000E+00 0.  1.
         21   -1    0    0  502  503 -0.00000000000E+00 -0.00000000000E+00 -0.15921360103E+04  0.15921360103E+04  0.00000000000E+00 0.  1.
         24    1    1    2    0    0  0.61431765850E+02  0.42671938791E+02 -0.54647952243E+03  0.55740635142E+03  0.80419002446E+02 0.  1.
          1    1    1    2  501    0 -0.24794405603E+02 -0.16861489757E+02 -0.19065235745E+03  0.19299583879E+03  0.00000000000E+00 0. -1.
         -2    1    1    2    0  503 -0.36637360248E+02 -0.25810449034E+02 -0.84777711146E+03  0.84896083900E+03  0.00000000000E+00 0.  1.
<mgrwt>
<rscale>  2 0.92313782E+02</rscale>
<asrwt>0</asrwt>
<pdfrwt beam="1">  1       21 0.11118486E-02 0.92313782E+02</pdfrwt>
<pdfrwt beam="2">  1       21 0.24494410E+00 0.92313782E+02</pdfrwt>
<totfact> 0.24223310E+05</totfact>
</mgrwt>
</event>
<event>
 5    1  0.1624116E+000  0.3671903E+03  0.7546771E-02  0.1055773E+00
         21   -1    0    0  501  502  0.00000000000E+00  0.00000000000E+00  0.44818496322E+03  0.44818496322E+03  0.00000000000E+00 0. -1.
         21   -1    0    0  502  503 -0.00000000000E+00 -0.00000000000E+00 -0.13370529366E+04  0.13370529366E+04  0.00000000000E+00 0.  1.
         24    1    1    2    0    0  0.52633280386E+02 -0.15458108502E+03 -0.32414672543E+03  0.37175783732E+03  0.80419002446E+02 0.  1.
          1    1    1    2  501    0  0.21245213078E+03 -0.49105711971E+02  0.36517157554E+03  0.42532053607E+03  0.00000000000E+00 0. -1.
         -2    1    1    2    0  503 -0.26508541117E+03  0.20368679699E+03 -0.92989282354E+03  0.98815952647E+03  0.00000000000E+00 0.  1.
<mgrwt>
<rscale>  2 0.36719033E+03</rscale>
<asrwt>0</asrwt>
<pdfrwt beam="1">  1       21 0.68951534E-01 0.36719033E+03</pdfrwt>
<pdfrwt beam="2">  1       21 0.20570045E+00 0.36719033E+03</pdfrwt>
<totfact> 0.20055809E+02</totfact>
</mgrwt>
</event>
<event>
 5    1  0.1624116E+000  0.1008364E+03  0.7546771E-02  0.1278547E+00
         21   -1    0    0  503  502  0.00000000000E+00  0.00000000000E+00  0.12862707769E+03  0.12862707769E+03  0.00000000000E+00 0.  1.
         21   -1    0    0  501  503 -0.00000000000E+00 -0.00000000000E+00 -0.21267458521E+03  0.21267458521E+03  0.00000000000E+00 0.  1.
         24    1    1    2    0    0 -0.17545734766E+02 -0.39192791940E+02 -0.63117028353E+02  0.11088238350E+03  0.80419002446E+02 0.  1.
          1    1    1    2  501    0 -0.29265098503E+02 -0.19699212542E+02 -0.10901533426E+03  0.11458118549E+03  0.00000000000E+00 0. -1.
         -2    1    1    2    0  502  0.46810833269E+02  0.58892004482E+02  0.88084855096E+02  0.11583809391E+03  0.00000000000E+00 0.  1.
<mgrwt>
<rscale>  2 0.10083641E+03</rscale>
<asrwt>0</asrwt>
<pdfrwt beam="1">  1       21 0.19788781E-01 0.10083641E+03</pdfrwt>
<pdfrwt beam="2">  1       21 0.32719167E-01 0.10083641E+03</pdfrwt>
<totfact> 0.21680948E+05</totfact>
</mgrwt>
</event>
<event>
 5    1  0.1624116E+000  0.7723878E+02  0.7546771E-02  0.1337075E+00
         21   -1    0    0  503  502  0.00000000000E+00  0.00000000000E+00  0.23478322798E+02  0.23478322798E+02  0.00000000000E+00 0.  1.
         21   -1    0    0  501  503 -0.00000000000E+00 -0.00000000000E+00 -0.74458517280E+03  0.74458517280E+03  0.00000000000E+00 0. -1.
         24    1    1    2    0    0  0.53718753573E+01  0.12645264949E+02 -0.17492159695E+03  0.19301176338E+03  0.80419002446E+02 0.  1.
          1    1    1    2  501    0  0.22475885193E+02 -0.31910415873E+02 -0.53903076199E+03  0.54044204354E+03  0.00000000000E+00 0. -1.
         -2    1    1    2    0  502 -0.27847760551E+02  0.19265150924E+02 -0.71544910662E+01  0.34609688676E+02  0.00000000000E+00 0.  1.
<mgrwt>
<rscale>  2 0.77238782E+02</rscale>
<asrwt>0</asrwt>
<pdfrwt beam="1">  1       21 0.36120492E-02 0.77238782E+02</pdfrwt>
<pdfrwt beam="2">  1       21 0.11455158E+00 0.77238782E+02</pdfrwt>
<totfact> 0.28464114E+05</totfact>
</mgrwt>
</event>
<event>
 5    1  0.1624116E+000  0.9433718E+02  0.7546771E-02  0.1292676E+00
         21   -1    0    0  501  502  0.00000000000E+00  0.00000000000E+00  0.59963505675E+02  0.59963505675E+02  0.00000000000E+00 0. -1.
         21   -1    0    0  502  503 -0.00000000000E+00 -0.00000000000E+00 -0.17836796179E+03  0.17836796179E+03  0.00000000000E+00 0.  1.
         24    1    1    2    0    0 -0.21186051420E+02 -0.17215521085E+02 -0.26650238496E+02  0.89009404600E+02  0.80419002446E+02 0.  0.
          1    1    1    2  501    0 -0.38874681739E+02 -0.60426341374E+01 -0.27215473734E+01  0.39435531285E+02  0.00000000000E+00 0. -1.
         -2    1    1    2    0  503  0.60060733159E+02  0.23258155223E+02 -0.89032670249E+02  0.10988653158E+03  0.00000000000E+00 0.  1.
<mgrwt>
<rscale>  2 0.94337184E+02</rscale>
<asrwt>0</asrwt>
<pdfrwt beam="1">  1       21 0.92251548E-02 0.94337184E+02</pdfrwt>
<pdfrwt beam="2">  1       21 0.27441225E-01 0.94337184E+02</pdfrwt>
<totfact> 0.11778784E+06</totfact>
</mgrwt>
</event>
<event>
 5    1  0.1624116E+000  0.1023549E+03  0.7546771E-02  0.1275420E+00
         21   -1    0    0  503  502  0.00000000000E+00  0.00000000000E+00  0.55080915962E+02  0.55080915962E+02  0.00000000000E+00 0.  1.
         21   -1    0    0  501  503 -0.00000000000E+00 -0.00000000000E+00 -0.47921267481E+03  0.47921267481E+03  0.00000000000E+00 0.  1.
         24    1    1    2    0    0  0.90982278111E+01 -0.73927857876E+02 -0.53389470725E+02  0.12192521256E+03  0.80419002446E+02 0.  1.
          1    1    1    2  501    0 -0.21053937056E+02  0.87654323220E+00 -0.32429668389E+03  0.32498057753E+03  0.00000000000E+00 0. -1.
         -2    1    1    2    0  502  0.11955709245E+02  0.73051314644E+02 -0.46445604239E+02  0.87387800681E+02  0.00000000000E+00 0.  1.
<mgrwt>
<rscale>  2 0.10235490E+03</rscale>
<asrwt>0</asrwt>
<pdfrwt beam="1">  1       21 0.84739873E-02 0.10235490E+03</pdfrwt>
<pdfrwt beam="2">  1       21 0.73725025E-01 0.10235490E+03</pdfrwt>
<totfact> 0.18443729E+05</totfact>
</mgrwt>
</event>
<event>
 5    1  0.1624116E+000  0.9382861E+02  0.7546771E-02  0.1293836E+00
         21   -1    0    0  501  502  0.00000000000E+00  0.00000000000E+00  0.32409623648E+03  0.32409623648E+03  0.00000000000E+00 0. -1.
         21   -1    0    0  502  503 -0.00000000000E+00 -0.00000000000E+00 -0.36011546838E+02  0.36011546838E+02  0.00000000000E+00 0. -1.
         24    1    1    2    0    0  0.53178051696E+02  0.16713373484E+02  0.20761964323E+03  0.22952205612E+03  0.80419002446E+02 0.  0.
          1    1    1    2  501    0 -0.17191688073E+02 -0.42295104581E+02  0.72563885354E+02  0.85731834624E+02  0.00000000000E+00 0. -1.
         -2    1    1    2    0  503 -0.35986363623E+02  0.25581731097E+02  0.79011610520E+01  0.44853892570E+02  0.00000000000E+00 0.  1.
<mgrwt>
<rscale>  2 0.93828609E+02</rscale>
<asrwt>0</asrwt>
<pdfrwt beam="1">  1       21 0.49860957E-01 0.93828609E+02</pdfrwt>
<pdfrwt beam="2">  1       21 0.55402382E-02 0.93828609E+02</pdfrwt>
<totfact> 0.86715635E+05</totfact>
</mgrwt>
</event>
<event>
 5    1  0.1624116E+000  0.6842398E+02  0.7546771E-02  0.1365536E+00
         21   -1    0    0  503  502  0.00000000000E+00  0.00000000000E+00  0.82064925106E+03  0.82064925106E+03  0.00000000000E+00 0.  1.
         21   -1    0    0  501  503 -0.00000000000E+00 -0.00000000000E+00 -0.26551193507E+02  0.26551193507E+02  0.00000000000E+00 0. -1.
         24    1    1    2    0    0  0.28986454026E+02  0.19927580925E+02  0.59484985081E+03  0.60129101437E+03  0.80419002446E+02 0.  0.
          1    1    1    2  501    0 -0.23423323848E+02  0.46437703135E+01 -0.16288357887E+02  0.28905489193E+02  0.00000000000E+00 0. -1.
         -2    1    1    2    0  502 -0.55631301783E+01 -0.24571351239E+02  0.21553656463E+03  0.21700394101E+03  0.00000000000E+00 0.  1.
<mgrwt>
<rscale>  2 0.68423981E+02</rscale>
<asrwt>0</asrwt>
<pdfrwt beam="1">  1       21 0.12625371E+00 0.68423981E+02</pdfrwt>
<pdfrwt beam="2">  1       21 0.40847996E-02 0.68423981E+02</pdfrwt>
<totfact> 0.18523509E+05</totfact>
</mgrwt>
</event>
<event>
 5    1  0.1624116E+000  0.6363420E+02  0.7546771E-02  0.1383184E+00
         21   -1    0    0  503  502  0.00000000000E+00  0.00000000000E+00  0.19747378697E+02  0.19747378697E+02  0.00000000000E+00 0.  1.
         21   -1    0    0  501  503 -0.00000000000E+00 -0.00000000000E+00 -0.21950431397E+03  0.21950431397E+03  0.00000000000E+00 0.  1.
         24    1    1    2    0    0 -0.69853286642E+01  0.13002470531E+02 -0.10038296599E+03  0.12946742784E+03  0.80419002446E+02 0.  1.
          1    1    1    2  501    0  0.20273071187E+02  0.70385519623E+01 -0.59128517701E+02  0.62902466045E+02  0.00000000000E+00 0. -1.
         -2    1    1    2    0  502 -0.13287742522E+02 -0.20041022494E+02 -0.40245451578E+02  0.46881798778E+02  0.00000000000E+00 0.  1.
<mgrwt>
<rscale>  2 0.63634200E+02</rscale>
<asrwt>0</asrwt>
<pdfrwt beam="1">  1       21 0.30380583E-02 0.63634200E+02</pdfrwt>
<pdfrwt beam="2">  1       21 0.33769894E-01 0.63634200E+02</pdfrwt>
<totfact> 0.49405240E+06</totfact>
</mgrwt>
</event>
<event>
 5    1  0.1624116E+000  0.1159426E+03  0.7546771E-02  0.1249945E+00
         21   -1    0    0  501  502  0.00000000000E+00  0.00000000000E+00  0.43167932703E+03  0.43167932703E+03  0.00000000000E+00 0. -1.
         21   -1    0    0  502  503 -0.00000000000E+00 -0.00000000000E+00 -0.71929613874E+02  0.71929613874E+02  0.00000000000E+00 0.  1.
         24    1    1    2    0    0 -0.23923747229E+02 -0.18967507860E+02  0.92657912572E+01  0.86516951390E+02  0.80419002446E+02 0.  1.
          1    1    1    2  501    0 -0.55812170534E+02  0.33096964388E+02  0.32614223938E+03  0.33253446098E+03  0.00000000000E+00 0. -1.
         -2    1    1    2    0  503  0.79735917763E+02 -0.14129456528E+02  0.24341682514E+02  0.84557528529E+02  0.00000000000E+00 0.  1.
<mgrwt>
<rscale>  2 0.11594257E+03</rscale>
<asrwt>0</asrwt>
<pdfrwt beam="1">  1       21 0.66412202E-01 0.11594257E+03</pdfrwt>
<pdfrwt beam="2">  1       21 0.11066095E-01 0.11594257E+03</pdfrwt>
<totfact> 0.14477870E+05</totfact>
</mgrwt>
</event>
<event>
 5    1  0.1624116E+000  0.8299194E+02  0.7546771E-02  0.1320769E+00
         21   -1    0    0  503  502  0.00000000000E+00  0.00000000000E+00  0.22774895936E+02  0.22774895936E+02  0.00000000000E+00 0. -1.
         21   -1    0    0  501  503 -0.00000000000E+00 -0.00000000000E+00 -0.46181304692E+03  0.46181304692E+03  0.00000000000E+00 0. -1.
         24    1    1    2    0    0  0.57191102956E+02  0.27167912589E+02 -0.17669465839E+03  0.20419876589E+03  0.80419002446E+02 0. -1.
          1    1    1    2  501    0 -0.27664111361E+02 -0.16640858318E+02 -0.23933885896E+03  0.24150633663E+03  0.00000000000E+00 0. -1.
         -2    1    1    2    0  502 -0.29526991596E+02 -0.10527054271E+02 -0.23004633629E+02  0.38882840338E+02  0.00000000000E+00 0.  1.
<mgrwt>
<rscale>  2 0.82991939E+02</rscale>
<asrwt>0</asrwt>
<pdfrwt beam="1">  1       21 0.35038302E-02 0.82991939E+02</pdfrwt>
<pdfrwt beam="2">  1       21 0.71048160E-01 0.82991939E+02</pdfrwt>
<totfact> 0.87848130E+05</totfact>
</mgrwt>
</event>
<event>
 5    1  0.1624116E+000  0.7288822E+02  0.7546771E-02  0.1350538E+00
         21   -1    0    0  503  502  0.00000000000E+00  0.00000000000E+00  0.67062413734E+02  0.67062413734E+02  0.00000000000E+00 0. -1.
         21   -1    0    0  501  503 -0.00000000000E+00 -0.00000000000E+00 -0.13208749796E+03  0.13208749796E+03  0.00000000000E+00 0. -1.
         24    1    1    2    0    0 -0.16470126741E+02 -0.31009948533E+02 -0.44616614497E+01  0.87863555358E+02  0.80419002446E+02 0. -1.
          1    1    1    2  501    0 -0.14289760031E+02  0.21526354990E+02 -0.72491712857E+02  0.76958622869E+02  0.00000000000E+00 0. -1.
         -2    1    1    2    0  502  0.30759886773E+02  0.94835935433E+01  0.11928290080E+02  0.34327733467E+02  0.00000000000E+00 0.  1.
<mgrwt>
<rscale>  2 0.72888222E+02</rscale>
<asrwt>0</asrwt>
<pdfrwt beam="1">  1       21 0.10317295E-01 0.72888222E+02</pdfrwt>
<pdfrwt beam="2">  1       21 0.20321153E-01 0.72888222E+02</pdfrwt>
<totfact> 0.16818216E+06</totfact>
</mgrwt>
</event>
<event>
 5    1  0.1624116E+000  0.6262003E+02  0.7546771E-02  0.1387154E+00
         21   -1    0    0  501  502  0.00000000000E+00  0.00000000000E+00  0.14890711255E+02  0.14890711255E+02  0.00000000000E+00 0. -1.
         21   -1    0    0  502  503 -0.00000000000E+00 -0.00000000000E+00 -0.33670604358E+03  0.33670604358E+03  0.00000000000E+00 0.  1.
         24    1    1    2    0    0 -0.23524883628E+01  0.45896342554E+01 -0.15136423685E+03  0.17147870741E+03  0.80419002446E+02 0.  0.
          1    1    1    2  501    0  0.18488366110E+01  0.19987861846E+02 -0.22558602820E+02  0.30196413350E+02  0.00000000000E+00 0. -1.
         -2    1    1    2    0  503  0.50365175181E+00 -0.24577496101E+02 -0.14789249265E+03  0.14992163407E+03  0.00000000000E+00 0.  1.
<mgrwt>
<rscale>  2 0.62620026E+02</rscale>
<asrwt>0</asrwt>
<pdfrwt beam="1">  1       21 0.22908788E-02 0.62620026E+02</pdfrwt>
<pdfrwt beam="2">  1       21 0.51800926E-01 0.62620026E+02</pdfrwt>
<totfact> 0.33388729E+06</totfact>
</mgrwt>
</event>
<event>
 5    1  0.1624116E+000  0.7766718E+02  0.7546771E-02  0.1335805E+00
         21   -1    0    0  503  502  0.00000000000E+00  0.00000000000E+00  0.46278745611E+03  0.46278745611E+03  0.00000000000E+00 0. -1.
         21   -1    0    0  501  503 -0.00000000000E+00 -0.00000000000E+00 -0.13359424043E+02  0.13359424043E+02  0.00000000000E+00 0. -1.
         24    1    1    2    0    0  0.17438091224E+02 -0.45891603868E+02  0.30607947053E+03  0.32025300087E+03  0.80419002446E+02 0. -1.
          1    1    1    2  501    0  0.32397591893E+01  0.39268703383E+02  0.86993886258E+02  0.95501117016E+02  0.00000000000E+00 0. -1.
         -2    1    1    2    0  502 -0.20677850414E+02  0.66229004856E+01  0.56354675279E+02  0.60392762269E+02  0.00000000000E+00 0.  1.
<mgrwt>
<rscale>  2 0.77667177E+02</rscale>
<asrwt>0</asrwt>
<pdfrwt beam="1">  1       21 0.71198058E-01 0.77667177E+02</pdfrwt>
<pdfrwt beam="2">  1       21 0.20552964E-02 0.77667177E+02</pdfrwt>
<totfact> 0.20646420E+06</totfact>
</mgrwt>
</event>
<event>
 5    1  0.1624116E+000  0.6301377E+02  0.7546771E-02  0.1385603E+00
         21   -1    0    0  503  502  0.00000000000E+00  0.00000000000E+00  0.42135734300E+02  0.42135734300E+02  0.00000000000E+00 0.  1.
         21   -1    0    0  501  503 -0.00000000000E+00 -0.00000000000E+00 -0.25205576234E+03  0.25205576234E+03  0.00000000000E+00 0. -1.
         24    1    1    2    0    0  0.53326679638E+01 -0.15025006084E+01 -0.12555439110E+03  0.14920394074E+03  0.80419002446E+02 0.  0.
          1    1    1    2  501    0  0.15544985163E+02  0.14139506579E+02 -0.10858830054E+03  0.11060285360E+03  0.00000000000E+00 0. -1.
         -2    1    1    2    0  502 -0.20877653127E+02 -0.12637005971E+02  0.24222663599E+02  0.34384702294E+02  0.00000000000E+00 0.  1.
<mgrwt>
<rscale>  2 0.63013774E+02</rscale>
<asrwt>0</asrwt>
<pdfrwt beam="1">  1       21 0.64824208E-02 0.63013774E+02</pdfrwt>
<pdfrwt beam="2">  1       21 0.38777809E-01 0.63013774E+02</pdfrwt>
<totfact> 0.10915848E+06</totfact>
</mgrwt>
</event>
<event>
 5    1  0.1624116E+000  0.8442479E+02  0.7546771E-02  0.1316944E+00
         21   -1    0    0  503  502  0.00000000000E+00  0.00000000000E+00  0.56533117292E+02  0.56533117292E+02  0.00000000000E+00 0.  1.
         21   -1    0    0  501  503 -0.00000000000E+00 -0.00000000000E+00 -0.12939168673E+03  0.12939168673E+03  0.00000000000E+00 0.  1.
         24    1    1    2    0    0  0.50336590156E+02  0.37578155121E+02 -0.30384794352E+02  0.10647225804E+03  0.80419002446E+02 0.  1.
          1    1    1    2  501    0 -0.27762187263E+02 -0.67074868987E+01 -0.22151335561E+02  0.36144309224E+02  0.00000000000E+00 0. -1.
         -2    1    1    2    0  502 -0.22574402893E+02 -0.30870668222E+02 -0.20322439527E+02  0.43308236755E+02  0.00000000000E+00 0.  1.
<mgrwt>
<rscale>  2 0.84424791E+02</rscale>
<asrwt>0</asrwt>
<pdfrwt beam="1">  1       21 0.86974027E-02 0.84424791E+02</pdfrwt>
<pdfrwt beam="2">  1       21 0.19906413E-01 0.84424791E+02</pdfrwt>
<totfact> 0.23577238E+06</totfact>
</mgrwt>
</event>
<event>
 5    1  0.1624116E+000  0.7746980E+02  0.7546771E-02  0.1336389E+00
         21   -1    0    0  503  502  0.00000000000E+00  0.00000000000E+00  0.16881279612E+03  0.16881279612E+03  0.00000000000E+00 0. -1.
         21   -1    0    0  501  503 -0.00000000000E+00 -0.00000000000E+00 -0.10967005835E+03  0.10967005835E+03  0.00000000000E+00 0. -1.
         24    1    1    2    0    0  0.42157056522E+02 -0.53699021645E+01  0.14415500414E+03  0.17045214706E+03  0.80419002446E+02 0. -1.
          1    1    1    2  501    0 -0.29990536605E+02  0.26223739622E+02 -0.66842195456E+02  0.77813854158E+02  0.00000000000E+00 0. -1.
         -2    1    1    2    0  502 -0.12166519918E+02 -0.20853837457E+02 -0.18170070912E+02  0.30216853254E+02  0.00000000000E+00 0.  1.
<mgrwt>
<rscale>  2 0.77469805E+02</rscale>
<asrwt>0</asrwt>
<pdfrwt beam="1">  1       21 0.25971199E-01 0.77469805E+02</pdfrwt>
<pdfrwt beam="2">  1       21 0.16872317E-01 0.77469805E+02</pdfrwt>
<totfact> 0.45089872E+05</totfact>
</mgrwt>
</event>
<event>
 5    1  0.1624116E+000  0.1061115E+03  0.7546771E-02  0.1267945E+00
         21   -1    0    0  501  502  0.00000000000E+00  0.00000000000E+00  0.65226443331E+02  0.65226443331E+02  0.00000000000E+00 0.  1.
         21   -1    0    0  502  503 -0.00000000000E+00 -0.00000000000E+00 -0.43018266953E+03  0.43018266953E+03  0.00000000000E+00 0.  1.
         24    1    1    2    0    0  0.92987483054E+01 -0.89063983267E+02 -0.39332396247E+02  0.12662193011E+03  0.80419002446E+02 0.  1.
          1    1    1    2  501    0 -0.15885869613E+02  0.60444695644E+02 -0.25938400861E+02  0.67666259864E+02  0.00000000000E+00 0. -1.
         -2    1    1    2    0  503  0.65871213073E+01  0.28619287623E+02 -0.29968542909E+03  0.30112092289E+03  0.00000000000E+00 0.  1.
<mgrwt>
<rscale>  2 0.10611153E+03</rscale>
<asrwt>0</asrwt>
<pdfrwt beam="1">  1       21 0.10034837E-01 0.10611153E+03</pdfrwt>
<pdfrwt beam="2">  1       21 0.66181950E-01 0.10611153E+03</pdfrwt>
<totfact> 0.17369048E+05</totfact>
</mgrwt>
</event>
<event>
 5    1  0.1624116E+000  0.1116233E+03  0.7546771E-02  0.1257593E+00
         21   -1    0    0  501  502  0.00000000000E+00  0.00000000000E+00  0.31504273587E+03  0.31504273587E+03  0.00000000000E+00 0.  1.
         21   -1    0    0  502  503 -0.00000000000E+00 -0.00000000000E+00 -0.85937556551E+02  0.85937556551E+02  0.00000000000E+00 0.  1.
         24    1    1    2    0    0  0.65542582085E+02 -0.61242033455E+02  0.99520967602E+02  0.15626277764E+03  0.80419002446E+02 0.  1.
          1    1    1    2  501    0  0.41829385468E+01  0.22745753581E+02  0.15835399418E+03  0.16003391439E+03  0.00000000000E+00 0. -1.
         -2    1    1    2    0  503 -0.69725520632E+02  0.38496279873E+02 -0.28769782471E+02  0.84683600389E+02  0.00000000000E+00 0.  1.
<mgrwt>
<rscale>  2 0.11162325E+03</rscale>
<asrwt>0</asrwt>
<pdfrwt beam="1">  1       21 0.48468113E-01 0.11162325E+03</pdfrwt>
<pdfrwt beam="2">  1       21 0.13221163E-01 0.11162325E+03</pdfrwt>
<totfact> 0.20498195E+05</totfact>
</mgrwt>
</event>
<event>
 5    1  0.1624116E+000  0.9667126E+02  0.7546771E-02  0.1287456E+00
         21   -1    0    0  501  502  0.00000000000E+00  0.00000000000E+00  0.86012733246E+03  0.86012733246E+03  0.00000000000E+00 0. -1.
         21   -1    0    0  502  503 -0.00000000000E+00 -0.00000000000E+00 -0.17104547390E+02  0.17104547390E+02  0.00000000000E+00 0.  1.
         24    1    1    2    0    0 -0.39323187645E+02  0.96002718833E+01  0.16516376014E+03  0.18810837814E+03  0.80419002446E+02 0.  1.
          1    1    1    2  501    0  0.44955078261E+02  0.35858420491E+02  0.55555226555E+03  0.55852046081E+03  0.00000000000E+00 0. -1.
         -2    1    1    2    0  503 -0.56318906165E+01 -0.45458692375E+02  0.12230675938E+03  0.13060304091E+03  0.00000000000E+00 0.  1.
<mgrwt>
<rscale>  2 0.96671258E+02</rscale>
<asrwt>0</asrwt>
<pdfrwt beam="1">  1       21 0.13232725E+00 0.96671258E+02</pdfrwt>
<pdfrwt beam="2">  1       21 0.26314695E-02 0.96671258E+02</pdfrwt>
<totfact> 0.33404503E+05</totfact>
</mgrwt>
</event>
<event>
 5    1  0.1624116E+000  0.7794353E+02  0.7546771E-02  0.1334991E+00
         21   -1    0    0  503  502  0.00000000000E+00  0.00000000000E+00  0.25886491790E+03  0.25886491790E+03  0.00000000000E+00 0.  1.
         21   -1    0    0  501  503 -0.00000000000E+00 -0.00000000000E+00 -0.98295507606E+02  0.98295507606E+02  0.00000000000E+00 0.  1.
         24    1    1    2    0    0 -0.45646198644E+02  0.34471566872E+02 -0.56294757007E+02  0.11361417163E+03  0.80419002446E+02 0.  1.
          1    1    1    2  501    0  0.20099516960E+02 -0.15231575641E+02  0.90839776766E+00  0.25235226669E+02  0.00000000000E+00 0. -1.
         -2    1    1    2    0  502  0.25546681684E+02 -0.19239991232E+02  0.21595576954E+03  0.21831102721E+03  0.00000000000E+00 0.  1.
<mgrwt>
<rscale>  2 0.77943527E+02</rscale>
<asrwt>0</asrwt>
<pdfrwt beam="1">  1       21 0.39825372E-01 0.77943527E+02</pdfrwt>
<pdfrwt beam="2">  1       21 0.15122386E-01 0.77943527E+02</pdfrwt>
<totfact> 0.24155451E+05</totfact>
</mgrwt>
</event>
<event>
 5    1  0.1624116E+000  0.9472281E+02  0.7546771E-02  0.1291802E+00
         21   -1    0    0  503  502  0.00000000000E+00  0.00000000000E+00  0.52224331847E+03  0.52224331847E+03  0.00000000000E+00 0.  1.
         21   -1    0    0  501  503 -0.00000000000E+00 -0.00000000000E+00 -0.51111000741E+02  0.51111000741E+02  0.00000000000E+00 0. -1.
         24    1    1    2    0    0 -0.30466480176E+02  0.68411321730E+01  0.52675840964E+02  0.10107901701E+03  0.80419002446E+02 0.  0.
          1    1    1    2  501    0  0.54620595562E+02 -0.35921485898E+02  0.15027437350E+02  0.67078957073E+02  0.00000000000E+00 0. -1.
         -2    1    1    2    0  502 -0.24154115386E+02  0.29080353725E+02  0.40342903942E+03  0.40519634513E+03  0.00000000000E+00 0.  1.
<mgrwt>
<rscale>  2 0.94722814E+02</rscale>
<asrwt>0</asrwt>
<pdfrwt beam="1">  1       21 0.80345122E-01 0.94722814E+02</pdfrwt>
<pdfrwt beam="2">  1       21 0.78632312E-02 0.94722814E+02</pdfrwt>
<totfact> 0.17401419E+05</totfact>
</mgrwt>
</event>
<event>
 5    1  0.1624116E+000  0.1714863E+03  0.7546771E-02  0.1176307E+00
         21   -1    0    0  503  502  0.00000000000E+00  0.00000000000E+00  0.22750929604E+04  0.22750929604E+04  0.00000000000E+00 0.  1.
         21   -1    0    0  501  503 -0.00000000000E+00 -0.00000000000E+00 -0.21603134429E+02  0.21603134429E+02  0.00000000000E+00 0. -1.
         24    1    1    2    0    0  0.11294336546E+03 -0.63814928628E+02  0.82202164442E+03  0.83607137780E+03  0.80419002446E+02 0. -1.
          1    1    1    2  501    0 -0.13306854611E+03  0.10647155750E+02  0.30758353560E+03  0.33530319303E+03  0.00000000000E+00 0. -1.
         -2    1    1    2    0  502  0.20125180644E+02  0.53167772877E+02  0.11238846460E+04  0.11253215240E+04  0.00000000000E+00 0.  1.
<mgrwt>
<rscale>  2 0.17148628E+03</rscale>
<asrwt>0</asrwt>
<pdfrwt beam="1">  1       21 0.35001411E+00 0.17148628E+03</pdfrwt>
<pdfrwt beam="2">  1       21 0.33235609E-02 0.17148628E+03</pdfrwt>
<totfact> 0.95875693E+03</totfact>
</mgrwt>
</event>
<event>
 5    1  0.1624116E+000  0.1003178E+03  0.7546771E-02  0.1279629E+00
         21   -1    0    0  503  502  0.00000000000E+00  0.00000000000E+00  0.27355552002E+02  0.27355552002E+02  0.00000000000E+00 0. -1.
         21   -1    0    0  501  503 -0.00000000000E+00 -0.00000000000E+00 -0.40707359535E+03  0.40707359535E+03  0.00000000000E+00 0. -1.
         24    1    1    2    0    0 -0.45930672095E+01 -0.68869376975E+02 -0.22149259199E+03  0.24554077383E+03  0.80419002446E+02 0. -1.
          1    1    1    2  501    0 -0.19325664354E+02  0.68032705127E+02 -0.14550941917E+03  0.16178665376E+03  0.00000000000E+00 0. -1.
         -2    1    1    2    0  502  0.23918731564E+02  0.83667184839E+00 -0.12716032193E+02  0.27101719763E+02  0.00000000000E+00 0.  1.
<mgrwt>
<rscale>  2 0.10031776E+03</rscale>
<asrwt>0</asrwt>
<pdfrwt beam="1">  1       21 0.42085462E-02 0.10031776E+03</pdfrwt>
<pdfrwt beam="2">  1       21 0.62626710E-01 0.10031776E+03</pdfrwt>
<totfact> 0.85304197E+05</totfact>
</mgrwt>
</event>
<event>
 5    1  0.1624116E+000  0.1382846E+03  0.7546771E-02  0.1215656E+00
         21   -1    0    0  503  502  0.00000000000E+00  0.00000000000E+00  0.45557509242E+02  0.45557509242E+02  0.00000000000E+00 0. -1.
         21   -1    0    0  501  503 -0.00000000000E+00 -0.00000000000E+00 -0.53930748073E+03  0.53930748073E+03  0.00000000000E+00 0. -1.
         24    1    1    2    0    0 -0.11230495322E+03 -0.36343172984E+02 -0.20507305890E+03  0.24991079244E+03  0.80419002446E+02 0. -1.
          1    1    1    2  501    0  0.88573355619E+02  0.54376796189E+02 -0.28684303158E+03  0.30509178956E+03  0.00000000000E+00 0. -1.
         -2    1    1    2    0  502  0.23731597597E+02 -0.18033623205E+02 -0.18338810116E+01  0.29862407973E+02  0.00000000000E+00 0.  1.
<mgrwt>
<rscale>  2 0.13828460E+03</rscale>
<asrwt>0</asrwt>
<pdfrwt beam="1">  1       21 0.70088472E-02 0.13828460E+03</pdfrwt>
<pdfrwt beam="2">  1       21 0.82970386E-01 0.13828460E+03</pdfrwt>
<totfact> 0.19433952E+05</totfact>
</mgrwt>
</event>
<event>
 5    1  0.1624116E+000  0.9169071E+02  0.7546771E-02  0.1298808E+00
         21   -1    0    0  501  502  0.00000000000E+00  0.00000000000E+00  0.41807421746E+02  0.41807421746E+02  0.00000000000E+00 0. -1.
         21   -1    0    0  502  503 -0.00000000000E+00 -0.00000000000E+00 -0.34810580404E+03  0.34810580404E+03  0.00000000000E+00 0.  1.
         24    1    1    2    0    0  0.50934767232E+02  0.22826927124E+02 -0.10368760488E+03  0.14259647427E+03  0.80419002446E+02 0.  1.
          1    1    1    2  501    0 -0.34225708299E+01 -0.36018687672E+02  0.25910371462E+01  0.36273589927E+02  0.00000000000E+00 0. -1.
         -2    1    1    2    0  503 -0.47512196402E+02  0.13191760547E+02 -0.20520181457E+03  0.21104316159E+03  0.00000000000E+00 0.  1.
<mgrwt>
<rscale>  2 0.91690707E+02</rscale>
<asrwt>0</asrwt>
<pdfrwt beam="1">  1       21 0.64319110E-02 0.91690707E+02</pdfrwt>
<pdfrwt beam="2">  1       21 0.53554740E-01 0.91690707E+02</pdfrwt>
<totfact> 0.58260630E+05</totfact>
</mgrwt>
</event>
<event>
 5    1  0.1624116E+000  0.8453625E+02  0.7546771E-02  0.1316650E+00
         21   -1    0    0  503  502  0.00000000000E+00  0.00000000000E+00  0.45473701785E+01  0.45473701785E+01  0.00000000000E+00 0. -1.
         21   -1    0    0  501  503 -0.00000000000E+00 -0.00000000000E+00 -0.18579486514E+04  0.18579486514E+04  0.00000000000E+00 0. -1.
         24    1    1    2    0    0  0.89297802900E+01  0.64076870285E+02 -0.87238407650E+03  0.87846842810E+03  0.80419002446E+02 0. -1.
          1    1    1    2  501    0  0.14456486907E+01 -0.34243741448E+02 -0.75915137947E+03  0.75992469408E+03  0.00000000000E+00 0. -1.
         -2    1    1    2    0  502 -0.10375428981E+02 -0.29833128837E+02 -0.22186582526E+03  0.22410289940E+03  0.00000000000E+00 0.  1.
<mgrwt>
<rscale>  2 0.84536247E+02</rscale>
<asrwt>0</asrwt>
<pdfrwt beam="1">  1       21 0.69959456E-03 0.84536247E+02</pdfrwt>
<pdfrwt beam="2">  1       21 0.28583860E+00 0.84536247E+02</pdfrwt>
<totfact> 0.29852166E+05</totfact>
</mgrwt>
</event>
<event>
 5    1  0.1624116E+000  0.9523492E+02  0.7546771E-02  0.1290648E+00
         21   -1    0    0  503  502  0.00000000000E+00  0.00000000000E+00  0.16034229439E+03  0.16034229439E+03  0.00000000000E+00 0.  1.
         21   -1    0    0  501  503 -0.00000000000E+00 -0.00000000000E+00 -0.97391289769E+02  0.97391289769E+02  0.00000000000E+00 0.  1.
         24    1    1    2    0    0 -0.23569590696E+02 -0.19867841624E+02 -0.16328469809E+02  0.87658950581E+02  0.80419002446E+02 0.  1.
          1    1    1    2  501    0  0.39246042400E+02 -0.31698554773E+02 -0.22241653619E+02  0.55133849625E+02  0.00000000000E+00 0. -1.
         -2    1    1    2    0  502 -0.15676451705E+02  0.51566396397E+02  0.10152112805E+03  0.11494078396E+03  0.00000000000E+00 0.  1.
<mgrwt>
<rscale>  2 0.95234925E+02</rscale>
<asrwt>0</asrwt>
<pdfrwt beam="1">  1       21 0.24668045E-01 0.95234925E+02</pdfrwt>
<pdfrwt beam="2">  1       21 0.14983275E-01 0.95234925E+02</pdfrwt>
<totfact> 0.61443270E+05</totfact>
</mgrwt>
</event>
<event>
 5    1  0.1624116E+000  0.6602983E+02  0.7546771E-02  0.1374139E+00
         21   -1    0    0  501  502  0.00000000000E+00  0.00000000000E+00  0.38006380432E+02  0.38006380432E+02  0.00000000000E+00 0.  1.
         21   -1    0    0  502  503 -0.00000000000E+00 -0.00000000000E+00 -0.15579792605E+03  0.15579792605E+03  0.00000000000E+00 0. -1.
         24    1    1    2    0    0  0.33521601319E+01 -0.63718088047E+01 -0.76663727490E+02  0.11133903175E+03  0.80419002446E+02 0.  0.
          1    1    1    2  501    0  0.20875720954E+02 -0.88846545637E+01  0.92651585116E+01  0.24506651634E+02  0.00000000000E+00 0. -1.
         -2    1    1    2    0  503 -0.24227881085E+02  0.15256463368E+02 -0.50392976637E+02  0.57958623092E+02  0.00000000000E+00 0.  1.
<mgrwt>
<rscale>  2 0.66029825E+02</rscale>
<asrwt>0</asrwt>
<pdfrwt beam="1">  1       21 0.58471355E-02 0.66029825E+02</pdfrwt>
<pdfrwt beam="2">  1       21 0.23968912E-01 0.66029825E+02</pdfrwt>
<totfact> 0.32323631E+06</totfact>
</mgrwt>
</event>
<event>
 5    1  0.1624116E+000  0.1102806E+03  0.7546771E-02  0.1260051E+00
         21   -1    0    0  503  502  0.00000000000E+00  0.00000000000E+00  0.39850560391E+03  0.39850560391E+03  0.00000000000E+00 0. -1.
         21   -1    0    0  501  503 -0.00000000000E+00 -0.00000000000E+00 -0.62305524995E+02  0.62305524995E+02  0.00000000000E+00 0.  1.
         24    1    1    2    0    0  0.25471666128E+01  0.83927984264E+02  0.32591225330E+03  0.34602948921E+03  0.80419002446E+02 0. -1.
          1    1    1    2  501    0 -0.27823725120E+02 -0.16646806943E+02 -0.18532455931E+02  0.37346054460E+02  0.00000000000E+00 0. -1.
         -2    1    1    2    0  502  0.25276558507E+02 -0.67281177321E+02  0.28820281547E+02  0.77435585232E+02  0.00000000000E+00 0.  1.
<mgrwt>
<rscale>  2 0.11028059E+03</rscale>
<asrwt>0</asrwt>
<pdfrwt beam="1">  1       21 0.61308553E-01 0.11028059E+03</pdfrwt>
<pdfrwt beam="2">  1       21 0.95854656E-02 0.11028059E+03</pdfrwt>
<totfact> 0.22117212E+05</totfact>
</mgrwt>
</event>
<event>
 5    1  0.1624116E+000  0.1306703E+03  0.7546771E-02  0.1226464E+00
         21   -1    0    0  503  502  0.00000000000E+00  0.00000000000E+00  0.23889222403E+03  0.23889222403E+03  0.00000000000E+00 0. -1.
         21   -1    0    0  501  503 -0.00000000000E+00 -0.00000000000E+00 -0.12657852207E+03  0.12657852207E+03  0.00000000000E+00 0. -1.
         24    1    1    2    0    0  0.97941337263E+02 -0.65975362345E+02  0.15703153902E+03  0.21230019826E+03  0.80419002446E+02 0. -1.
          1    1    1    2  501    0 -0.58414129348E+02  0.44879779590E+02 -0.70090077681E+02  0.10168099190E+03  0.00000000000E+00 0. -1.
         -2    1    1    2    0  502 -0.39527207915E+02  0.21095582755E+02  0.25372240624E+02  0.51489555947E+02  0.00000000000E+00 0.  1.
<mgrwt>
<rscale>  2 0.13067032E+03</rscale>
<asrwt>0</asrwt>
<pdfrwt beam="1">  1       21 0.36752650E-01 0.13067032E+03</pdfrwt>
<pdfrwt beam="2">  1       21 0.19473619E-01 0.13067032E+03</pdfrwt>
<totfact> 0.17641063E+05</totfact>
</mgrwt>
</event>
<event>
 5    1  0.1624116E+000  0.6645207E+02  0.7546771E-02  0.1372591E+00
         21   -1    0    0  503  502  0.00000000000E+00  0.00000000000E+00  0.58976122736E+03  0.58976122736E+03  0.00000000000E+00 0. -1.
         21   -1    0    0  501  503 -0.00000000000E+00 -0.00000000000E+00 -0.17463508776E+02  0.17463508776E+02  0.00000000000E+00 0. -1.
         24    1    1    2    0    0  0.96521576957E+01 -0.37445595176E+02  0.51129350819E+03  0.51902177624E+03  0.80419002446E+02 0. -1.
          1    1    1    2  501    0  0.50146256384E+01  0.21196378503E+02 -0.16413140199E+01  0.21843233361E+02  0.00000000000E+00 0. -1.
         -2    1    1    2    0  502 -0.14666783334E+02  0.16249216672E+02  0.62645524412E+02  0.66359726526E+02  0.00000000000E+00 0.  1.
<mgrwt>
<rscale>  2 0.66452075E+02</rscale>
<asrwt>0</asrwt>
<pdfrwt beam="1">  1       21 0.90732481E-01 0.66452075E+02</pdfrwt>
<pdfrwt beam="2">  1       21 0.26866941E-02 0.66452075E+02</pdfrwt>
<totfact> 0.78661414E+05</totfact>
</mgrwt>
</event>
<event>
 5    1  0.1624116E+000  0.6494525E+02  0.7546771E-02  0.1378178E+00
         21   -1    0    0  501  502  0.00000000000E+00  0.00000000000E+00  0.14504894530E+02  0.14504894530E+02  0.00000000000E+00 0.  1.
         21   -1    0    0  502  503 -0.00000000000E+00 -0.00000000000E+00 -0.74471593587E+03  0.74471593587E+03  0.00000000000E+00 0.  1.
         24    1    1    2    0    0 -0.88749518386E+01 -0.27027028949E+02 -0.20189145026E+03  0.21917253183E+03  0.80419002446E+02 0.  1.
          1    1    1    2  501    0 -0.10584206020E+02  0.22117409772E+02 -0.20860826279E+02  0.32192845558E+02  0.00000000000E+00 0. -1.
         -2    1    1    2    0  503  0.19459157858E+02  0.49096191768E+01 -0.50745876480E+03  0.50785545301E+03  0.00000000000E+00 0.  1.
<mgrwt>
<rscale>  2 0.64945253E+02</rscale>
<asrwt>0</asrwt>
<pdfrwt beam="1">  1       21 0.22315226E-02 0.64945253E+02</pdfrwt>
<pdfrwt beam="2">  1       21 0.11457166E+00 0.64945253E+02</pdfrwt>
<totfact> 0.61944460E+05</totfact>
</mgrwt>
</event>
<event>
 5    1  0.1624116E+000  0.1040349E+03  0.7546771E-02  0.1272033E+00
         21   -1    0    0  501  502  0.00000000000E+00  0.00000000000E+00  0.16223482521E+02  0.16223482521E+02  0.00000000000E+00 0. -1.
         21   -1    0    0  502  503 -0.00000000000E+00 -0.00000000000E+00 -0.10215885081E+04  0.10215885081E+04  0.00000000000E+00 0. -1.
         24    1    1    2    0    0  0.68278283421E+02  0.54266902123E+02 -0.50625842403E+03  0.51997271901E+03  0.80419002446E+02 0. -1.
          1    1    1    2  501    0 -0.58033014350E+02 -0.35431568146E+02 -0.11844247548E+03  0.13657176419E+03  0.00000000000E+00 0. -1.
         -2    1    1    2    0  503 -0.10245269071E+02 -0.18835333977E+02 -0.38066412604E+03  0.38126750740E+03  0.00000000000E+00 0.  1.
<mgrwt>
<rscale>  2 0.10403490E+03</rscale>
<asrwt>0</asrwt>
<pdfrwt beam="1">  1       21 0.24959203E-02 0.10403490E+03</pdfrwt>
<pdfrwt beam="2">  1       21 0.15716747E+00 0.10403490E+03</pdfrwt>
<totfact> 0.23460462E+05</totfact>
</mgrwt>
</event>
<event>
 5    1  0.1624116E+000  0.8595968E+02  0.7546771E-02  0.1312942E+00
         21   -1    0    0  501  502  0.00000000000E+00  0.00000000000E+00  0.13798210024E+03  0.13798210024E+03  0.00000000000E+00 0.  1.
         21   -1    0    0  502  503 -0.00000000000E+00 -0.00000000000E+00 -0.62040701761E+02  0.62040701761E+02  0.00000000000E+00 0.  1.
         24    1    1    2    0    0  0.27845801765E+02  0.46989524869E+02  0.30497326562E+02  0.10188575467E+03  0.80419002446E+02 0.  1.
          1    1    1    2  501    0  0.14011694080E+02 -0.21608063064E+02  0.41739853132E+02  0.49045400395E+02  0.00000000000E+00 0. -1.
         -2    1    1    2    0  503 -0.41857495845E+02 -0.25381461805E+02  0.37042187827E+01  0.49091646933E+02  0.00000000000E+00 0.  1.
<mgrwt>
<rscale>  2 0.85959682E+02</rscale>
<asrwt>0</asrwt>
<pdfrwt beam="1">  1       21 0.21228015E-01 0.85959682E+02</pdfrwt>
<pdfrwt beam="2">  1       21 0.95447234E-02 0.85959682E+02</pdfrwt>
<totfact> 0.17875301E+06</totfact>
</mgrwt>
</event>
<event>
 5    1  0.1624116E+000  0.7472228E+02  0.7546771E-02  0.1344733E+00
         21   -1    0    0  503  502  0.00000000000E+00  0.00000000000E+00  0.25651235379E+03  0.25651235379E+03  0.00000000000E+00 0.  1.
         21   -1    0    0  501  503 -0.00000000000E+00 -0.00000000000E+00 -0.70579444580E+02  0.70579444580E+02  0.00000000000E+00 0.  1.
         24    1    1    2    0    0  0.15236111982E+02  0.14009187312E+02 -0.30554775652E+02  0.88482804584E+02  0.80419002446E+02 0.  1.
          1    1    1    2  501    0  0.19882519763E+02 -0.22750819503E+02  0.14698159910E+02  0.33599855430E+02  0.00000000000E+00 0. -1.
         -2    1    1    2    0  502 -0.35118631745E+02  0.87416321913E+01  0.20178952495E+03  0.20500913836E+03  0.00000000000E+00 0.  1.
<mgrwt>
<rscale>  2 0.74722275E+02</rscale>
<asrwt>0</asrwt>
<pdfrwt beam="1">  1       21 0.39463439E-01 0.74722275E+02</pdfrwt>
<pdfrwt beam="2">  1       21 0.10858376E-01 0.74722275E+02</pdfrwt>
<totfact> 0.44004054E+05</totfact>
</mgrwt>
</event>
<event>
 5    1  0.1624116E+000  0.7376496E+02  0.7546771E-02  0.1347739E+00
         21   -1    0    0  503  502  0.00000000000E+00  0.00000000000E+00  0.37509656216E+02  0.37509656216E+02  0.00000000000E+00 0. -1.
         21   -1    0    0  501  503 -0.00000000000E+00 -0.00000000000E+00 -0.18726922632E+03  0.18726922632E+03  0.00000000000E+00 0.  1.
         24    1    1    2    0    0  0.51052601601E+02 -0.32422689234E+01 -0.43330638504E+02  0.10469785397E+03  0.80419002446E+02 0.  0.
          1    1    1    2  501    0 -0.22305490775E+02 -0.37886714522E+01 -0.67429660639E+02  0.71124173697E+02  0.00000000000E+00 0. -1.
         -2    1    1    2    0  502 -0.28747110826E+02  0.70309403757E+01 -0.38999270958E+02  0.48956854869E+02  0.00000000000E+00 0.  1.
<mgrwt>
<rscale>  2 0.73764961E+02</rscale>
<asrwt>0</asrwt>
<pdfrwt beam="1">  1       21 0.57707163E-02 0.73764961E+02</pdfrwt>
<pdfrwt beam="2">  1       21 0.28810650E-01 0.73764961E+02</pdfrwt>
<totfact> 0.23588201E+06</totfact>
</mgrwt>
</event>
<event>
 5    1  0.1624116E+000  0.6458496E+02  0.7546771E-02  0.1379540E+00
         21   -1    0    0  501  502  0.00000000000E+00  0.00000000000E+00  0.29634113133E+02  0.29634113133E+02  0.00000000000E+00 0. -1.
         21   -1    0    0  502  503 -0.00000000000E+00 -0.00000000000E+00 -0.14726348493E+03  0.14726348493E+03  0.00000000000E+00 0.  1.
         24    1    1    2    0    0  0.12325476123E+02  0.15889231256E+02 -0.92353510335E+02  0.12409984632E+03  0.80419002446E+02 0.  0.
          1    1    1    2  501    0  0.13273529766E+02 -0.15852478674E+02 -0.97600671226E+01  0.22863652000E+02  0.00000000000E+00 0. -1.
         -2    1    1    2    0  503 -0.25599005889E+02 -0.36752581913E-01 -0.15515794336E+02  0.29934099738E+02  0.00000000000E+00 0.  1.
<mgrwt>
<rscale>  2 0.64584964E+02</rscale>
<asrwt>0</asrwt>
<pdfrwt beam="1">  1       21 0.45590941E-02 0.64584964E+02</pdfrwt>
<pdfrwt beam="2">  1       21 0.22655922E-01 0.64584964E+02</pdfrwt>
<totfact> 0.53997073E+06</totfact>
</mgrwt>
</event>
<event>
 5    1  0.1624116E+000  0.9727270E+02  0.7546771E-02  0.1286138E+00
         21   -1    0    0  501  502  0.00000000000E+00  0.00000000000E+00  0.30532400817E+03  0.30532400817E+03  0.00000000000E+00 0. -1.
         21   -1    0    0  502  503 -0.00000000000E+00 -0.00000000000E+00 -0.61491154334E+02  0.61491154334E+02  0.00000000000E+00 0. -1.
         24    1    1    2    0    0 -0.66558356540E+02 -0.33813910757E+02  0.25453856439E+02  0.11264328719E+03  0.80419002446E+02 0. -1.
          1    1    1    2  501    0  0.23783544442E+02 -0.79070695594E+01  0.18304756761E+03  0.18475548907E+03  0.00000000000E+00 0. -1.
         -2    1    1    2    0  503  0.42774812099E+02  0.41720980316E+02  0.35331429789E+02  0.69416386247E+02  0.00000000000E+00 0.  1.
<mgrwt>
<rscale>  2 0.97272704E+02</rscale>
<asrwt>0</asrwt>
<pdfrwt beam="1">  1       21 0.46972924E-01 0.97272704E+02</pdfrwt>
<pdfrwt beam="2">  1       21 0.94601778E-02 0.97272704E+02</pdfrwt>
<totfact> 0.39403849E+05</totfact>
</mgrwt>
</event>
<event>
 5    1  0.1624116E+000  0.6459623E+02  0.7546771E-02  0.1379497E+00
         21   -1    0    0  501  502  0.00000000000E+00  0.00000000000E+00  0.89435241836E+02  0.89435241836E+02  0.00000000000E+00 0.  1.
         21   -1    0    0  502  503 -0.00000000000E+00 -0.00000000000E+00 -0.56165435697E+02  0.56165435697E+02  0.00000000000E+00 0. -1.
         24    1    1    2    0    0  0.54028973908E+01 -0.17819917136E+01 -0.90894535700E+01  0.81130764296E+02  0.80419002446E+02 0.  0.
          1    1    1    2  501    0 -0.19990892992E+02  0.17899608338E+02  0.22299142891E+02  0.34889590926E+02  0.00000000000E+00 0. -1.
         -2    1    1    2    0  503  0.14587995601E+02 -0.16117616625E+02  0.20060116818E+02  0.29580322312E+02  0.00000000000E+00 0.  1.
<mgrwt>
<rscale>  2 0.64596234E+02</rscale>
<asrwt>0</asrwt>
<pdfrwt beam="1">  1       21 0.13759268E-01 0.64596234E+02</pdfrwt>
<pdfrwt beam="2">  1       21 0.86408363E-02 0.64596234E+02</pdfrwt>
<totfact> 0.45415925E+06</totfact>
</mgrwt>
</event>
<event>
 5    1  0.1624116E+000  0.1227510E+03  0.7546771E-02  0.1238626E+00
         21   -1    0    0  503  502  0.00000000000E+00  0.00000000000E+00  0.11702919073E+02  0.11702919073E+02  0.00000000000E+00 0. -1.
         21   -1    0    0  501  503 -0.00000000000E+00 -0.00000000000E+00 -0.13677582004E+04  0.13677582004E+04  0.00000000000E+00 0.  1.
         24    1    1    2    0    0  0.19094946916E+02  0.10620939543E+03 -0.74966427526E+03  0.76164873415E+03  0.80419002446E+02 0.  0.
          1    1    1    2  501    0 -0.16887605384E+02 -0.28131497909E+02 -0.29311496667E+03  0.29494568326E+03  0.00000000000E+00 0. -1.
         -2    1    1    2    0  502 -0.22073415325E+01 -0.78077897526E+02 -0.31327603942E+03  0.32286670208E+03  0.00000000000E+00 0.  1.
<mgrwt>
<rscale>  2 0.12275104E+03</rscale>
<asrwt>0</asrwt>
<pdfrwt beam="1">  1       21 0.18004498E-02 0.12275104E+03</pdfrwt>
<pdfrwt beam="2">  1       21 0.21042426E+00 0.12275104E+03</pdfrwt>
<totfact> 0.17532334E+05</totfact>
</mgrwt>
</event>
<event>
 5    1  0.1624116E+000  0.8768122E+02  0.7546771E-02  0.1308566E+00
         21   -1    0    0  503  502  0.00000000000E+00  0.00000000000E+00  0.60143371507E+02  0.60143371507E+02  0.00000000000E+00 0.  1.
         21   -1    0    0  501  503 -0.00000000000E+00 -0.00000000000E+00 -0.15053416023E+03  0.15053416023E+03  0.00000000000E+00 0. -1.
         24    1    1    2    0    0  0.53187761819E+02 -0.38985134501E+02 -0.76988145258E+02  0.12939539862E+03  0.80419002446E+02 0. -1.
          1    1    1    2  501    0 -0.35767810601E+02  0.93221900900E+01 -0.25401818784E+02  0.44849658871E+02  0.00000000000E+00 0. -1.
         -2    1    1    2    0  502 -0.17419951218E+02  0.29662944411E+02  0.11999175316E+02  0.36432474248E+02  0.00000000000E+00 0.  1.
<mgrwt>
<rscale>  2 0.87681217E+02</rscale>
<asrwt>0</asrwt>
<pdfrwt beam="1">  1       21 0.92528264E-02 0.87681217E+02</pdfrwt>
<pdfrwt beam="2">  1       21 0.23159101E-01 0.87681217E+02</pdfrwt>
<totfact> 0.16069379E+06</totfact>
</mgrwt>
</event>
<event>
 5    1  0.1851016E+000  0.7807663E+02  0.7546771E-02  0.1334600E+00
         21   -1    0    0  501  502  0.00000000000E+00  0.00000000000E+00  0.49532739936E+02  0.49532739936E+02  0.00000000000E+00 0. -1.
         21   -1    0    0  502  503 -0.00000000000E+00 -0.00000000000E+00 -0.10603436910E+04  0.10603436910E+04  0.00000000000E+00 0.  1.
         24    1    1    2    0    0 -0.54500289842E+01  0.13845609941E+02 -0.65295253244E+02  0.10465223257E+03  0.80419002446E+02 0.  1.
          1    1    1    2  501    0  0.15896010281E+02  0.27478625777E+02  0.20810541994E+02  0.37958354489E+02  0.00000000000E+00 0. -1.
         -2    1    1    2    0  503 -0.10445981297E+02 -0.41324235718E+02 -0.96632623980E+03  0.96726584386E+03  0.00000000000E+00 0.  1.
<mgrwt>
<rscale>  2 0.78076626E+02</rscale>
<asrwt>0</asrwt>
<pdfrwt beam="1">  1       21 0.76204219E-02 0.78076626E+02</pdfrwt>
<pdfrwt beam="2">  1       21 0.16312979E+00 0.78076626E+02</pdfrwt>
<totfact> 0.34287387E+04</totfact>
</mgrwt>
</event>
<event>
 5    1  0.1624116E+000  0.1410343E+03  0.7546771E-02  0.1211944E+00
         21   -1    0    0  501  502  0.00000000000E+00  0.00000000000E+00  0.32799076796E+04  0.32799076796E+04  0.00000000000E+00 0. -1.
         21   -1    0    0  502  503 -0.00000000000E+00 -0.00000000000E+00 -0.24654485291E+02  0.24654485291E+02  0.00000000000E+00 0.  1.
         24    1    1    2    0    0  0.15678005107E+02 -0.65400520101E+02  0.64433645483E+03  0.65280909220E+03  0.80419002446E+02 0.  1.
          1    1    1    2  501    0  0.40316293789E+01 -0.55042171257E+02  0.24458268171E+04  0.24464494096E+04  0.00000000000E+00 0. -1.
         -2    1    1    2    0  503 -0.19709634486E+02  0.12044269136E+03  0.16508992234E+03  0.20530366302E+03  0.00000000000E+00 0.  1.
<mgrwt>
<rscale>  2 0.14103435E+03</rscale>
<asrwt>0</asrwt>
<pdfrwt beam="1">  1       21 0.50460084E+00 0.14103435E+03</pdfrwt>
<pdfrwt beam="2">  1       21 0.37930003E-02 0.14103435E+03</pdfrwt>
<totfact> 0.82976043E+02</totfact>
</mgrwt>
</event>
<event>
 5    1  0.1624116E+000  0.1344696E+03  0.7546771E-02  0.1220970E+00
         21   -1    0    0  503  502  0.00000000000E+00  0.00000000000E+00  0.97343097488E+03  0.97343097488E+03  0.00000000000E+00 0. -1.
         21   -1    0    0  501  503 -0.00000000000E+00 -0.00000000000E+00 -0.22303781025E+02  0.22303781025E+02  0.00000000000E+00 0. -1.
         24    1    1    2    0    0 -0.91632160219E+02 -0.51125025930E+02  0.30369668637E+03  0.33122366209E+03  0.80419002446E+02 0. -1.
          1    1    1    2  501    0  0.10167040667E+03  0.19456137375E+02  0.34317836432E+03  0.35845055811E+03  0.00000000000E+00 0. -1.
         -2    1    1    2    0  502 -0.10038246448E+02  0.31668888555E+02  0.30425214316E+03  0.30606053570E+03  0.00000000000E+00 0.  1.
<mgrwt>
<rscale>  2 0.13446964E+03</rscale>
<asrwt>0</asrwt>
<pdfrwt beam="1">  1       21 0.14975858E+00 0.13446964E+03</pdfrwt>
<pdfrwt beam="2">  1       21 0.34313517E-02 0.13446964E+03</pdfrwt>
<totfact> 0.15584566E+05</totfact>
</mgrwt>
</event>
<event>
 5    1  0.1624116E+000  0.7067992E+02  0.7546771E-02  0.1357796E+00
         21   -1    0    0  503  502  0.00000000000E+00  0.00000000000E+00  0.18023180302E+02  0.18023180302E+02  0.00000000000E+00 0. -1.
         21   -1    0    0  501  503 -0.00000000000E+00 -0.00000000000E+00 -0.34337001278E+03  0.34337001278E+03  0.00000000000E+00 0. -1.
         24    1    1    2    0    0  0.18141478430E+02 -0.11431940803E+02 -0.10773784880E+03  0.13614133291E+03  0.80419002446E+02 0. -1.
          1    1    1    2  501    0  0.24803061419E+01  0.30167529063E+02 -0.11784063741E+03  0.12166613150E+03  0.00000000000E+00 0. -1.
         -2    1    1    2    0  502 -0.20621784572E+02 -0.18735588260E+02 -0.99768346274E+02  0.10358572867E+03  0.00000000000E+00 0.  1.
<mgrwt>
<rscale>  2 0.70679919E+02</rscale>
<asrwt>0</asrwt>
<pdfrwt beam="1">  1       21 0.27727973E-02 0.70679919E+02</pdfrwt>
<pdfrwt beam="2">  1       21 0.52826150E-01 0.70679919E+02</pdfrwt>
<totfact> 0.23792525E+06</totfact>
</mgrwt>
</event>
<event>
 5    1  0.1624116E+000  0.1234986E+03  0.7546771E-02  0.1237435E+00
         21   -1    0    0  501  502  0.00000000000E+00  0.00000000000E+00  0.16374263663E+03  0.16374263663E+03  0.00000000000E+00 0. -1.
         21   -1    0    0  502  503 -0.00000000000E+00 -0.00000000000E+00 -0.28088750779E+03  0.28088750779E+03  0.00000000000E+00 0.  1.
         24    1    1    2    0    0  0.46151376675E+02 -0.75228509807E+02 -0.22415411167E+02  0.12148639788E+03  0.80419002446E+02 0. -1.
          1    1    1    2  501    0 -0.72575671738E+02  0.37939325894E+02  0.96478751736E+02  0.12654947694E+03  0.00000000000E+00 0. -1.
         -2    1    1    2    0  503  0.26424295064E+02  0.37289183914E+02 -0.19120821173E+03  0.19659426960E+03  0.00000000000E+00 0.  1.
<mgrwt>
<rscale>  2 0.12349855E+03</rscale>
<asrwt>0</asrwt>
<pdfrwt beam="1">  1       21 0.25191175E-01 0.12349855E+03</pdfrwt>
<pdfrwt beam="2">  1       21 0.43213463E-01 0.12349855E+03</pdfrwt>
<totfact> 0.79165878E+04</totfact>
</mgrwt>
</event>
<event>
 5    1  0.2793794E+000  0.1091318E+03  0.7546771E-02  0.1262186E+00
         21   -1    0    0  503  502  0.00000000000E+00  0.00000000000E+00  0.61876820483E+03  0.61876820483E+03  0.00000000000E+00 0. -1.
         21   -1    0    0  501  503 -0.00000000000E+00 -0.00000000000E+00 -0.60291570226E+02  0.60291570226E+02  0.00000000000E+00 0. -1.
         24    1    1    2    0    0  0.30933713569E+02  0.86120270682E+02  0.56218239233E+03  0.57523026160E+03  0.80419002446E+02 0. -1.
          1    1    1    2  501    0 -0.34794692144E+02 -0.55000714111E+02 -0.20529032166E+02  0.68243610073E+02  0.00000000000E+00 0. -1.
         -2    1    1    2    0  502  0.38609785751E+01 -0.31119556572E+02  0.16823274438E+02  0.35585903383E+02  0.00000000000E+00 0.  1.
<mgrwt>
<rscale>  2 0.10913183E+03</rscale>
<asrwt>0</asrwt>
<pdfrwt beam="1">  1       21 0.95195104E-01 0.10913183E+03</pdfrwt>
<pdfrwt beam="2">  1       21 0.92756266E-02 0.10913183E+03</pdfrwt>
<totfact> 0.88721085E+04</totfact>
</mgrwt>
</event>
<event>
 5    1  0.1624116E+000  0.8131458E+02  0.7546771E-02  0.1325362E+00
         21   -1    0    0  501  502  0.00000000000E+00  0.00000000000E+00  0.13217113262E+03  0.13217113262E+03  0.00000000000E+00 0.  1.
         21   -1    0    0  502  503 -0.00000000000E+00 -0.00000000000E+00 -0.12630306836E+03  0.12630306836E+03  0.00000000000E+00 0. -1.
         24    1    1    2    0    0 -0.32129004635E+02 -0.15557720451E+02  0.92536953294E+02  0.12768954258E+03  0.80419002446E+02 0.  1.
          1    1    1    2  501    0 -0.17184569382E+02  0.18489868227E+02  0.58422666096E+01  0.25909780605E+02  0.00000000000E+00 0. -1.
         -2    1    1    2    0  503  0.49313574017E+02 -0.29321477761E+01 -0.92511155645E+02  0.10487487779E+03  0.00000000000E+00 0.  1.
<mgrwt>
<rscale>  2 0.81314580E+02</rscale>
<asrwt>0</asrwt>
<pdfrwt beam="1">  1       21 0.20334020E-01 0.81314580E+02</pdfrwt>
<pdfrwt beam="2">  1       21 0.19431241E-01 0.81314580E+02</pdfrwt>
<totfact> 0.54921096E+05</totfact>
</mgrwt>
</event>
<event>
 5    1  0.1624116E+000  0.9029018E+02  0.7546771E-02  0.1302151E+00
         21   -1    0    0  503  502  0.00000000000E+00  0.00000000000E+00  0.21798603518E+03  0.21798603518E+03  0.00000000000E+00 0. -1.
         21   -1    0    0  501  503 -0.00000000000E+00 -0.00000000000E+00 -0.38071350903E+02  0.38071350903E+02  0.00000000000E+00 0.  1.
         24    1    1    2    0    0  0.19995978874E+02 -0.12226987672E+02  0.98121647255E+02  0.12901322418E+03  0.80419002446E+02 0. -1.
          1    1    1    2  501    0 -0.44816718237E+02 -0.25569421673E+02  0.37852507225E+02  0.63993326694E+02  0.00000000000E+00 0. -1.
         -2    1    1    2    0  502  0.24820739362E+02  0.37796409345E+02  0.43940529797E+02  0.63050835210E+02  0.00000000000E+00 0.  1.
<mgrwt>
<rscale>  2 0.90290175E+02</rscale>
<asrwt>0</asrwt>
<pdfrwt beam="1">  1       21 0.33536313E-01 0.90290175E+02</pdfrwt>
<pdfrwt beam="2">  1       21 0.58571310E-02 0.90290175E+02</pdfrwt>
<totfact> 0.17357294E+06</totfact>
</mgrwt>
</event>
<event>
 5    1  0.1624116E+000  0.1084996E+03  0.7546771E-02  0.1263374E+00
         21   -1    0    0  503  502  0.00000000000E+00  0.00000000000E+00  0.79420637176E+03  0.79420637176E+03  0.00000000000E+00 0. -1.
         21   -1    0    0  501  503 -0.00000000000E+00 -0.00000000000E+00 -0.33721467221E+02  0.33721467221E+02  0.00000000000E+00 0.  1.
         24    1    1    2    0    0 -0.26085909253E+02  0.53780321432E+02  0.58876332440E+02  0.11621719370E+03  0.80419002446E+02 0.  1.
          1    1    1    2  501    0  0.63164484676E+02 -0.47865736655E+02  0.40014116056E+03  0.40791399736E+03  0.00000000000E+00 0. -1.
         -2    1    1    2    0  502 -0.37078575423E+02 -0.59145847775E+01  0.30146741153E+03  0.30379664792E+03  0.00000000000E+00 0.  1.
<mgrwt>
<rscale>  2 0.10849961E+03</rscale>
<asrwt>0</asrwt>
<pdfrwt beam="1">  1       21 0.12218558E+00 0.10849961E+03</pdfrwt>
<pdfrwt beam="2">  1       21 0.51879186E-02 0.10849961E+03</pdfrwt>
<totfact> 0.13223444E+05</totfact>
</mgrwt>
</event>
<event>
 5    1  0.1624116E+000  0.7045138E+02  0.7546771E-02  0.1358565E+00
         21   -1    0    0  503  502  0.00000000000E+00  0.00000000000E+00  0.68941911229E+02  0.68941911229E+02  0.00000000000E+00 0.  1.
         21   -1    0    0  501  503 -0.00000000000E+00 -0.00000000000E+00 -0.11429358478E+03  0.11429358478E+03  0.00000000000E+00 0.  1.
         24    1    1    2    0    0  0.24908997342E+02 -0.23351498548E+02 -0.39185831126E+02  0.95752263411E+02  0.80419002446E+02 0.  1.
          1    1    1    2  501    0 -0.32016086130E+02  0.32091932705E+01 -0.37594095165E+02  0.49483782029E+02  0.00000000000E+00 0. -1.
         -2    1    1    2    0  502  0.71070887885E+01  0.20142305277E+02  0.31428252742E+02  0.37999450567E+02  0.00000000000E+00 0.  1.
<mgrwt>
<rscale>  2 0.70451378E+02</rscale>
<asrwt>0</asrwt>
<pdfrwt beam="1">  1       21 0.10606448E-01 0.70451378E+02</pdfrwt>
<pdfrwt beam="2">  1       21 0.17583628E-01 0.70451378E+02</pdfrwt>
<totfact> 0.20796865E+06</totfact>
</mgrwt>
</event>
<event>
 5    1  0.1624116E+000  0.7093972E+02  0.7546771E-02  0.1356926E+00
         21   -1    0    0  503  502  0.00000000000E+00  0.00000000000E+00  0.84677370553E+03  0.84677370553E+03  0.00000000000E+00 0.  1.
         21   -1    0    0  501  503 -0.00000000000E+00 -0.00000000000E+00 -0.20453847148E+02  0.20453847148E+02  0.00000000000E+00 0. -1.
         24    1    1    2    0    0  0.16492735754E+02 -0.22606127476E+02  0.26579245404E+03  0.27909835527E+03  0.80419002446E+02 0. -1.
          1    1    1    2  501    0  0.67595364435E+00  0.35345589496E+02  0.93907526201E+01  0.36578051409E+02  0.00000000000E+00 0. -1.
         -2    1    1    2    0  502 -0.17168689398E+02 -0.12739462020E+02  0.55113665172E+03  0.55155114600E+03  0.00000000000E+00 0.  1.
<mgrwt>
<rscale>  2 0.70939720E+02</rscale>
<asrwt>0</asrwt>
<pdfrwt beam="1">  1       21 0.13027285E+00 0.70939720E+02</pdfrwt>
<pdfrwt beam="2">  1       21 0.31467464E-02 0.70939720E+02</pdfrwt>
<totfact> 0.26219789E+05</totfact>
</mgrwt>
</event>
<event>
 5    1  0.1624116E+000  0.1305502E+03  0.7546771E-02  0.1226642E+00
         21   -1    0    0  501  502  0.00000000000E+00  0.00000000000E+00  0.24467914553E+04  0.24467914553E+04  0.00000000000E+00 0. -1.
         21   -1    0    0  502  503 -0.00000000000E+00 -0.00000000000E+00 -0.14226273459E+02  0.14226273459E+02  0.00000000000E+00 0. -1.
         24    1    1    2    0    0  0.13138618747E+02 -0.92356505043E+02  0.20466246357E+04  0.20503272819E+04  0.80419002446E+02 0. -1.
          1    1    1    2  501    0 -0.55443445280E+02  0.31340165847E+02  0.21702874307E+03  0.22618058480E+03  0.00000000000E+00 0. -1.
         -2    1    1    2    0  503  0.42304826533E+02  0.61016339196E+02  0.16891180307E+03  0.18450986210E+03  0.00000000000E+00 0.  1.
<mgrwt>
<rscale>  2 0.13055022E+03</rscale>
<asrwt>0</asrwt>
<pdfrwt beam="1">  1       21 0.37642912E+00 0.13055022E+03</pdfrwt>
<pdfrwt beam="2">  1       21 0.21886594E-02 0.13055022E+03</pdfrwt>
<totfact> 0.14109222E+04</totfact>
</mgrwt>
</event>
<event>
 5    1  0.1624116E+000  0.6461423E+02  0.7546771E-02  0.1379428E+00
         21   -1    0    0  503  502  0.00000000000E+00  0.00000000000E+00  0.66163748094E+02  0.66163748094E+02  0.00000000000E+00 0.  1.
         21   -1    0    0  501  503 -0.00000000000E+00 -0.00000000000E+00 -0.87817307725E+02  0.87817307725E+02  0.00000000000E+00 0.  1.
         24    1    1    2    0    0 -0.19499509537E+02 -0.13840716106E+02 -0.63894938441E+01  0.84141772506E+02  0.80419002446E+02 0.  0.
          1    1    1    2  501    0  0.29243360050E+01  0.25114275550E+02 -0.34020311859E+02  0.42387028635E+02  0.00000000000E+00 0. -1.
         -2    1    1    2    0  502  0.16575173532E+02 -0.11273559444E+02  0.18756246073E+02  0.27452254678E+02  0.00000000000E+00 0.  1.
<mgrwt>
<rscale>  2 0.64614233E+02</rscale>
<asrwt>0</asrwt>
<pdfrwt beam="1">  1       21 0.10179038E-01 0.64614233E+02</pdfrwt>
<pdfrwt beam="2">  1       21 0.13510355E-01 0.64614233E+02</pdfrwt>
<totfact> 0.35443906E+06</totfact>
</mgrwt>
</event>
<event>
 5    1  0.1624116E+000  0.6492801E+02  0.7546771E-02  0.1378243E+00
         21   -1    0    0  501  502  0.00000000000E+00  0.00000000000E+00  0.43749971484E+03  0.43749971484E+03  0.00000000000E+00 0. -1.
         21   -1    0    0  502  503 -0.00000000000E+00 -0.00000000000E+00 -0.14587952602E+02  0.14587952602E+02  0.00000000000E+00 0. -1.
         24    1    1    2    0    0 -0.93091287166E+01 -0.36098547196E+00  0.15810259947E+03  0.17762442991E+03  0.80419002446E+02 0. -1.
          1    1    1    2  501    0 -0.12740575048E+02 -0.16710404404E+02  0.22430973755E+03  0.22529185122E+03  0.00000000000E+00 0. -1.
         -2    1    1    2    0  503  0.22049703764E+02  0.17071389876E+02  0.40499425218E+02  0.49171386307E+02  0.00000000000E+00 0.  1.
<mgrwt>
<rscale>  2 0.64928007E+02</rscale>
<asrwt>0</asrwt>
<pdfrwt beam="1">  1       21 0.67307639E-01 0.64928007E+02</pdfrwt>
<pdfrwt beam="2">  1       21 0.22443007E-02 0.64928007E+02</pdfrwt>
<totfact> 0.20083661E+06</totfact>
</mgrwt>
</event>
<event>
 5    1  0.1624116E+000  0.1535209E+03  0.7546771E-02  0.1196212E+00
         21   -1    0    0  501  502  0.00000000000E+00  0.00000000000E+00  0.12913308426E+03  0.12913308426E+03  0.00000000000E+00 0. -1.
         21   -1    0    0  502  503 -0.00000000000E+00 -0.00000000000E+00 -0.37936132593E+03  0.37936132593E+03  0.00000000000E+00 0.  1.
         24    1    1    2    0    0 -0.89462386403E+02 -0.19369274241E+01 -0.12702325935E+03  0.17495540757E+03  0.80419002446E+02 0.  1.
          1    1    1    2  501    0  0.25924552036E+02  0.81146862967E+02  0.73277695225E+02  0.11236777289E+03  0.00000000000E+00 0. -1.
         -2    1    1    2    0  503  0.63537834366E+02 -0.79209935542E+02 -0.19648267755E+03  0.22117122973E+03  0.00000000000E+00 0.  1.
<mgrwt>
<rscale>  2 0.15352090E+03</rscale>
<asrwt>0</asrwt>
<pdfrwt beam="1">  1       21 0.19866628E-01 0.15352090E+03</pdfrwt>
<pdfrwt beam="2">  1       21 0.58363281E-01 0.15352090E+03</pdfrwt>
<totfact> 0.65414596E+04</totfact>
</mgrwt>
</event>
<event>
 5    1  0.1624116E+000  0.8205726E+02  0.7546771E-02  0.1323313E+00
         21   -1    0    0  503  502  0.00000000000E+00  0.00000000000E+00  0.27022541177E+03  0.27022541177E+03  0.00000000000E+00 0.  1.
         21   -1    0    0  501  503 -0.00000000000E+00 -0.00000000000E+00 -0.62468584754E+02  0.62468584754E+02  0.00000000000E+00 0.  1.
         24    1    1    2    0    0  0.25894963297E+02  0.21399775763E+02 -0.21110038562E+02  0.89673570294E+02  0.80419002446E+02 0.  1.
          1    1    1    2  501    0 -0.20317152490E+02 -0.46766100075E+02  0.10850530888E+03  0.11988851845E+03  0.00000000000E+00 0. -1.
         -2    1    1    2    0  502 -0.55778108065E+01  0.25366324312E+02  0.12036155669E+03  0.12313190777E+03  0.00000000000E+00 0.  1.
<mgrwt>
<rscale>  2 0.82057256E+02</rscale>
<asrwt>0</asrwt>
<pdfrwt beam="1">  1       21 0.41573140E-01 0.82057256E+02</pdfrwt>
<pdfrwt beam="2">  1       21 0.96105517E-02 0.82057256E+02</pdfrwt>
<totfact> 0.49029037E+05</totfact>
</mgrwt>
</event>
<event>
 5    1  0.2116346E+000  0.7068094E+02  0.7546771E-02  0.1357793E+00
         21   -1    0    0  503  502  0.00000000000E+00  0.00000000000E+00  0.17122107853E+03  0.17122107853E+03  0.00000000000E+00 0. -1.
         21   -1    0    0  501  503 -0.00000000000E+00 -0.00000000000E+00 -0.35688899321E+03  0.35688899321E+03  0.00000000000E+00 0. -1.
         24    1    1    2    0    0  0.27171331989E+01 -0.11203023064E+02  0.71499333957E+02  0.10822320107E+03  0.80419002446E+02 0. -1.
          1    1    1    2  501    0  0.25957099345E+00  0.35570887823E+02 -0.33571394957E+03  0.33759326322E+03  0.00000000000E+00 0. -1.
         -2    1    1    2    0  502 -0.29767041924E+01 -0.24367864759E+02  0.78546700926E+02  0.82293607450E+02  0.00000000000E+00 0.  1.
<mgrwt>
<rscale>  2 0.70680939E+02</rscale>
<asrwt>0</asrwt>
<pdfrwt beam="1">  1       21 0.26341704E-01 0.70680939E+02</pdfrwt>
<pdfrwt beam="2">  1       21 0.54905999E-01 0.70680939E+02</pdfrwt>
<totfact> 0.46292922E+04</totfact>
</mgrwt>
</event>
<event>
 5    1  0.1624116E+000  0.6294489E+02  0.7546771E-02  0.1385873E+00
         21   -1    0    0  503  502  0.00000000000E+00  0.00000000000E+00  0.91829706411E+03  0.91829706411E+03  0.00000000000E+00 0.  1.
         21   -1    0    0  501  503 -0.00000000000E+00 -0.00000000000E+00 -0.43177169468E+02  0.43177169468E+02  0.00000000000E+00 0. -1.
         24    1    1    2    0    0 -0.25648031618E+01 -0.45149404806E+01  0.10026917087E+03  0.12863936211E+03  0.80419002446E+02 0.  1.
          1    1    1    2  501    0  0.69135574729E+01  0.24187329300E+02 -0.23384063351E+02  0.34345867210E+02  0.00000000000E+00 0. -1.
         -2    1    1    2    0  502 -0.43487543111E+01 -0.19672388819E+02  0.79823478713E+03  0.79848900426E+03  0.00000000000E+00 0.  1.
<mgrwt>
<rscale>  2 0.62944893E+02</rscale>
<asrwt>0</asrwt>
<pdfrwt beam="1">  1       21 0.14127646E+00 0.62944893E+02</pdfrwt>
<pdfrwt beam="2">  1       21 0.66426421E-02 0.62944893E+02</pdfrwt>
<totfact> 0.63316488E+04</totfact>
</mgrwt>
</event>
<event>
 5    1  0.1624116E+000  0.1049763E+03  0.7546771E-02  0.1270166E+00
         21   -1    0    0  503  502  0.00000000000E+00  0.00000000000E+00  0.10470721222E+03  0.10470721222E+03  0.00000000000E+00 0. -1.
         21   -1    0    0  501  503 -0.00000000000E+00 -0.00000000000E+00 -0.16702457785E+03  0.16702457785E+03  0.00000000000E+00 0.  1.
         24    1    1    2    0    0  0.37392875540E+02 -0.43927449208E+01  0.81428125359E+01  0.89168630692E+02  0.80419002446E+02 0. -1.
          1    1    1    2  501    0 -0.12828094208E+02  0.59476247916E+02 -0.98715439472E+02  0.11596000197E+03  0.00000000000E+00 0. -1.
         -2    1    1    2    0  502 -0.24564781332E+02 -0.55083502995E+02  0.28255261305E+02  0.66603157399E+02  0.00000000000E+00 0.  1.
<mgrwt>
<rscale>  2 0.10497634E+03</rscale>
<asrwt>0</asrwt>
<pdfrwt beam="1">  1       21 0.16108802E-01 0.10497634E+03</pdfrwt>
<pdfrwt beam="2">  1       21 0.25696089E-01 0.10497634E+03</pdfrwt>
<totfact> 0.49965998E+05</totfact>
</mgrwt>
</event>
<event>
 5    1  0.1624116E+000  0.1409293E+03  0.7546771E-02  0.1212084E+00
         21   -1    0    0  503  502  0.00000000000E+00  0.00000000000E+00  0.35704706533E+03  0.35704706533E+03  0.00000000000E+00 0.  1.
         21   -1    0    0  501  503 -0.00000000000E+00 -0.00000000000E+00 -0.97573603319E+02  0.97573603319E+02  0.00000000000E+00 0.  1.
         24    1    1    2    0    0  0.40854108542E+02  0.82736292412E+02  0.65540463007E+02  0.13884207040E+03  0.80419002446E+02 0.  1.
          1    1    1    2  501    0 -0.11033113047E+02  0.35679423819E+02 -0.38239645089E+02  0.53451111533E+02  0.00000000000E+00 0. -1.
         -2    1    1    2    0  502 -0.29820995495E+02 -0.11841571623E+03  0.23217264409E+03  0.26232748672E+03  0.00000000000E+00 0.  1.
<mgrwt>
<rscale>  2 0.14092927E+03</rscale>
<asrwt>0</asrwt>
<pdfrwt beam="1">  1       21 0.54930317E-01 0.14092927E+03</pdfrwt>
<pdfrwt beam="2">  1       21 0.15011324E-01 0.14092927E+03</pdfrwt>
<totfact> 0.12478852E+05</totfact>
</mgrwt>
</event>
<event>
 5    1  0.1624116E+000  0.6475693E+02  0.7546771E-02  0.1378888E+00
         21   -1    0    0  503  502  0.00000000000E+00  0.00000000000E+00  0.21510960189E+03  0.21510960189E+03  0.00000000000E+00 0.  1.
         21   -1    0    0  501  503 -0.00000000000E+00 -0.00000000000E+00 -0.89835486286E+02  0.89835486286E+02  0.00000000000E+00 0. -1.
         24    1    1    2    0    0  0.67189095903E+01  0.21351100981E+01  0.44887620590E+02  0.92367834649E+02  0.80419002446E+02 0.  0.
          1    1    1    2  501    0  0.20674159666E+02 -0.49219173215E+01 -0.63043031294E+02  0.66528715175E+02  0.00000000000E+00 0. -1.
         -2    1    1    2    0  502 -0.27393069256E+02  0.27868072234E+01  0.14342952631E+03  0.14604853836E+03  0.00000000000E+00 0.  1.
<mgrwt>
<rscale>  2 0.64756931E+02</rscale>
<asrwt>0</asrwt>
<pdfrwt beam="1">  1       21 0.33093785E-01 0.64756931E+02</pdfrwt>
<pdfrwt beam="2">  1       21 0.13820844E-01 0.64756931E+02</pdfrwt>
<totfact> 0.40615447E+05</totfact>
</mgrwt>
</event>
<event>
 5    1  0.1624116E+000  0.8677318E+02  0.7546771E-02  0.1310860E+00
         21   -1    0    0  501  502  0.00000000000E+00  0.00000000000E+00  0.14430763802E+03  0.14430763802E+03  0.00000000000E+00 0. -1.
         21   -1    0    0  502  503 -0.00000000000E+00 -0.00000000000E+00 -0.12601122955E+03  0.12601122955E+03  0.00000000000E+00 0.  1.
         24    1    1    2    0    0  0.33325341422E+02  0.33539679320E+02  0.11245617293E+03  0.14611329596E+03  0.80419002446E+02 0. -1.
          1    1    1    2  501    0  0.19721523770E+02 -0.11374866427E+02 -0.19506209675E+02  0.29980298563E+02  0.00000000000E+00 0. -1.
         -2    1    1    2    0  503 -0.53046865192E+02 -0.22164812893E+02 -0.74653554794E+02  0.94225273047E+02  0.00000000000E+00 0.  1.
<mgrwt>
<rscale>  2 0.86773178E+02</rscale>
<asrwt>0</asrwt>
<pdfrwt beam="1">  1       21 0.22201175E-01 0.86773178E+02</pdfrwt>
<pdfrwt beam="2">  1       21 0.19386343E-01 0.86773178E+02</pdfrwt>
<totfact> 0.46939731E+05</totfact>
</mgrwt>
</event>
<event>
 5    1  0.1624116E+000  0.8864303E+02  0.7546771E-02  0.1306171E+00
         21   -1    0    0  501  502  0.00000000000E+00  0.00000000000E+00  0.20232032208E+03  0.20232032208E+03  0.00000000000E+00 0.  1.
         21   -1    0    0  502  503 -0.00000000000E+00 -0.00000000000E+00 -0.86696122411E+02  0.86696122411E+02  0.00000000000E+00 0. -1.
         24    1    1    2    0    0 -0.36548340909E+02  0.17184352270E+02 -0.12762293224E+02  0.90891007635E+02  0.80419002446E+02 0. -1.
          1    1    1    2  501    0 -0.22828048884E+02  0.59186586169E+01  0.13221126780E+03  0.13429806279E+03  0.00000000000E+00 0. -1.
         -2    1    1    2    0  503  0.59376389793E+02 -0.23103010887E+02 -0.38247749092E+01  0.63827374064E+02  0.00000000000E+00 0.  1.
<mgrwt>
<rscale>  2 0.88643032E+02</rscale>
<asrwt>0</asrwt>
<pdfrwt beam="1">  1       21 0.31126203E-01 0.88643032E+02</pdfrwt>
<pdfrwt beam="2">  1       21 0.13337865E-01 0.88643032E+02</pdfrwt>
<totfact> 0.48644037E+05</totfact>
</mgrwt>
</event>
<event>
 5    1  0.1624116E+000  0.8299741E+02  0.7546771E-02  0.1320754E+00
         21   -1    0    0  503  502  0.00000000000E+00  0.00000000000E+00  0.60164578329E+01  0.60164578329E+01  0.00000000000E+00 0. -1.
         21   -1    0    0  501  503 -0.00000000000E+00 -0.00000000000E+00 -0.19949048915E+04  0.19949048915E+04  0.00000000000E+00 0. -1.
         24    1    1    2    0    0 -0.12047952353E+02  0.54687814325E+02 -0.58507895602E+03  0.59322888578E+03  0.80419002446E+02 0. -1.
          1    1    1    2  501    0 -0.14105426732E+02 -0.22047833781E+02 -0.11618369401E+04  0.11621317247E+04  0.00000000000E+00 0. -1.
         -2    1    1    2    0  502  0.26153379085E+02 -0.32639980545E+02 -0.24197253751E+03  0.24556073887E+03  0.00000000000E+00 0.  1.
<mgrwt>
<rscale>  2 0.82997413E+02</rscale>
<asrwt>0</asrwt>
<pdfrwt beam="1">  1       21 0.92560987E-03 0.82997413E+02</pdfrwt>
<pdfrwt beam="2">  1       21 0.30690812E+00 0.82997413E+02</pdfrwt>
<totfact> 0.14882229E+05</totfact>
</mgrwt>
</event>
<event>
 5    1  0.1624116E+000  0.7775873E+02  0.7546771E-02  0.1335535E+00
         21   -1    0    0  501  502  0.00000000000E+00  0.00000000000E+00  0.79089074204E+01  0.79089074204E+01  0.00000000000E+00 0. -1.
         21   -1    0    0  502  503 -0.00000000000E+00 -0.00000000000E+00 -0.24566163700E+04  0.24566163700E+04  0.00000000000E+00 0.  1.
         24    1    1    2    0    0  0.42249216503E+02 -0.69312621362E+01 -0.29789938442E+03  0.31151933789E+03  0.80419002446E+02 0. -1.
          1    1    1    2  501    0 -0.12695363343E+02 -0.20484664507E+02 -0.16138552423E+03  0.16317500164E+03  0.00000000000E+00 0. -1.
         -2    1    1    2    0  503 -0.29553853160E+02  0.27415926643E+02 -0.19894225540E+04  0.19898309379E+04  0.00000000000E+00 0.  1.
<mgrwt>
<rscale>  2 0.77758735E+02</rscale>
<asrwt>0</asrwt>
<pdfrwt beam="1">  1       21 0.12167528E-02 0.77758735E+02</pdfrwt>
<pdfrwt beam="2">  1       21 0.37794166E+00 0.77758735E+02</pdfrwt>
<totfact> 0.39448808E+04</totfact>
</mgrwt>
</event>
<event>
 5    1  0.1624116E+000  0.7476617E+02  0.7546771E-02  0.1344597E+00
         21   -1    0    0  503  502  0.00000000000E+00  0.00000000000E+00  0.42086400163E+02  0.42086400163E+02  0.00000000000E+00 0.  1.
         21   -1    0    0  501  503 -0.00000000000E+00 -0.00000000000E+00 -0.18202199362E+03  0.18202199362E+03  0.00000000000E+00 0. -1.
         24    1    1    2    0    0 -0.42402817511E+02 -0.13318537917E+00 -0.76063731419E+02  0.11853659293E+03  0.80419002446E+02 0.  1.
          1    1    1    2  501    0  0.10043942974E+02 -0.18665254032E+02 -0.64757725227E+02  0.68138355389E+02  0.00000000000E+00 0. -1.
         -2    1    1    2    0  502  0.32358874538E+02  0.18798439411E+02  0.88586319107E+00  0.37433445463E+02  0.00000000000E+00 0.  1.
<mgrwt>
<rscale>  2 0.74766168E+02</rscale>
<asrwt>0</asrwt>
<pdfrwt beam="1">  1       21 0.64748307E-02 0.74766168E+02</pdfrwt>
<pdfrwt beam="2">  1       21 0.28003384E-01 0.74766168E+02</pdfrwt>
<totfact> 0.20542270E+06</totfact>
</mgrwt>
</event>
<event>
 5    1  0.1624116E+000  0.1065022E+03  0.7546771E-02  0.1267188E+00
         21   -1    0    0  503  502  0.00000000000E+00  0.00000000000E+00  0.21042038874E+03  0.21042038874E+03  0.00000000000E+00 0.  1.
         21   -1    0    0  501  503 -0.00000000000E+00 -0.00000000000E+00 -0.74168848813E+02  0.74168848813E+02  0.00000000000E+00 0.  1.
         24    1    1    2    0    0  0.83145967529E+02 -0.17363446659E+02  0.57740972154E+02  0.13044530277E+03  0.80419002446E+02 0.  1.
          1    1    1    2  501    0 -0.43370769246E+02 -0.13790960669E+02 -0.14948231516E+02  0.47902649683E+02  0.00000000000E+00 0. -1.
         -2    1    1    2    0  502 -0.39775198283E+02  0.31154407328E+02  0.93458799292E+02  0.10624128510E+03  0.00000000000E+00 0.  1.
<mgrwt>
<rscale>  2 0.10650219E+03</rscale>
<asrwt>0</asrwt>
<pdfrwt beam="1">  1       21 0.32372367E-01 0.10650219E+03</pdfrwt>
<pdfrwt beam="2">  1       21 0.11410592E-01 0.10650219E+03</pdfrwt>
<totfact> 0.59365254E+05</totfact>
</mgrwt>
</event>
<event>
 5    1  0.1624116E+000  0.7274617E+02  0.7546771E-02  0.1350996E+00
         21   -1    0    0  503  502  0.00000000000E+00  0.00000000000E+00  0.11472292537E+04  0.11472292537E+04  0.00000000000E+00 0.  1.
         21   -1    0    0  501  503 -0.00000000000E+00 -0.00000000000E+00 -0.68420753528E+01  0.68420753528E+01  0.00000000000E+00 0.  1.
         24    1    1    2    0    0  0.17474937789E+02 -0.25948868868E+02  0.43894695892E+03  0.44734814847E+03  0.80419002446E+02 0.  1.
          1    1    1    2  501    0  0.17752123004E+02  0.11348996001E+02  0.51200790659E+02  0.55366583293E+02  0.00000000000E+00 0. -1.
         -2    1    1    2    0  502 -0.35227060793E+02  0.14599872867E+02  0.65023942879E+03  0.65135659730E+03  0.00000000000E+00 0.  1.
<mgrwt>
<rscale>  2 0.72746169E+02</rscale>
<asrwt>0</asrwt>
<pdfrwt beam="1">  1       21 0.17649666E+00 0.72746169E+02</pdfrwt>
<pdfrwt beam="2">  1       21 0.10526279E-02 0.72746169E+02</pdfrwt>
<totfact> 0.68866024E+05</totfact>
</mgrwt>
</event>
<event>
 5    1  0.1624116E+000  0.1004662E+03  0.7546771E-02  0.1279319E+00
         21   -1    0    0  503  502  0.00000000000E+00  0.00000000000E+00  0.67757114157E+03  0.67757114157E+03  0.00000000000E+00 0.  1.
         21   -1    0    0  501  503 -0.00000000000E+00 -0.00000000000E+00 -0.53819872995E+02  0.53819872995E+02  0.00000000000E+00 0.  1.
         24    1    1    2    0    0 -0.61063567996E+02  0.51349678571E+02  0.43621503486E+02  0.12139028110E+03  0.80419002446E+02 0.  1.
          1    1    1    2  501    0  0.28698226174E+02 -0.46896062984E+02  0.37876543362E+02  0.66764222799E+02  0.00000000000E+00 0. -1.
         -2    1    1    2    0  502  0.32365341822E+02 -0.44536155867E+01  0.54225322172E+03  0.54323651066E+03  0.00000000000E+00 0.  1.
<mgrwt>
<rscale>  2 0.10046619E+03</rscale>
<asrwt>0</asrwt>
<pdfrwt beam="1">  1       21 0.10424171E+00 0.10046619E+03</pdfrwt>
<pdfrwt beam="2">  1       21 0.82799809E-02 0.10046619E+03</pdfrwt>
<totfact> 0.87813447E+04</totfact>
</mgrwt>
</event>
<event>
 5    1  0.1624116E+000  0.7715921E+02  0.7546771E-02  0.1337312E+00
         21   -1    0    0  501  502  0.00000000000E+00  0.00000000000E+00  0.16882421896E+03  0.16882421896E+03  0.00000000000E+00 0.  1.
         21   -1    0    0  502  503 -0.00000000000E+00 -0.00000000000E+00 -0.39261702583E+02  0.39261702583E+02  0.00000000000E+00 0.  1.
         24    1    1    2    0    0 -0.33003496668E+02  0.26991881235E+02  0.98827719216E+02  0.13435745787E+03  0.80419002446E+02 0.  0.
          1    1    1    2  501    0  0.30356518402E+02  0.53688194301E+01  0.27120260418E+02  0.41059115391E+02  0.00000000000E+00 0. -1.
         -2    1    1    2    0  503  0.26469782659E+01 -0.32360700665E+02  0.36145367429E+01  0.32669348285E+02  0.00000000000E+00 0.  1.
<mgrwt>
<rscale>  2 0.77159211E+02</rscale>
<asrwt>0</asrwt>
<pdfrwt beam="1">  1       21 0.25972956E-01 0.77159211E+02</pdfrwt>
<pdfrwt beam="2">  1       21 0.60402620E-02 0.77159211E+02</pdfrwt>
<totfact> 0.26621581E+06</totfact>
</mgrwt>
</event>
<event>
 5    1  0.1624116E+000  0.7816651E+02  0.7546771E-02  0.1334337E+00
         21   -1    0    0  501  502  0.00000000000E+00  0.00000000000E+00  0.12561767505E+02  0.12561767505E+02  0.00000000000E+00 0. -1.
         21   -1    0    0  502  503 -0.00000000000E+00 -0.00000000000E+00 -0.66934289566E+03  0.66934289566E+03  0.00000000000E+00 0. -1.
         24    1    1    2    0    0 -0.37579055058E+02 -0.30866752502E+02 -0.39144014463E+03  0.40256371492E+03  0.80419002446E+02 0. -1.
          1    1    1    2  501    0  0.38382736482E+02  0.76684898203E+01 -0.53808349108E+02  0.66538549951E+02  0.00000000000E+00 0. -1.
         -2    1    1    2    0  503 -0.80368142387E+00  0.23198262682E+02 -0.21153263442E+03  0.21280239829E+03  0.00000000000E+00 0.  1.
<mgrwt>
<rscale>  2 0.78166513E+02</rscale>
<asrwt>0</asrwt>
<pdfrwt beam="1">  1       21 0.19325793E-02 0.78166513E+02</pdfrwt>
<pdfrwt beam="2">  1       21 0.10297584E+00 0.78166513E+02</pdfrwt>
<totfact> 0.10003786E+06</totfact>
</mgrwt>
</event>
<event>
 5    1  0.1624116E+000  0.7722880E+02  0.7546771E-02  0.1337105E+00
         21   -1    0    0  501  502  0.00000000000E+00  0.00000000000E+00  0.17484169061E+02  0.17484169061E+02  0.00000000000E+00 0.  1.
         21   -1    0    0  502  503 -0.00000000000E+00 -0.00000000000E+00 -0.43185570638E+03  0.43185570638E+03  0.00000000000E+00 0. -1.
         24    1    1    2    0    0 -0.38330476887E+01  0.18027035961E+02 -0.29013681188E+03  0.30163927437E+03  0.80419002446E+02 0.  0.
          1    1    1    2  501    0  0.15440765834E+02  0.23897567293E+02 -0.20073755654E+02  0.34820491641E+02  0.00000000000E+00 0. -1.
         -2    1    1    2    0  503 -0.11607718145E+02 -0.41924603255E+02 -0.10416096979E+03  0.11288010944E+03  0.00000000000E+00 0.  1.
<mgrwt>
<rscale>  2 0.77228797E+02</rscale>
<asrwt>0</asrwt>
<pdfrwt beam="1">  1       21 0.26898726E-02 0.77228797E+02</pdfrwt>
<pdfrwt beam="2">  1       21 0.66439329E-01 0.77228797E+02</pdfrwt>
<totfact> 0.15548863E+06</totfact>
</mgrwt>
</event>
<event>
 5    1  0.1624116E+000  0.1078330E+03  0.7546771E-02  0.1264636E+00
         21   -1    0    0  503  502  0.00000000000E+00  0.00000000000E+00  0.16060929889E+03  0.16060929889E+03  0.00000000000E+00 0.  1.
         21   -1    0    0  501  503 -0.00000000000E+00 -0.00000000000E+00 -0.78868603791E+02  0.78868603791E+02  0.00000000000E+00 0. -1.
         24    1    1    2    0    0 -0.54031294219E+02 -0.45254341559E+02  0.46280818826E+02  0.11651809443E+03  0.80419002446E+02 0. -1.
          1    1    1    2  501    0 -0.17077034417E+02  0.32184030841E+02 -0.97153255671E+01  0.37707088147E+02  0.00000000000E+00 0. -1.
         -2    1    1    2    0  502  0.71108328636E+02  0.13070310718E+02  0.45175201844E+02  0.85252720105E+02  0.00000000000E+00 0.  1.
<mgrwt>
<rscale>  2 0.10783302E+03</rscale>
<asrwt>0</asrwt>
<pdfrwt beam="1">  1       21 0.24709123E-01 0.10783302E+03</pdfrwt>
<pdfrwt beam="2">  1       21 0.12133631E-01 0.10783302E+03</pdfrwt>
<totfact> 0.89176033E+05</totfact>
</mgrwt>
</event>
<event>
 5    1  0.1624116E+000  0.7157244E+02  0.7546771E-02  0.1354826E+00
         21   -1    0    0  503  502  0.00000000000E+00  0.00000000000E+00  0.86874914159E+03  0.86874914159E+03  0.00000000000E+00 0. -1.
         21   -1    0    0  501  503 -0.00000000000E+00 -0.00000000000E+00 -0.10332514292E+02  0.10332514292E+02  0.00000000000E+00 0. -1.
         24    1    1    2    0    0  0.27460161423E+02  0.39454323797E+02  0.60751880504E+03  0.61470075530E+03  0.80419002446E+02 0. -1.
          1    1    1    2  501    0 -0.67643900982E+01 -0.19758809450E+02  0.12630618149E+02  0.24406967020E+02  0.00000000000E+00 0. -1.
         -2    1    1    2    0  502 -0.20695771325E+02 -0.19695514347E+02  0.23826720411E+03  0.23997393357E+03  0.00000000000E+00 0.  1.
<mgrwt>
<rscale>  2 0.71572444E+02</rscale>
<asrwt>0</asrwt>
<pdfrwt beam="1">  1       21 0.13365366E+00 0.71572444E+02</pdfrwt>
<pdfrwt beam="2">  1       21 0.15896183E-02 0.71572444E+02</pdfrwt>
<totfact> 0.73299001E+05</totfact>
</mgrwt>
</event>
<event>
 5    1  0.1624116E+000  0.6227105E+02  0.7546771E-02  0.1388541E+00
         21   -1    0    0  503  502  0.00000000000E+00  0.00000000000E+00  0.35547043919E+02  0.35547043919E+02  0.00000000000E+00 0.  1.
         21   -1    0    0  501  503 -0.00000000000E+00 -0.00000000000E+00 -0.21876015021E+03  0.21876015021E+03  0.00000000000E+00 0. -1.
         24    1    1    2    0    0 -0.81373700527E+01 -0.97195590545E+01 -0.13472324552E+03  0.15741110335E+03  0.80419002446E+02 0. -1.
          1    1    1    2  501    0 -0.88344311962E+01  0.20978908460E+02 -0.66138618451E+02  0.69946255263E+02  0.00000000000E+00 0. -1.
         -2    1    1    2    0  502  0.16971801249E+02 -0.11259349405E+02  0.17648757682E+02  0.26949835516E+02  0.00000000000E+00 0.  1.
<mgrwt>
<rscale>  2 0.62271053E+02</rscale>
<asrwt>0</asrwt>
<pdfrwt beam="1">  1       21 0.54687761E-02 0.62271053E+02</pdfrwt>
<pdfrwt beam="2">  1       21 0.33655407E-01 0.62271053E+02</pdfrwt>
<totfact> 0.19027334E+06</totfact>
</mgrwt>
</event>
<event>
 5    1  0.1624116E+000  0.7732412E+02  0.7546771E-02  0.1336821E+00
         21   -1    0    0  501  502  0.00000000000E+00  0.00000000000E+00  0.24005512291E+02  0.24005512291E+02  0.00000000000E+00 0. -1.
         21   -1    0    0  502  503 -0.00000000000E+00 -0.00000000000E+00 -0.53259868644E+03  0.53259868644E+03  0.00000000000E+00 0. -1.
         24    1    1    2    0    0  0.37952914518E+02 -0.12575499963E+02 -0.42785434943E+03  0.43717859874E+03  0.80419002446E+02 0. -1.
          1    1    1    2  501    0 -0.20676162983E+02 -0.19490472789E+02  0.25418577715E+01  0.28527938695E+02  0.00000000000E+00 0. -1.
         -2    1    1    2    0  503 -0.17276751535E+02  0.32065972753E+02 -0.83280682492E+02  0.90897661293E+02  0.00000000000E+00 0.  1.
<mgrwt>
<rscale>  2 0.77324122E+02</rscale>
<asrwt>0</asrwt>
<pdfrwt beam="1">  1       21 0.36931555E-02 0.77324122E+02</pdfrwt>
<pdfrwt beam="2">  1       21 0.81938264E-01 0.77324122E+02</pdfrwt>
<totfact> 0.59027253E+05</totfact>
</mgrwt>
</event>
<event>
 5    1  0.1811551E+000  0.1553738E+03  0.7546771E-02  0.1194021E+00
         21   -1    0    0  503  502  0.00000000000E+00  0.00000000000E+00  0.23972615014E+03  0.23972615014E+03  0.00000000000E+00 0.  1.
         21   -1    0    0  501  503 -0.00000000000E+00 -0.00000000000E+00 -0.14417980697E+03  0.14417980697E+03  0.00000000000E+00 0. -1.
         24    1    1    2    0    0  0.66841795053E+02 -0.51530502542E+02  0.73868090985E+02  0.13801061219E+03  0.80419002446E+02 0. -1.
          1    1    1    2  501    0 -0.11728911475E+03  0.74278142077E+02 -0.56689087904E+02  0.14995876606E+03  0.00000000000E+00 0. -1.
         -2    1    1    2    0  502  0.50447319700E+02 -0.22747639535E+02  0.78367340094E+02  0.95936578857E+02  0.00000000000E+00 0.  1.
<mgrwt>
<rscale>  2 0.15537381E+03</rscale>
<asrwt>0</asrwt>
<pdfrwt beam="1">  1       21 0.36880946E-01 0.15537381E+03</pdfrwt>
<pdfrwt beam="2">  1       21 0.22181509E-01 0.15537381E+03</pdfrwt>
<totfact> 0.13649990E+05</totfact>
</mgrwt>
</event>
<event>
 5    1  0.1624116E+000  0.7925609E+02  0.7546771E-02  0.1331176E+00
         21   -1    0    0  501  502  0.00000000000E+00  0.00000000000E+00  0.66287832940E+03  0.66287832940E+03  0.00000000000E+00 0.  1.
         21   -1    0    0  502  503 -0.00000000000E+00 -0.00000000000E+00 -0.15967226140E+02  0.15967226140E+02  0.00000000000E+00 0. -1.
         24    1    1    2    0    0 -0.16458917782E+01  0.47242709095E+02  0.32666380846E+03  0.33972200729E+03  0.80419002446E+02 0.  0.
          1    1    1    2  501    0  0.22498045906E+02 -0.33140517965E+02  0.30894285614E+03  0.31152872157E+03  0.00000000000E+00 0. -1.
         -2    1    1    2    0  503 -0.20852154128E+02 -0.14102191130E+02  0.11304438659E+02  0.27594826686E+02  0.00000000000E+00 0.  1.
<mgrwt>
<rscale>  2 0.79256088E+02</rscale>
<asrwt>0</asrwt>
<pdfrwt beam="1">  1       21 0.10198126E+00 0.79256088E+02</pdfrwt>
<pdfrwt beam="2">  1       21 0.24564968E-02 0.79256088E+02</pdfrwt>
<totfact> 0.69720567E+05</totfact>
</mgrwt>
</event>
<event>
 5    1  0.1624116E+000  0.6838673E+02  0.7546771E-02  0.1365667E+00
         21   -1    0    0  501  502  0.00000000000E+00  0.00000000000E+00  0.14541421811E+02  0.14541421811E+02  0.00000000000E+00 0. -1.
         21   -1    0    0  502  503 -0.00000000000E+00 -0.00000000000E+00 -0.34571197249E+03  0.34571197249E+03  0.00000000000E+00 0. -1.
         24    1    1    2    0    0  0.51737970668E+01 -0.23832206318E+02 -0.17477678141E+03  0.19393009439E+03  0.80419002446E+02 0. -1.
          1    1    1    2  501    0  0.15145218295E+02  0.28149700480E+02 -0.62978533276E+02  0.70626333105E+02  0.00000000000E+00 0. -1.
         -2    1    1    2    0  503 -0.20319015362E+02 -0.43174941620E+01 -0.93415235991E+02  0.95696966809E+02  0.00000000000E+00 0.  1.
<mgrwt>
<rscale>  2 0.68386728E+02</rscale>
<asrwt>0</asrwt>
<pdfrwt beam="1">  1       21 0.22371418E-02 0.68386728E+02</pdfrwt>
<pdfrwt beam="2">  1       21 0.53186459E-01 0.68386728E+02</pdfrwt>
<totfact> 0.33036166E+06</totfact>
</mgrwt>
</event>
<event>
 5    1  0.1624116E+000  0.8994681E+02  0.7546771E-02  0.1302981E+00
         21   -1    0    0  501  502  0.00000000000E+00  0.00000000000E+00  0.27181772041E+02  0.27181772041E+02  0.00000000000E+00 0. -1.
         21   -1    0    0  502  503 -0.00000000000E+00 -0.00000000000E+00 -0.44239847992E+03  0.44239847992E+03  0.00000000000E+00 0. -1.
         24    1    1    2    0    0  0.59719701175E+02  0.10215369542E+02 -0.35441927917E+03  0.36844407701E+03  0.80419002446E+02 0. -1.
          1    1    1    2  501    0 -0.58243787531E+02  0.98633448093E+01 -0.35935002028E+02  0.69144404889E+02  0.00000000000E+00 0. -1.
         -2    1    1    2    0  503 -0.14759136443E+01 -0.20078714351E+02 -0.24862426677E+02  0.31991770056E+02  0.00000000000E+00 0.  1.
<mgrwt>
<rscale>  2 0.89946813E+02</rscale>
<asrwt>0</asrwt>
<pdfrwt beam="1">  1       21 0.41818109E-02 0.89946813E+02</pdfrwt>
<pdfrwt beam="2">  1       21 0.68061307E-01 0.89946813E+02</pdfrwt>
<totfact> 0.72133219E+05</totfact>
</mgrwt>
</event>
<event>
 5    1  0.1624116E+000  0.1161932E+03  0.7546771E-02  0.1249513E+00
         21   -1    0    0  503  502  0.00000000000E+00  0.00000000000E+00  0.27956081696E+03  0.27956081696E+03  0.00000000000E+00 0. -1.
         21   -1    0    0  501  503 -0.00000000000E+00 -0.00000000000E+00 -0.60078192969E+02  0.60078192969E+02  0.00000000000E+00 0.  1.
         24    1    1    2    0    0 -0.30806814075E+02  0.49346184082E+00  0.14200229583E+02  0.87282104538E+02  0.80419002446E+02 0.  1.
          1    1    1    2  501    0  0.60169439632E+02 -0.56812903267E+02  0.10564328162E+03  0.13419601482E+03  0.00000000000E+00 0. -1.
         -2    1    1    2    0  502 -0.29362625558E+02  0.56319441426E+02  0.99639112788E+02  0.11816089057E+03  0.00000000000E+00 0.  1.
<mgrwt>
<rscale>  2 0.11619319E+03</rscale>
<asrwt>0</asrwt>
<pdfrwt beam="1">  1       21 0.43009356E-01 0.11619319E+03</pdfrwt>
<pdfrwt beam="2">  1       21 0.92427991E-02 0.11619319E+03</pdfrwt>
<totfact> 0.48936770E+05</totfact>
</mgrwt>
</event>
<event>
 5    1  0.1624116E+000  0.8117367E+02  0.7546771E-02  0.1325753E+00
         21   -1    0    0  501  502  0.00000000000E+00  0.00000000000E+00  0.47512413769E+02  0.47512413769E+02  0.00000000000E+00 0.  1.
         21   -1    0    0  502  503 -0.00000000000E+00 -0.00000000000E+00 -0.24905472321E+03  0.24905472321E+03  0.00000000000E+00 0.  1.
         24    1    1    2    0    0 -0.60627653108E+02 -0.61083632336E+01 -0.64231124965E+02  0.11960718119E+03  0.80419002446E+02 0.  1.
          1    1    1    2  501    0  0.38668904654E+02  0.42190297537E-01 -0.92059447175E+00  0.38679884453E+02  0.00000000000E+00 0. -1.
         -2    1    1    2    0  503  0.21958748454E+02  0.60661729361E+01 -0.13639059000E+03  0.13828007134E+03  0.00000000000E+00 0.  1.
<mgrwt>
<rscale>  2 0.81173675E+02</rscale>
<asrwt>0</asrwt>
<pdfrwt beam="1">  1       21 0.73096021E-02 0.81173675E+02</pdfrwt>
<pdfrwt beam="2">  1       21 0.38316111E-01 0.81173675E+02</pdfrwt>
<totfact> 0.91903084E+05</totfact>
</mgrwt>
</event>
<event>
 5    1  0.1624116E+000  0.1483927E+03  0.7546771E-02  0.1202462E+00
         21   -1    0    0  501  502  0.00000000000E+00  0.00000000000E+00  0.15308594348E+04  0.15308594348E+04  0.00000000000E+00 0. -1.
         21   -1    0    0  502  503 -0.00000000000E+00 -0.00000000000E+00 -0.44192203970E+02  0.44192203970E+02  0.00000000000E+00 0. -1.
         24    1    1    2    0    0 -0.10722210534E+03  0.71309822666E+02  0.14307704050E+03  0.20861429998E+03  0.80419002446E+02 0. -1.
          1    1    1    2  501    0  0.19419512081E+02 -0.51384618152E+02  0.11663231794E+04  0.11676160564E+04  0.00000000000E+00 0. -1.
         -2    1    1    2    0  503  0.87802593255E+02 -0.19925204514E+02  0.17726701094E+03  0.19882128237E+03  0.00000000000E+00 0.  1.
<mgrwt>
<rscale>  2 0.14839269E+03</rscale>
<asrwt>0</asrwt>
<pdfrwt beam="1">  1       21 0.23551680E+00 0.14839269E+03</pdfrwt>
<pdfrwt beam="2">  1       21 0.67988018E-02 0.14839269E+03</pdfrwt>
<totfact> 0.13453294E+04</totfact>
</mgrwt>
</event>
<event>
 5    1  0.2605276E+000  0.9549329E+02  0.7546771E-02  0.1290069E+00
         21   -1    0    0  501  502  0.00000000000E+00  0.00000000000E+00  0.22450402302E+03  0.22450402302E+03  0.00000000000E+00 0. -1.
         21   -1    0    0  502  503 -0.00000000000E+00 -0.00000000000E+00 -0.18747242422E+03  0.18747242422E+03  0.00000000000E+00 0.  1.
         24    1    1    2    0    0 -0.53204283797E+02  0.16393845639E+01  0.16114952233E+03  0.18780247042E+03  0.80419002446E+02 0. -1.
          1    1    1    2  501    0  0.39480554814E+02  0.36651724824E+02  0.32125552417E+02  0.62722517959E+02  0.00000000000E+00 0. -1.
         -2    1    1    2    0  503  0.13723728983E+02 -0.38291109388E+02 -0.15624347594E+03  0.16145145886E+03  0.00000000000E+00 0.  1.
<mgrwt>
<rscale>  2 0.95493287E+02</rscale>
<asrwt>0</asrwt>
<pdfrwt beam="1">  1       21 0.34539081E-01 0.95493287E+02</pdfrwt>
<pdfrwt beam="2">  1       21 0.28841911E-01 0.95493287E+02</pdfrwt>
<totfact> 0.96784442E+04</totfact>
</mgrwt>
</event>
<event>
 5    1  0.1624116E+000  0.9384764E+02  0.7546771E-02  0.1293793E+00
         21   -1    0    0  501  502  0.00000000000E+00  0.00000000000E+00  0.17027527027E+03  0.17027527027E+03  0.00000000000E+00 0.  1.
         21   -1    0    0  502  503 -0.00000000000E+00 -0.00000000000E+00 -0.84373891356E+02  0.84373891356E+02  0.00000000000E+00 0.  1.
         24    1    1    2    0    0 -0.11302149898E+02  0.57943401857E+01  0.33094445650E+02  0.87884988808E+02  0.80419002446E+02 0.  1.
          1    1    1    2  501    0 -0.13132751099E+02 -0.52203863444E+02  0.88313887425E+02  0.10342656923E+03  0.00000000000E+00 0. -1.
         -2    1    1    2    0  503  0.24434900997E+02  0.46409523258E+02 -0.35506954156E+02  0.63337603596E+02  0.00000000000E+00 0.  1.
<mgrwt>
<rscale>  2 0.93847642E+02</rscale>
<asrwt>0</asrwt>
<pdfrwt beam="1">  1       21 0.26196195E-01 0.93847642E+02</pdfrwt>
<pdfrwt beam="2">  1       21 0.12980599E-01 0.93847642E+02</pdfrwt>
<totfact> 0.70829775E+05</totfact>
</mgrwt>
</event>
<event>
 5    1  0.1624116E+000  0.1515145E+03  0.7546771E-02  0.1198624E+00
         21   -1    0    0  501  502  0.00000000000E+00  0.00000000000E+00  0.30068320202E+02  0.30068320202E+02  0.00000000000E+00 0. -1.
         21   -1    0    0  502  503 -0.00000000000E+00 -0.00000000000E+00 -0.13373330450E+04  0.13373330450E+04  0.00000000000E+00 0.  1.
         24    1    1    2    0    0 -0.45909601448E+02 -0.41404804053E+02 -0.57074171427E+03  0.57968557828E+03  0.80419002446E+02 0.  1.
          1    1    1    2  501    0  0.11510123447E+03 -0.97959611282E+01 -0.12515221342E+03  0.17031538848E+03  0.00000000000E+00 0. -1.
         -2    1    1    2    0  503 -0.69191633018E+02  0.51200765181E+02 -0.61137079713E+03  0.61740039846E+03  0.00000000000E+00 0.  1.
<mgrwt>
<rscale>  2 0.15151445E+03</rscale>
<asrwt>0</asrwt>
<pdfrwt beam="1">  1       21 0.46258962E-02 0.15151445E+03</pdfrwt>
<pdfrwt beam="2">  1       21 0.20574351E+00 0.15151445E+03</pdfrwt>
<totfact> 0.39037048E+04</totfact>
</mgrwt>
</event>
<event>
 5    1  0.1624116E+000  0.7433765E+02  0.7546771E-02  0.1345934E+00
         21   -1    0    0  501  502  0.00000000000E+00  0.00000000000E+00  0.22342758276E+02  0.22342758276E+02  0.00000000000E+00 0.  1.
         21   -1    0    0  502  503 -0.00000000000E+00 -0.00000000000E+00 -0.31895485128E+03  0.31895485128E+03  0.00000000000E+00 0. -1.
         24    1    1    2    0    0 -0.25495567508E+02 -0.24626804948E+02 -0.19510354768E+03  0.21398391004E+03  0.80419002446E+02 0. -1.
          1    1    1    2  501    0 -0.98312926537E+01  0.23468743171E+02 -0.69676743349E+01  0.26381522073E+02  0.00000000000E+00 0. -1.
         -2    1    1    2    0  503  0.35326860162E+02  0.11580617774E+01 -0.94540870988E+02  0.10093217744E+03  0.00000000000E+00 0.  1.
<mgrwt>
<rscale>  2 0.74337649E+02</rscale>
<asrwt>0</asrwt>
<pdfrwt beam="1">  1       21 0.34373475E-02 0.74337649E+02</pdfrwt>
<pdfrwt beam="2">  1       21 0.49069975E-01 0.74337649E+02</pdfrwt>
<totfact> 0.19571856E+06</totfact>
</mgrwt>
</event>
<event>
 5    1  0.1624116E+000  0.8797954E+02  0.7546771E-02  0.1307820E+00
         21   -1    0    0  503  502  0.00000000000E+00  0.00000000000E+00  0.16238684454E+02  0.16238684454E+02  0.00000000000E+00 0.  1.
         21   -1    0    0  501  503 -0.00000000000E+00 -0.00000000000E+00 -0.12508631357E+04  0.12508631357E+04  0.00000000000E+00 0. -1.
         24    1    1    2    0    0 -0.11630121343E+02 -0.21962622088E+02 -0.13089999599E+03  0.15562660889E+03  0.80419002446E+02 0.  1.
          1    1    1    2  501    0  0.84664844164E+00  0.56039174857E+02 -0.10035780728E+04  0.10051418079E+04  0.00000000000E+00 0. -1.
         -2    1    1    2    0  502  0.10783472902E+02 -0.34076552768E+02 -0.10014638255E+03  0.10633340338E+03  0.00000000000E+00 0.  1.
<mgrwt>
<rscale>  2 0.87979538E+02</rscale>
<asrwt>0</asrwt>
<pdfrwt beam="1">  1       21 0.24982595E-02 0.87979538E+02</pdfrwt>
<pdfrwt beam="2">  1       21 0.19244045E+00 0.87979538E+02</pdfrwt>
<totfact> 0.13723662E+05</totfact>
</mgrwt>
</event>
<event>
 5    1  0.1624116E+000  0.7262431E+02  0.7546771E-02  0.1351390E+00
         21   -1    0    0  503  502  0.00000000000E+00  0.00000000000E+00  0.76454769757E+02  0.76454769757E+02  0.00000000000E+00 0.  1.
         21   -1    0    0  501  503 -0.00000000000E+00 -0.00000000000E+00 -0.93308805885E+02  0.93308805885E+02  0.00000000000E+00 0. -1.
         24    1    1    2    0    0 -0.42060939656E+02  0.13063971128E+02 -0.22729884467E+01  0.91717895839E+02  0.80419002446E+02 0.  0.
          1    1    1    2  501    0  0.22456140491E+02  0.88663577691E+01 -0.34797417991E+02  0.42352695837E+02  0.00000000000E+00 0. -1.
         -2    1    1    2    0  502  0.19604799165E+02 -0.21930328897E+02  0.20216370310E+02  0.35692983965E+02  0.00000000000E+00 0.  1.
<mgrwt>
<rscale>  2 0.72624311E+02</rscale>
<asrwt>0</asrwt>
<pdfrwt beam="1">  1       21 0.11762272E-01 0.72624311E+02</pdfrwt>
<pdfrwt beam="2">  1       21 0.14355201E-01 0.72624311E+02</pdfrwt>
<totfact> 0.24990076E+06</totfact>
</mgrwt>
</event>
<event>
 5    1  0.1624116E+000  0.6780492E+02  0.7546771E-02  0.1367721E+00
         21   -1    0    0  501  502  0.00000000000E+00  0.00000000000E+00  0.54428657681E+03  0.54428657681E+03  0.00000000000E+00 0. -1.
         21   -1    0    0  502  503 -0.00000000000E+00 -0.00000000000E+00 -0.98435493076E+01  0.98435493076E+01  0.00000000000E+00 0.  1.
         24    1    1    2    0    0  0.26785498657E+01 -0.26638465247E+02  0.24961241573E+03  0.26361023596E+03  0.80419002446E+02 0.  1.
          1    1    1    2  501    0  0.20266845966E+02  0.10744276841E+02  0.19772852759E+03  0.19905465368E+03  0.00000000000E+00 0. -1.
         -2    1    1    2    0  503 -0.22945395831E+02  0.15894188406E+02  0.87102084182E+02  0.91465236477E+02  0.00000000000E+00 0.  1.
<mgrwt>
<rscale>  2 0.67804920E+02</rscale>
<asrwt>0</asrwt>
<pdfrwt beam="1">  1       21 0.83736373E-01 0.67804920E+02</pdfrwt>
<pdfrwt beam="2">  1       21 0.15143926E-02 0.67804920E+02</pdfrwt>
<totfact> 0.23383277E+06</totfact>
</mgrwt>
</event>
<event>
 5    1  0.1624116E+000  0.6992307E+02  0.7546771E-02  0.1360355E+00
         21   -1    0    0  503  502  0.00000000000E+00  0.00000000000E+00  0.14531464870E+02  0.14531464870E+02  0.00000000000E+00 0.  1.
         21   -1    0    0  501  503 -0.00000000000E+00 -0.00000000000E+00 -0.34304230043E+03  0.34304230043E+03  0.00000000000E+00 0. -1.
         24    1    1    2    0    0  0.99083872489E+01  0.17240203105E+02 -0.18878296386E+03  0.20615922036E+03  0.80419002446E+02 0.  1.
          1    1    1    2  501    0  0.11340939698E+02 -0.30101363119E+02 -0.94363098638E+02  0.99695051830E+02  0.00000000000E+00 0. -1.
         -2    1    1    2    0  502 -0.21249326947E+02  0.12861160014E+02 -0.45364773059E+02  0.51719493108E+02  0.00000000000E+00 0.  1.
<mgrwt>
<rscale>  2 0.69923074E+02</rscale>
<asrwt>0</asrwt>
<pdfrwt beam="1">  1       21 0.22356101E-02 0.69923074E+02</pdfrwt>
<pdfrwt beam="2">  1       21 0.52775737E-01 0.69923074E+02</pdfrwt>
<totfact> 0.33644375E+06</totfact>
</mgrwt>
</event>
<event>
 5    1  0.1624116E+000  0.7218711E+02  0.7546771E-02  0.1352810E+00
         21   -1    0    0  503  502  0.00000000000E+00  0.00000000000E+00  0.11397441799E+02  0.11397441799E+02  0.00000000000E+00 0.  1.
         21   -1    0    0  501  503 -0.00000000000E+00 -0.00000000000E+00 -0.47614147494E+03  0.47614147494E+03  0.00000000000E+00 0.  1.
         24    1    1    2    0    0  0.31460123504E+01 -0.38393065991E+02 -0.29144654101E+03  0.30478226184E+03  0.80419002446E+02 0.  1.
          1    1    1    2  501    0  0.18104021994E+02  0.14229880787E+02 -0.10148245503E+03  0.10406216314E+03  0.00000000000E+00 0. -1.
         -2    1    1    2    0  502 -0.21250034344E+02  0.24163185204E+02 -0.71815037100E+02  0.78694491755E+02  0.00000000000E+00 0.  1.
<mgrwt>
<rscale>  2 0.72187109E+02</rscale>
<asrwt>0</asrwt>
<pdfrwt beam="1">  1       21 0.17534524E-02 0.72187109E+02</pdfrwt>
<pdfrwt beam="2">  1       21 0.73252541E-01 0.72187109E+02</pdfrwt>
<totfact> 0.24916779E+06</totfact>
</mgrwt>
</event>
<event>
 5    1  0.1624116E+000  0.7832788E+02  0.7546771E-02  0.1333865E+00
         21   -1    0    0  501  502  0.00000000000E+00  0.00000000000E+00  0.14777483189E+03  0.14777483189E+03  0.00000000000E+00 0. -1.
         21   -1    0    0  502  503 -0.00000000000E+00 -0.00000000000E+00 -0.17151672645E+03  0.17151672645E+03  0.00000000000E+00 0.  1.
         24    1    1    2    0    0 -0.47714828019E+02 -0.15234335187E+02  0.41486784386E+02  0.10342707099E+03  0.80419002446E+02 0.  0.
          1    1    1    2  501    0  0.15052814292E+02  0.23787906350E+02  0.70545772850E+02  0.75954972014E+02  0.00000000000E+00 0. -1.
         -2    1    1    2    0  503  0.32662013727E+02 -0.85535711625E+01 -0.13577445180E+03  0.13990951534E+03  0.00000000000E+00 0.  1.
<mgrwt>
<rscale>  2 0.78327878E+02</rscale>
<asrwt>0</asrwt>
<pdfrwt beam="1">  1       21 0.22734590E-01 0.78327878E+02</pdfrwt>
<pdfrwt beam="2">  1       21 0.26387189E-01 0.78327878E+02</pdfrwt>
<totfact> 0.25437503E+05</totfact>
</mgrwt>
</event>
<event>
 5    1  0.1624116E+000  0.1228974E+03  0.7546771E-02  0.1238392E+00
         21   -1    0    0  501  502  0.00000000000E+00  0.00000000000E+00  0.15018297545E+03  0.15018297545E+03  0.00000000000E+00 0.  1.
         21   -1    0    0  502  503 -0.00000000000E+00 -0.00000000000E+00 -0.16627347294E+03  0.16627347294E+03  0.00000000000E+00 0.  1.
         24    1    1    2    0    0  0.10681820569E+03  0.23550564608E+02 -0.68298534492E+02  0.15197586627E+03  0.80419002446E+02 0.  1.
          1    1    1    2  501    0 -0.20897510836E+02 -0.95508684710E+01  0.71682726502E+02  0.75275084367E+02  0.00000000000E+00 0. -1.
         -2    1    1    2    0  503 -0.85920694859E+02 -0.13999696137E+02 -0.19474689497E+02  0.89205497745E+02  0.00000000000E+00 0.  1.
<mgrwt>
<rscale>  2 0.12289739E+03</rscale>
<asrwt>0</asrwt>
<pdfrwt beam="1">  1       21 0.23105073E-01 0.12289739E+03</pdfrwt>
<pdfrwt beam="2">  1       21 0.25580534E-01 0.12289739E+03</pdfrwt>
<totfact> 0.25917810E+05</totfact>
</mgrwt>
</event>
<event>
 5    1  0.1624116E+000  0.8352368E+02  0.7546771E-02  0.1319339E+00
         21   -1    0    0  503  502  0.00000000000E+00  0.00000000000E+00  0.20393226055E+02  0.20393226055E+02  0.00000000000E+00 0. -1.
         21   -1    0    0  501  503 -0.00000000000E+00 -0.00000000000E+00 -0.63566080355E+03  0.63566080355E+03  0.00000000000E+00 0. -1.
         24    1    1    2    0    0 -0.14129358167E+02  0.53626936663E+02 -0.15251099620E+03  0.18111407183E+03  0.80419002446E+02 0. -1.
          1    1    1    2  501    0 -0.14566805753E+02 -0.24286059575E+02 -0.39290220117E+03  0.39392149498E+03  0.00000000000E+00 0. -1.
         -2    1    1    2    0  502  0.28696163920E+02 -0.29340877088E+02 -0.69854380126E+02  0.81018462802E+02  0.00000000000E+00 0.  1.
<mgrwt>
<rscale>  2 0.83523681E+02</rscale>
<asrwt>0</asrwt>
<pdfrwt beam="1">  1       21 0.31374191E-02 0.83523681E+02</pdfrwt>
<pdfrwt beam="2">  1       21 0.97793978E-01 0.83523681E+02</pdfrwt>
<totfact> 0.51709437E+05</totfact>
</mgrwt>
</event>
<event>
 5    1  0.1624116E+000  0.9471767E+02  0.7546771E-02  0.1291813E+00
         21   -1    0    0  503  502  0.00000000000E+00  0.00000000000E+00  0.10084545876E+03  0.10084545876E+03  0.00000000000E+00 0.  1.
         21   -1    0    0  501  503 -0.00000000000E+00 -0.00000000000E+00 -0.12103945706E+03  0.12103945706E+03  0.00000000000E+00 0. -1.
         24    1    1    2    0    0 -0.43034343013E+02  0.92281327354E+01  0.34324046306E+02  0.97890087453E+02  0.80419002446E+02 0.  0.
          1    1    1    2  501    0  0.68801786983E+02  0.37600790351E+01 -0.63573164577E+02  0.93751647136E+02  0.00000000000E+00 0. -1.
         -2    1    1    2    0  502 -0.25767443969E+02 -0.12988211770E+02  0.90551199726E+01  0.30243181238E+02  0.00000000000E+00 0.  1.
<mgrwt>
<rscale>  2 0.94717671E+02</rscale>
<asrwt>0</asrwt>
<pdfrwt beam="1">  1       21 0.15514686E-01 0.94717671E+02</pdfrwt>
<pdfrwt beam="2">  1       21 0.18621455E-01 0.94717671E+02</pdfrwt>
<totfact> 0.96997979E+05</totfact>
</mgrwt>
</event>
<event>
 5    1  0.1624116E+000  0.8530814E+02  0.7546771E-02  0.1314629E+00
         21   -1    0    0  503  502  0.00000000000E+00  0.00000000000E+00  0.11851833650E+03  0.11851833650E+03  0.00000000000E+00 0.  1.
         21   -1    0    0  501  503 -0.00000000000E+00 -0.00000000000E+00 -0.22419155956E+03  0.22419155956E+03  0.00000000000E+00 0. -1.
         24    1    1    2    0    0  0.33785197256E+02 -0.28151410840E+02 -0.76465333701E+01  0.91976230151E+02  0.80419002446E+02 0. -1.
          1    1    1    2  501    0 -0.53591551777E+02  0.24007668271E+02 -0.16796102705E+03  0.17793068641E+03  0.00000000000E+00 0. -1.
         -2    1    1    2    0  502  0.19806354520E+02  0.41437425692E+01  0.69934337364E+02  0.72802979502E+02  0.00000000000E+00 0.  1.
<mgrwt>
<rscale>  2 0.85308137E+02</rscale>
<asrwt>0</asrwt>
<pdfrwt beam="1">  1       21 0.18233591E-01 0.85308137E+02</pdfrwt>
<pdfrwt beam="2">  1       21 0.34491009E-01 0.85308137E+02</pdfrwt>
<totfact> 0.22820533E+05</totfact>
</mgrwt>
</event>
<event>
 5    1  0.1624116E+000  0.8171787E+02  0.7546771E-02  0.1324246E+00
         21   -1    0    0  501  502  0.00000000000E+00  0.00000000000E+00  0.53881521501E+03  0.53881521501E+03  0.00000000000E+00 0. -1.
         21   -1    0    0  502  503 -0.00000000000E+00 -0.00000000000E+00 -0.17314999983E+02  0.17314999983E+02  0.00000000000E+00 0. -1.
         24    1    1    2    0    0  0.34139099007E+02 -0.18149380600E+01  0.40861809306E+03  0.41785731298E+03  0.80419002446E+02 0. -1.
          1    1    1    2  501    0 -0.10352364551E+02  0.34277691419E+02  0.74507080287E+02  0.82664603027E+02  0.00000000000E+00 0. -1.
         -2    1    1    2    0  503 -0.23786734456E+02 -0.32462753359E+02  0.38375041673E+02  0.55608298977E+02  0.00000000000E+00 0.  1.
<mgrwt>
<rscale>  2 0.81717873E+02</rscale>
<asrwt>0</asrwt>
<pdfrwt beam="1">  1       21 0.82894635E-01 0.81717873E+02</pdfrwt>
<pdfrwt beam="2">  1       21 0.26638466E-02 0.81717873E+02</pdfrwt>
<totfact> 0.97814899E+05</totfact>
</mgrwt>
</event>
<event>
 5    1  0.1624116E+000  0.6198176E+02  0.7546771E-02  0.1389698E+00
         21   -1    0    0  501  502  0.00000000000E+00  0.00000000000E+00  0.14495473997E+03  0.14495473997E+03  0.00000000000E+00 0. -1.
         21   -1    0    0  502  503 -0.00000000000E+00 -0.00000000000E+00 -0.44663740535E+02  0.44663740535E+02  0.00000000000E+00 0.  1.
         24    1    1    2    0    0 -0.13135098513E+02 -0.11727208518E+02  0.96045156902E+01  0.82882573009E+02  0.80419002446E+02 0.  1.
          1    1    1    2  501    0 -0.57622645169E+01  0.20144255114E+02  0.81412049250E+02  0.84064953873E+02  0.00000000000E+00 0. -1.
         -2    1    1    2    0  503  0.18897363030E+02 -0.84170465953E+01  0.92744344905E+01  0.22670953619E+02  0.00000000000E+00 0.  1.
<mgrwt>
<rscale>  2 0.61981762E+02</rscale>
<asrwt>0</asrwt>
<pdfrwt beam="1">  1       21 0.22300729E-01 0.61981762E+02</pdfrwt>
<pdfrwt beam="2">  1       21 0.68713448E-02 0.61981762E+02</pdfrwt>
<totfact> 0.28076067E+06</totfact>
</mgrwt>
</event>
<event>
 5    1  0.1624116E+000  0.1027565E+03  0.7546771E-02  0.1274604E+00
         21   -1    0    0  503  502  0.00000000000E+00  0.00000000000E+00  0.63744102668E+03  0.63744102668E+03  0.00000000000E+00 0.  1.
         21   -1    0    0  501  503 -0.00000000000E+00 -0.00000000000E+00 -0.18346315790E+02  0.18346315790E+02  0.00000000000E+00 0.  1.
         24    1    1    2    0    0  0.43712481385E+02  0.49941893424E+02  0.21264660364E+03  0.23683489553E+03  0.80419002446E+02 0.  1.
          1    1    1    2  501    0  0.22144291839E+02 -0.10872043856E+02  0.84826398058E+02  0.88340753937E+02  0.00000000000E+00 0. -1.
         -2    1    1    2    0  502 -0.65856773224E+02 -0.39069849568E+02  0.32162170919E+03  0.33061169300E+03  0.00000000000E+00 0.  1.
<mgrwt>
<rscale>  2 0.10275648E+03</rscale>
<asrwt>0</asrwt>
<pdfrwt beam="1">  1       21 0.98067833E-01 0.10275648E+03</pdfrwt>
<pdfrwt beam="2">  1       21 0.28225106E-02 0.10275648E+03</pdfrwt>
<totfact> 0.60924535E+05</totfact>
</mgrwt>
</event>
<event>
 5    1  0.1624116E+000  0.7504252E+02  0.7546771E-02  0.1343739E+00
         21   -1    0    0  501  502  0.00000000000E+00  0.00000000000E+00  0.21588051227E+03  0.21588051227E+03  0.00000000000E+00 0. -1.
         21   -1    0    0  502  503 -0.00000000000E+00 -0.00000000000E+00 -0.77274208705E+02  0.77274208705E+02  0.00000000000E+00 0.  1.
         24    1    1    2    0    0 -0.13086402812E+01 -0.31291834398E+02  0.13954908394E+03  0.16407941437E+03  0.80419002446E+02 0. -1.
          1    1    1    2  501    0 -0.26996136393E+02  0.12093036428E+02  0.55608012170E+02  0.62986378906E+02  0.00000000000E+00 0. -1.
         -2    1    1    2    0  503  0.28304776675E+02  0.19198797971E+02 -0.56550792544E+02  0.66088927692E+02  0.00000000000E+00 0.  1.
<mgrwt>
<rscale>  2 0.75042522E+02</rscale>
<asrwt>0</asrwt>
<pdfrwt beam="1">  1       21 0.33212386E-01 0.75042522E+02</pdfrwt>
<pdfrwt beam="2">  1       21 0.11888340E-01 0.75042522E+02</pdfrwt>
<totfact> 0.52545281E+05</totfact>
</mgrwt>
</event>
<event>
 5    1  0.1624116E+000  0.7571402E+02  0.7546771E-02  0.1341674E+00
         21   -1    0    0  501  502  0.00000000000E+00  0.00000000000E+00  0.50395602695E+03  0.50395602695E+03  0.00000000000E+00 0. -1.
         21   -1    0    0  502  503 -0.00000000000E+00 -0.00000000000E+00 -0.18391161590E+03  0.18391161590E+03  0.00000000000E+00 0.  1.
         24    1    1    2    0    0  0.41392714666E+02 -0.85932215204E+01 -0.25566963580E+01  0.90889784542E+02  0.80419002446E+02 0. -1.
          1    1    1    2  501    0 -0.25279530625E+02 -0.16905252512E+02  0.45762072087E+03  0.45863009758E+03  0.00000000000E+00 0. -1.
         -2    1    1    2    0  503 -0.16113184041E+02  0.25498474032E+02 -0.13501961346E+03  0.13834776072E+03  0.00000000000E+00 0.  1.
<mgrwt>
<rscale>  2 0.75714021E+02</rscale>
<asrwt>0</asrwt>
<pdfrwt beam="1">  1       21 0.77531696E-01 0.75714021E+02</pdfrwt>
<pdfrwt beam="2">  1       21 0.28294095E-01 0.75714021E+02</pdfrwt>
<totfact> 0.19382831E+04</totfact>
</mgrwt>
</event>
<event>
 5    1  0.1785263E+000  0.7570734E+02  0.7546771E-02  0.1341695E+00
         21   -1    0    0  501  502  0.00000000000E+00  0.00000000000E+00  0.57630409042E+03  0.57630409042E+03  0.00000000000E+00 0. -1.
         21   -1    0    0  502  503 -0.00000000000E+00 -0.00000000000E+00 -0.70955757199E+02  0.70955757199E+02  0.00000000000E+00 0.  1.
         24    1    1    2    0    0 -0.20187379578E+02  0.25671463177E+02  0.47328523306E+03  0.48117843063E+03  0.80419002446E+02 0. -1.
          1    1    1    2  501    0  0.39639699570E+02 -0.14653623582E+02  0.92470359124E+02  0.10167006336E+03  0.00000000000E+00 0. -1.
         -2    1    1    2    0  503 -0.19452319992E+02 -0.11017839594E+02 -0.60407258960E+02  0.64411353638E+02  0.00000000000E+00 0.  1.
<mgrwt>
<rscale>  2 0.75707339E+02</rscale>
<asrwt>0</asrwt>
<pdfrwt beam="1">  1       21 0.88662165E-01 0.75707339E+02</pdfrwt>
<pdfrwt beam="2">  1       21 0.10916271E-01 0.75707339E+02</pdfrwt>
<totfact> 0.80259833E+04</totfact>
</mgrwt>
</event>
<event>
 5    1  0.1624116E+000  0.6635663E+02  0.7546771E-02  0.1372940E+00
         21   -1    0    0  501  502  0.00000000000E+00  0.00000000000E+00  0.26031558381E+03  0.26031558381E+03  0.00000000000E+00 0.  1.
         21   -1    0    0  502  503 -0.00000000000E+00 -0.00000000000E+00 -0.34297209646E+02  0.34297209646E+02  0.00000000000E+00 0. -1.
         24    1    1    2    0    0  0.17267533150E+02 -0.27019038504E+02  0.10205903296E+03  0.13383369645E+03  0.80419002446E+02 0.  1.
          1    1    1    2  501    0  0.65106231785E+01  0.20460134849E+02  0.13283921047E+03  0.13456322369E+03  0.00000000000E+00 0. -1.
         -2    1    1    2    0  503 -0.23778156328E+02  0.65589036553E+01 -0.88798692635E+01  0.26215873315E+02  0.00000000000E+00 0.  1.
<mgrwt>
<rscale>  2 0.66356626E+02</rscale>
<asrwt>0</asrwt>
<pdfrwt beam="1">  1       21 0.40048550E-01 0.66356626E+02</pdfrwt>
<pdfrwt beam="2">  1       21 0.52764939E-02 0.66356626E+02</pdfrwt>
<totfact> 0.14456112E+06</totfact>
</mgrwt>
</event>
<event>
 5    1  0.1624116E+000  0.6512564E+02  0.7546771E-02  0.1377500E+00
         21   -1    0    0  503  502  0.00000000000E+00  0.00000000000E+00  0.19604594867E+03  0.19604594867E+03  0.00000000000E+00 0. -1.
         21   -1    0    0  501  503 -0.00000000000E+00 -0.00000000000E+00 -0.30306475850E+02  0.30306475850E+02  0.00000000000E+00 0. -1.
         24    1    1    2    0    0 -0.31298228514E+02 -0.15162047804E+02  0.82945915539E+02  0.12065118176E+03  0.80419002446E+02 0. -1.
          1    1    1    2  501    0  0.95646485397E+01  0.18326083261E+02  0.66053173591E+00  0.20682459514E+02  0.00000000000E+00 0. -1.
         -2    1    1    2    0  502  0.21733579975E+02 -0.31640354570E+01  0.82133025541E+02  0.85018783239E+02  0.00000000000E+00 0.  1.
<mgrwt>
<rscale>  2 0.65125638E+02</rscale>
<asrwt>0</asrwt>
<pdfrwt beam="1">  1       21 0.30160914E-01 0.65125638E+02</pdfrwt>
<pdfrwt beam="2">  1       21 0.46625349E-02 0.65125638E+02</pdfrwt>
<totfact> 0.30567443E+06</totfact>
</mgrwt>
</event>
<event>
 5    1  0.1624116E+000  0.9192908E+02  0.7546771E-02  0.1298246E+00
         21   -1    0    0  503  502  0.00000000000E+00  0.00000000000E+00  0.52673406915E+02  0.52673406915E+02  0.00000000000E+00 0.  1.
         21   -1    0    0  501  503 -0.00000000000E+00 -0.00000000000E+00 -0.16692567050E+03  0.16692567050E+03  0.00000000000E+00 0. -1.
         24    1    1    2    0    0  0.32723000319E+02  0.16511249358E+02 -0.53879106047E+02  0.10350647385E+03  0.80419002446E+02 0.  1.
          1    1    1    2  501    0 -0.29800859907E+02  0.33813116086E+02 -0.44263748041E+02  0.63171967369E+02  0.00000000000E+00 0. -1.
         -2    1    1    2    0  502 -0.29221404127E+01 -0.50324365443E+02 -0.16109409501E+02  0.52920636205E+02  0.00000000000E+00 0.  1.
<mgrwt>
<rscale>  2 0.91929084E+02</rscale>
<asrwt>0</asrwt>
<pdfrwt beam="1">  1       21 0.81036011E-02 0.91929084E+02</pdfrwt>
<pdfrwt beam="2">  1       21 0.25680872E-01 0.91929084E+02</pdfrwt>
<totfact> 0.16664409E+06</totfact>
</mgrwt>
</event>
<event>
 5    1  0.1624116E+000  0.7223392E+02  0.7546771E-02  0.1352657E+00
         21   -1    0    0  501  502  0.00000000000E+00  0.00000000000E+00  0.85379309927E+03  0.85379309927E+03  0.00000000000E+00 0. -1.
         21   -1    0    0  502  503 -0.00000000000E+00 -0.00000000000E+00 -0.20576072906E+02  0.20576072906E+02  0.00000000000E+00 0.  1.
         24    1    1    2    0    0 -0.27358985602E+01 -0.14692776483E+02  0.72133483246E+03  0.72595765668E+03  0.80419002446E+02 0.  0.
          1    1    1    2  501    0  0.22514711330E+02  0.30108087721E+02  0.11693586674E+03  0.12283080275E+03  0.00000000000E+00 0. -1.
         -2    1    1    2    0  503 -0.19778812770E+02 -0.15415311239E+02 -0.50536728435E+01  0.25580712742E+02  0.00000000000E+00 0.  1.
<mgrwt>
<rscale>  2 0.72233920E+02</rscale>
<asrwt>0</asrwt>
<pdfrwt beam="1">  1       21 0.13135276E+00 0.72233920E+02</pdfrwt>
<pdfrwt beam="2">  1       21 0.31655503E-02 0.72233920E+02</pdfrwt>
<totfact> 0.25438940E+05</totfact>
</mgrwt>
</event>
<event>
 5    1  0.1624116E+000  0.1003227E+03  0.7546771E-02  0.1279619E+00
         21   -1    0    0  501  502  0.00000000000E+00  0.00000000000E+00  0.62620123669E+03  0.62620123669E+03  0.00000000000E+00 0.  1.
         21   -1    0    0  502  503 -0.00000000000E+00 -0.00000000000E+00 -0.18314659365E+02  0.18314659365E+02  0.00000000000E+00 0. -1.
         24    1    1    2    0    0 -0.18378575311E+02  0.68718663089E+02  0.26400823444E+03  0.28500454469E+03  0.80419002446E+02 0.  0.
          1    1    1    2  501    0 -0.76436193449E+01 -0.66747338718E+02  0.30741996379E+03  0.31467549361E+03  0.00000000000E+00 0. -1.
         -2    1    1    2    0  503  0.26022194655E+02 -0.19713243707E+01  0.36458379100E+02  0.44835857760E+02  0.00000000000E+00 0.  1.
<mgrwt>
<rscale>  2 0.10032266E+03</rscale>
<asrwt>0</asrwt>
<pdfrwt beam="1">  1       21 0.96338635E-01 0.10032266E+03</pdfrwt>
<pdfrwt beam="2">  1       21 0.28176404E-02 0.10032266E+03</pdfrwt>
<totfact> 0.63664581E+05</totfact>
</mgrwt>
</event>
<event>
 5    1  0.1624116E+000  0.7835169E+02  0.7546771E-02  0.1333795E+00
         21   -1    0    0  503  502  0.00000000000E+00  0.00000000000E+00  0.75993763008E+02  0.75993763008E+02  0.00000000000E+00 0.  1.
         21   -1    0    0  501  503 -0.00000000000E+00 -0.00000000000E+00 -0.34876798222E+03  0.34876798222E+03  0.00000000000E+00 0. -1.
         24    1    1    2    0    0 -0.26747079317E+00 -0.30627117138E+02 -0.10605216189E+03  0.13657367550E+03  0.80419002446E+02 0.  0.
          1    1    1    2  501    0  0.24145235603E+02  0.38553504741E+02 -0.22244496789E+03  0.22704873677E+03  0.00000000000E+00 0. -1.
         -2    1    1    2    0  502 -0.23877764810E+02 -0.79263876023E+01  0.55722910563E+02  0.61139332956E+02  0.00000000000E+00 0.  1.
<mgrwt>
<rscale>  2 0.78351687E+02</rscale>
<asrwt>0</asrwt>
<pdfrwt beam="1">  1       21 0.11691348E-01 0.78351687E+02</pdfrwt>
<pdfrwt beam="2">  1       21 0.53656613E-01 0.78351687E+02</pdfrwt>
<totfact> 0.20868063E+05</totfact>
</mgrwt>
</event>
<event>
 5    1  0.1624116E+000  0.1666767E+03  0.7546771E-02  0.1181358E+00
         21   -1    0    0  501  502  0.00000000000E+00  0.00000000000E+00  0.49152928019E+02  0.49152928019E+02  0.00000000000E+00 0. -1.
         21   -1    0    0  502  503 -0.00000000000E+00 -0.00000000000E+00 -0.15613186577E+04  0.15613186577E+04  0.00000000000E+00 0.  1.
         24    1    1    2    0    0 -0.21868477243E+01  0.17343460074E+02 -0.41754915760E+03  0.42558206363E+03  0.80419002446E+02 0.  0.
          1    1    1    2  501    0 -0.11335786414E+03 -0.59545977967E+02 -0.57260930105E+02  0.14026597225E+03  0.00000000000E+00 0. -1.
         -2    1    1    2    0  503  0.11554471186E+03  0.42202517893E+02 -0.10373556420E+04  0.10446235499E+04  0.00000000000E+00 0.  1.
<mgrwt>
<rscale>  2 0.16667675E+03</rscale>
<asrwt>0</asrwt>
<pdfrwt beam="1">  1       21 0.75619906E-02 0.16667675E+03</pdfrwt>
<pdfrwt beam="2">  1       21 0.24020282E+00 0.16667675E+03</pdfrwt>
<totfact> 0.10313953E+04</totfact>
</mgrwt>
</event>
<event>
 5    1  0.1624116E+000  0.6246777E+02  0.7546771E-02  0.1387758E+00
         21   -1    0    0  503  502  0.00000000000E+00  0.00000000000E+00  0.21178050398E+03  0.21178050398E+03  0.00000000000E+00 0.  1.
         21   -1    0    0  501  503 -0.00000000000E+00 -0.00000000000E+00 -0.21873627642E+03  0.21873627642E+03  0.00000000000E+00 0. -1.
         24    1    1    2    0    0 -0.17376946396E+01  0.69790287799E+00 -0.10471153975E+03  0.13204252785E+03  0.80419002446E+02 0.  1.
          1    1    1    2  501    0  0.11353651557E+02 -0.19961500641E+02 -0.98448908650E+02  0.10109181236E+03  0.00000000000E+00 0. -1.
         -2    1    1    2    0  502 -0.96159569175E+01  0.19263597763E+02  0.19620467596E+03  0.19738244019E+03  0.00000000000E+00 0.  1.
<mgrwt>
<rscale>  2 0.62467775E+02</rscale>
<asrwt>0</asrwt>
<pdfrwt beam="1">  1       21 0.32581616E-01 0.62467775E+02</pdfrwt>
<pdfrwt beam="2">  1       21 0.33651735E-01 0.62467775E+02</pdfrwt>
<totfact> 0.82329353E+04</totfact>
</mgrwt>
</event>
<event>
 5    1  0.1624116E+000  0.9901723E+02  0.7546771E-02  0.1282376E+00
         21   -1    0    0  501  502  0.00000000000E+00  0.00000000000E+00  0.24366523447E+03  0.24366523447E+03  0.00000000000E+00 0. -1.
         21   -1    0    0  502  503 -0.00000000000E+00 -0.00000000000E+00 -0.81001003976E+02  0.81001003976E+02  0.00000000000E+00 0.  1.
         24    1    1    2    0    0 -0.39729499425E+02 -0.30748091971E+01  0.37175359808E+02  0.97144793516E+02  0.80419002446E+02 0.  0.
          1    1    1    2  501    0  0.53523383860E+02  0.41326622698E+02  0.16030887707E+03  0.17398729388E+03  0.00000000000E+00 0. -1.
         -2    1    1    2    0  503 -0.13793884435E+02 -0.38251813501E+02 -0.34820006386E+02  0.53534151050E+02  0.00000000000E+00 0.  1.
<mgrwt>
<rscale>  2 0.99017229E+02</rscale>
<asrwt>0</asrwt>
<pdfrwt beam="1">  1       21 0.37486959E-01 0.99017229E+02</pdfrwt>
<pdfrwt beam="2">  1       21 0.12461693E-01 0.99017229E+02</pdfrwt>
<totfact> 0.38199624E+05</totfact>
</mgrwt>
</event>
<event>
 5    1  0.1624116E+000  0.1081581E+03  0.7546771E-02  0.1264019E+00
         21   -1    0    0  503  502  0.00000000000E+00  0.00000000000E+00  0.24516061107E+03  0.24516061107E+03  0.00000000000E+00 0.  1.
         21   -1    0    0  501  503 -0.00000000000E+00 -0.00000000000E+00 -0.11439862836E+03  0.11439862836E+03  0.00000000000E+00 0. -1.
         24    1    1    2    0    0  0.43779802578E+02  0.63435220074E+02 -0.34800540584E+02  0.11670043633E+03  0.80419002446E+02 0.  0.
          1    1    1    2  501    0  0.19708341091E+02 -0.10912785132E+02 -0.25955058580E+02  0.34368192472E+02  0.00000000000E+00 0. -1.
         -2    1    1    2    0  502 -0.63488143669E+02 -0.52522434941E+02  0.19151758187E+03  0.20849061064E+03  0.00000000000E+00 0.  1.
<mgrwt>
<rscale>  2 0.10815813E+03</rscale>
<asrwt>0</asrwt>
<pdfrwt beam="1">  1       21 0.37717017E-01 0.10815813E+03</pdfrwt>
<pdfrwt beam="2">  1       21 0.17599789E-01 0.10815813E+03</pdfrwt>
<totfact> 0.20304165E+05</totfact>
</mgrwt>
</event>
<event>
 5    1  0.1624116E+000  0.2066976E+03  0.7546771E-02  0.1144208E+00
         21   -1    0    0  503  502  0.00000000000E+00  0.00000000000E+00  0.94539304295E+03  0.94539304295E+03  0.00000000000E+00 0. -1.
         21   -1    0    0  501  503 -0.00000000000E+00 -0.00000000000E+00 -0.59680291567E+02  0.59680291567E+02  0.00000000000E+00 0. -1.
         24    1    1    2    0    0 -0.19306902451E+03 -0.47400557530E+02  0.40153323344E+03  0.45521271356E+03  0.80419002446E+02 0. -1.
          1    1    1    2  501    0  0.17102466802E+03  0.44411893516E+02  0.20857371241E+03  0.27335845856E+03  0.00000000000E+00 0. -1.
         -2    1    1    2    0  502  0.22044356492E+02  0.29886640131E+01  0.27560580553E+03  0.27650216240E+03  0.00000000000E+00 0.  1.
<mgrwt>
<rscale>  2 0.20669757E+03</rscale>
<asrwt>0</asrwt>
<pdfrwt beam="1">  1       21 0.14544507E+00 0.20669757E+03</pdfrwt>
<pdfrwt beam="2">  1       21 0.91815840E-02 0.20669757E+03</pdfrwt>
<totfact> 0.30301370E+04</totfact>
</mgrwt>
</event>
<event>
 5    1  0.1624116E+000  0.6566681E+02  0.7546771E-02  0.1375481E+00
         21   -1    0    0  501  502  0.00000000000E+00  0.00000000000E+00  0.15663044589E+04  0.15663044589E+04  0.00000000000E+00 0. -1.
         21   -1    0    0  502  503 -0.00000000000E+00 -0.00000000000E+00 -0.28789341750E+01  0.28789341750E+01  0.00000000000E+00 0. -1.
         24    1    1    2    0    0  0.14578811848E+02 -0.24357458083E+02  0.85694662130E+03  0.86117974618E+03  0.80419002446E+02 0. -1.
          1    1    1    2  501    0 -0.23086377889E+02  0.32754364815E+01  0.40336447443E+03  0.40403788011E+03  0.00000000000E+00 0. -1.
         -2    1    1    2    0  503  0.85075660402E+01  0.21082021602E+02  0.30311442903E+03  0.30396576683E+03  0.00000000000E+00 0.  1.
<mgrwt>
<rscale>  2 0.65666809E+02</rscale>
<asrwt>0</asrwt>
<pdfrwt beam="1">  1       21 0.24096924E+00 0.65666809E+02</pdfrwt>
<pdfrwt beam="2">  1       21 0.44291420E-03 0.65666809E+02</pdfrwt>
<totfact> 0.10773347E+06</totfact>
</mgrwt>
</event>
<event>
 5    1  0.1624116E+000  0.7769582E+02  0.7546771E-02  0.1335720E+00
         21   -1    0    0  503  502  0.00000000000E+00  0.00000000000E+00  0.67880023765E+01  0.67880023765E+01  0.00000000000E+00 0. -1.
         21   -1    0    0  501  503 -0.00000000000E+00 -0.00000000000E+00 -0.10733162731E+04  0.10733162731E+04  0.00000000000E+00 0.  1.
         24    1    1    2    0    0 -0.34275112986E+02  0.15750413989E+01 -0.36726760071E+03  0.37753141672E+03  0.80419002446E+02 0. -1.
          1    1    1    2  501    0 -0.10304835070E+02 -0.17759012156E+02 -0.23555352166E+03  0.23644668259E+03  0.00000000000E+00 0. -1.
         -2    1    1    2    0  502  0.44579948056E+02  0.16183970757E+02 -0.46370714834E+03  0.46612617616E+03  0.00000000000E+00 0.  1.
<mgrwt>
<rscale>  2 0.77695824E+02</rscale>
<asrwt>0</asrwt>
<pdfrwt beam="1">  1       21 0.10443084E-02 0.77695824E+02</pdfrwt>
<pdfrwt beam="2">  1       21 0.16512553E+00 0.77695824E+02</pdfrwt>
<totfact> 0.83011673E+05</totfact>
</mgrwt>
</event>
<event>
 5    1  0.1624116E+000  0.1416791E+03  0.7546771E-02  0.1211087E+00
         21   -1    0    0  501  502  0.00000000000E+00  0.00000000000E+00  0.66855481957E+03  0.66855481957E+03  0.00000000000E+00 0. -1.
         21   -1    0    0  502  503 -0.00000000000E+00 -0.00000000000E+00 -0.39014456490E+02  0.39014456490E+02  0.00000000000E+00 0. -1.
         24    1    1    2    0    0  0.73204277021E+02  0.61719041879E+02  0.14907853590E+03  0.19457577477E+03  0.80419002446E+02 0. -1.
          1    1    1    2  501    0 -0.10544986932E+03 -0.67988270504E+02  0.45337815136E+03  0.47041877938E+03  0.00000000000E+00 0. -1.
         -2    1    1    2    0  503  0.32245592297E+02  0.62692286258E+01  0.27083675825E+02  0.42574721918E+02  0.00000000000E+00 0.  1.
<mgrwt>
<rscale>  2 0.14167905E+03</rscale>
<asrwt>0</asrwt>
<pdfrwt beam="1">  1       21 0.10285458E+00 0.14167905E+03</pdfrwt>
<pdfrwt beam="2">  1       21 0.60022246E-02 0.14167905E+03</pdfrwt>
<totfact> 0.15409167E+05</totfact>
</mgrwt>
</event>
<event>
 5    1  0.1624116E+000  0.9033622E+02  0.7546771E-02  0.1302040E+00
         21   -1    0    0  501  502  0.00000000000E+00  0.00000000000E+00  0.81806417780E+02  0.81806417780E+02  0.00000000000E+00 0. -1.
         21   -1    0    0  502  503 -0.00000000000E+00 -0.00000000000E+00 -0.11593924965E+03  0.11593924965E+03  0.00000000000E+00 0. -1.
         24    1    1    2    0    0  0.63524363537E+02  0.32302800130E+01 -0.36316842964E+02  0.10877457657E+03  0.80419002446E+02 0. -1.
          1    1    1    2  501    0 -0.38568427897E+02 -0.24209449255E+02  0.22256404211E+02  0.50684993756E+02  0.00000000000E+00 0. -1.
         -2    1    1    2    0  503 -0.24955935640E+02  0.20979169242E+02 -0.20072393121E+02  0.38286097103E+02  0.00000000000E+00 0.  1.
<mgrwt>
<rscale>  2 0.90336224E+02</rscale>
<asrwt>0</asrwt>
<pdfrwt beam="1">  1       21 0.12585603E-01 0.90336224E+02</pdfrwt>
<pdfrwt beam="2">  1       21 0.17836808E-01 0.90336224E+02</pdfrwt>
<totfact> 0.15194639E+06</totfact>
</mgrwt>
</event>
<event>
 5    1  0.1624116E+000  0.7672977E+02  0.7546771E-02  0.1338597E+00
         21   -1    0    0  503  502  0.00000000000E+00  0.00000000000E+00  0.74236887984E+02  0.74236887984E+02  0.00000000000E+00 0.  1.
         21   -1    0    0  501  503 -0.00000000000E+00 -0.00000000000E+00 -0.10229893049E+03  0.10229893049E+03  0.00000000000E+00 0.  1.
         24    1    1    2    0    0 -0.43887675556E+02  0.32563011244E+02 -0.30550736955E+02  0.10191683497E+03  0.80419002446E+02 0.  1.
          1    1    1    2  501    0  0.31050608909E+02 -0.15023595953E+02 -0.22742583305E+02  0.41316750167E+02  0.00000000000E+00 0. -1.
         -2    1    1    2    0  502  0.12837066647E+02 -0.17539415290E+02  0.25231277749E+02  0.33302233344E+02  0.00000000000E+00 0.  1.
<mgrwt>
<rscale>  2 0.76729774E+02</rscale>
<asrwt>0</asrwt>
<pdfrwt beam="1">  1       21 0.11421060E-01 0.76729774E+02</pdfrwt>
<pdfrwt beam="2">  1       21 0.15738297E-01 0.76729774E+02</pdfrwt>
<totfact> 0.22405394E+06</totfact>
</mgrwt>
</event>
<event>
 5    1  0.1624116E+000  0.7693931E+02  0.7546771E-02  0.1337969E+00
         21   -1    0    0  503  502  0.00000000000E+00  0.00000000000E+00  0.14968604169E+03  0.14968604169E+03  0.00000000000E+00 0.  1.
         21   -1    0    0  501  503 -0.00000000000E+00 -0.00000000000E+00 -0.10570735611E+03  0.10570735611E+03  0.00000000000E+00 0. -1.
         24    1    1    2    0    0 -0.13440562084E+02 -0.12866803947E+01 -0.50229635936E+02  0.95773360264E+02  0.80419002446E+02 0.  0.
          1    1    1    2  501    0  0.56457118466E+01  0.36161066868E+02 -0.18765278786E+02  0.41129460332E+02  0.00000000000E+00 0. -1.
         -2    1    1    2    0  502  0.77948502374E+01 -0.34874386473E+02  0.11297360030E+03  0.11849057721E+03  0.00000000000E+00 0.  1.
<mgrwt>
<rscale>  2 0.76939310E+02</rscale>
<asrwt>0</asrwt>
<pdfrwt beam="1">  1       21 0.23028622E-01 0.76939310E+02</pdfrwt>
<pdfrwt beam="2">  1       21 0.16262670E-01 0.76939310E+02</pdfrwt>
<totfact> 0.60221643E+05</totfact>
</mgrwt>
</event>
<event>
 5    1  0.1624116E+000  0.6464524E+02  0.7546771E-02  0.1379311E+00
         21   -1    0    0  503  502  0.00000000000E+00  0.00000000000E+00  0.18611936616E+03  0.18611936616E+03  0.00000000000E+00 0. -1.
         21   -1    0    0  501  503 -0.00000000000E+00 -0.00000000000E+00 -0.60677518389E+02  0.60677518389E+02  0.00000000000E+00 0. -1.
         24    1    1    2    0    0  0.33513303213E+01  0.27281298729E+01  0.15856565020E+03  0.17784531336E+03  0.80419002446E+02 0. -1.
          1    1    1    2  501    0  0.64976601473E+01 -0.24240207174E+02 -0.37269789281E+02  0.44931552658E+02  0.00000000000E+00 0. -1.
         -2    1    1    2    0  502 -0.98489904686E+01  0.21512077301E+02  0.41459868513E+01  0.24020018527E+02  0.00000000000E+00 0.  1.
<mgrwt>
<rscale>  2 0.64645244E+02</rscale>
<asrwt>0</asrwt>
<pdfrwt beam="1">  1       21 0.28633748E-01 0.64645244E+02</pdfrwt>
<pdfrwt beam="2">  1       21 0.93350029E-02 0.64645244E+02</pdfrwt>
<totfact> 0.10542483E+06</totfact>
</mgrwt>
</event>
<event>
 5    1  0.1624116E+000  0.9292737E+02  0.7546771E-02  0.1295914E+00
         21   -1    0    0  503  502  0.00000000000E+00  0.00000000000E+00  0.36265011733E+03  0.36265011733E+03  0.00000000000E+00 0. -1.
         21   -1    0    0  501  503 -0.00000000000E+00 -0.00000000000E+00 -0.41343647038E+02  0.41343647038E+02  0.00000000000E+00 0.  1.
         24    1    1    2    0    0  0.38671981889E+02  0.59141290867E+02  0.65074878082E+02  0.12528036630E+03  0.80419002446E+02 0.  1.
          1    1    1    2  501    0 -0.17703107110E+02 -0.54529637115E+02  0.66630369401E+02  0.87900440566E+02  0.00000000000E+00 0. -1.
         -2    1    1    2    0  502 -0.20968874779E+02 -0.46116537526E+01  0.18960122281E+03  0.19081295750E+03  0.00000000000E+00 0.  1.
<mgrwt>
<rscale>  2 0.92927366E+02</rscale>
<asrwt>0</asrwt>
<pdfrwt beam="1">  1       21 0.55792323E-01 0.92927366E+02</pdfrwt>
<pdfrwt beam="2">  1       21 0.63605613E-02 0.92927366E+02</pdfrwt>
<totfact> 0.54541047E+05</totfact>
</mgrwt>
</event>
<event>
 5    1  0.1624116E+000  0.9555718E+02  0.7546771E-02  0.1289926E+00
         21   -1    0    0  503  502  0.00000000000E+00  0.00000000000E+00  0.30672576897E+02  0.30672576897E+02  0.00000000000E+00 0. -1.
         21   -1    0    0  501  503 -0.00000000000E+00 -0.00000000000E+00 -0.37815099319E+03  0.37815099319E+03  0.00000000000E+00 0.  1.
         24    1    1    2    0    0 -0.77762966616E+01 -0.52130018780E+02 -0.97341289224E+02  0.13682306892E+03  0.80419002446E+02 0. -1.
          1    1    1    2  501    0 -0.30696014643E+02  0.47019123148E+02 -0.20461464628E+03  0.21217963316E+03  0.00000000000E+00 0. -1.
         -2    1    1    2    0  502  0.38472311305E+02  0.51108956312E+01 -0.45522480793E+02  0.59820868005E+02  0.00000000000E+00 0.  1.
<mgrwt>
<rscale>  2 0.95557185E+02</rscale>
<asrwt>0</asrwt>
<pdfrwt beam="1">  1       21 0.47188580E-02 0.95557185E+02</pdfrwt>
<pdfrwt beam="2">  1       21 0.58177075E-01 0.95557185E+02</pdfrwt>
<totfact> 0.82392130E+05</totfact>
</mgrwt>
</event>
<event>
 5    1  0.1624116E+000  0.7776239E+02  0.7546771E-02  0.1335524E+00
         21   -1    0    0  503  502  0.00000000000E+00  0.00000000000E+00  0.29989946623E+02  0.29989946623E+02  0.00000000000E+00 0.  1.
         21   -1    0    0  501  503 -0.00000000000E+00 -0.00000000000E+00 -0.32881003259E+03  0.32881003259E+03  0.00000000000E+00 0.  1.
         24    1    1    2    0    0  0.30548805760E+02  0.27201263414E+02 -0.70452775719E+02  0.11447247628E+03  0.80419002446E+02 0.  1.
          1    1    1    2  501    0  0.16436606432E+01 -0.32614981180E+02 -0.19474736681E+03  0.19746639081E+03  0.00000000000E+00 0. -1.
         -2    1    1    2    0  502 -0.32192466403E+02  0.54137177656E+01 -0.33619943433E+02  0.46861112125E+02  0.00000000000E+00 0.  1.
<mgrwt>
<rscale>  2 0.77762391E+02</rscale>
<asrwt>0</asrwt>
<pdfrwt beam="1">  1       21 0.46138374E-02 0.77762391E+02</pdfrwt>
<pdfrwt beam="2">  1       21 0.50586164E-01 0.77762391E+02</pdfrwt>
<totfact> 0.11375607E+06</totfact>
</mgrwt>
</event>
<event>
 5    1  0.1624116E+000  0.1166568E+03  0.7546771E-02  0.1248716E+00
         21   -1    0    0  501  502  0.00000000000E+00  0.00000000000E+00  0.37992593169E+02  0.37992593169E+02  0.00000000000E+00 0. -1.
         21   -1    0    0  502  503 -0.00000000000E+00 -0.00000000000E+00 -0.60257364023E+03  0.60257364023E+03  0.00000000000E+00 0.  1.
         24    1    1    2    0    0  0.10099197324E+03 -0.16538818580E+02 -0.10748739740E+03  0.16880067456E+03  0.80419002446E+02 0. -1.
          1    1    1    2  501    0 -0.66837218449E+02  0.17137436640E+02 -0.18343171635E+03  0.19597984607E+03  0.00000000000E+00 0. -1.
         -2    1    1    2    0  503 -0.34154754791E+02 -0.59861806022E+00 -0.27366193331E+03  0.27578571276E+03  0.00000000000E+00 0.  1.
<mgrwt>
<rscale>  2 0.11665678E+03</rscale>
<asrwt>0</asrwt>
<pdfrwt beam="1">  1       21 0.58450144E-02 0.11665678E+03</pdfrwt>
<pdfrwt beam="2">  1       21 0.92703637E-01 0.11665678E+03</pdfrwt>
<totfact> 0.20704939E+05</totfact>
</mgrwt>
</event>
<event>
 5    1  0.1818482E+000  0.1083659E+03  0.7546771E-02  0.1263626E+00
         21   -1    0    0  501  502  0.00000000000E+00  0.00000000000E+00  0.10432187871E+03  0.10432187871E+03  0.00000000000E+00 0.  1.
         21   -1    0    0  502  503 -0.00000000000E+00 -0.00000000000E+00 -0.40855450197E+03  0.40855450197E+03  0.00000000000E+00 0.  1.
         24    1    1    2    0    0 -0.59357977655E+02  0.41890255326E+02  0.28811060150E+01  0.10841438894E+03  0.80419002446E+02 0.  1.
          1    1    1    2  501    0 -0.20131054105E+02 -0.51087091028E+01  0.40752010625E+02  0.45739311517E+02  0.00000000000E+00 0. -1.
         -2    1    1    2    0  503  0.79489031760E+02 -0.36781546223E+02 -0.34786573990E+03  0.35872268023E+03  0.00000000000E+00 0.  1.
<mgrwt>
<rscale>  2 0.10836586E+03</rscale>
<asrwt>0</asrwt>
<pdfrwt beam="1">  1       21 0.16049520E-01 0.10836586E+03</pdfrwt>
<pdfrwt beam="2">  1       21 0.62854539E-01 0.10836586E+03</pdfrwt>
<totfact> 0.84338142E+04</totfact>
</mgrwt>
</event>
<event>
 5    1  0.1624116E+000  0.6829809E+02  0.7546771E-02  0.1365978E+00
         21   -1    0    0  503  502  0.00000000000E+00  0.00000000000E+00  0.50475573568E+02  0.50475573568E+02  0.00000000000E+00 0.  1.
         21   -1    0    0  501  503 -0.00000000000E+00 -0.00000000000E+00 -0.20114943203E+03  0.20114943203E+03  0.00000000000E+00 0.  1.
         24    1    1    2    0    0 -0.42522466994E+01  0.70005567400E+00  0.81949560818E+01  0.80950262134E+02  0.80419002446E+02 0.  1.
          1    1    1    2  501    0 -0.89957798206E+01 -0.25995015325E+02 -0.11564038818E+03  0.11886700238E+03  0.00000000000E+00 0. -1.
         -2    1    1    2    0  502  0.13248026520E+02  0.25294959651E+02 -0.43228426359E+02  0.51807741081E+02  0.00000000000E+00 0.  1.
<mgrwt>
<rscale>  2 0.68298090E+02</rscale>
<asrwt>0</asrwt>
<pdfrwt beam="1">  1       21 0.77654728E-02 0.68298090E+02</pdfrwt>
<pdfrwt beam="2">  1       21 0.30946067E-01 0.68298090E+02</pdfrwt>
<totfact> 0.12469734E+06</totfact>
</mgrwt>
</event>
<event>
 5    1  0.1624116E+000  0.6922598E+02  0.7546771E-02  0.1362745E+00
         21   -1    0    0  501  502  0.00000000000E+00  0.00000000000E+00  0.19244807950E+03  0.19244807950E+03  0.00000000000E+00 0.  1.
         21   -1    0    0  502  503 -0.00000000000E+00 -0.00000000000E+00 -0.30079492493E+02  0.30079492493E+02  0.00000000000E+00 0. -1.
         24    1    1    2    0    0 -0.12922141803E+02 -0.25896411699E+00  0.10690603581E+03  0.13439927551E+03  0.80419002446E+02 0.  1.
          1    1    1    2  501    0 -0.10900551389E+02  0.22125031244E+02  0.49418883744E+02  0.55231921012E+02  0.00000000000E+00 0. -1.
         -2    1    1    2    0  503  0.23822693192E+02 -0.21866067127E+02  0.60436674485E+01  0.32896375465E+02  0.00000000000E+00 0.  1.
<mgrwt>
<rscale>  2 0.69225985E+02</rscale>
<asrwt>0</asrwt>
<pdfrwt beam="1">  1       21 0.29607396E-01 0.69225985E+02</pdfrwt>
<pdfrwt beam="2">  1       21 0.46276144E-02 0.69225985E+02</pdfrwt>
<totfact> 0.32173345E+06</totfact>
</mgrwt>
</event>
<event>
 5    1  0.1624116E+000  0.7486997E+02  0.7546771E-02  0.1344274E+00
         21   -1    0    0  501  502  0.00000000000E+00  0.00000000000E+00  0.10799436437E+02  0.10799436437E+02  0.00000000000E+00 0. -1.
         21   -1    0    0  502  503 -0.00000000000E+00 -0.00000000000E+00 -0.60638917166E+03  0.60638917166E+03  0.00000000000E+00 0.  1.
         24    1    1    2    0    0 -0.26378119450E+02  0.27321339425E+02 -0.32873311765E+03  0.34055093505E+03  0.80419002446E+02 0.  1.
          1    1    1    2  501    0 -0.86782308784E+01 -0.24083267356E+02 -0.43105474786E+02  0.50133795131E+02  0.00000000000E+00 0. -1.
         -2    1    1    2    0  503  0.35056350328E+02 -0.32380720691E+01 -0.22375114279E+03  0.22650387791E+03  0.00000000000E+00 0.  1.
<mgrwt>
<rscale>  2 0.74869974E+02</rscale>
<asrwt>0</asrwt>
<pdfrwt beam="1">  1       21 0.16614520E-02 0.74869974E+02</pdfrwt>
<pdfrwt beam="2">  1       21 0.93290631E-01 0.74869974E+02</pdfrwt>
<totfact> 0.15928678E+06</totfact>
</mgrwt>
</event>
<event>
 5    1  0.1624116E+000  0.8035861E+02  0.7546771E-02  0.1328037E+00
         21   -1    0    0  503  502  0.00000000000E+00  0.00000000000E+00  0.57033298488E+02  0.57033298488E+02  0.00000000000E+00 0.  1.
         21   -1    0    0  501  503 -0.00000000000E+00 -0.00000000000E+00 -0.25017855009E+03  0.25017855009E+03  0.00000000000E+00 0. -1.
         24    1    1    2    0    0 -0.73955560255E+01  0.12341528114E+02 -0.24680709850E+02  0.85342609277E+02  0.80419002446E+02 0.  0.
          1    1    1    2  501    0 -0.33948053847E+02  0.47603063551E+01 -0.17349225580E+03  0.17684652584E+03  0.00000000000E+00 0. -1.
         -2    1    1    2    0  502  0.41343609872E+02 -0.17101834469E+02  0.50277140493E+01  0.45022713468E+02  0.00000000000E+00 0.  1.
<mgrwt>
<rscale>  2 0.80358606E+02</rscale>
<asrwt>0</asrwt>
<pdfrwt beam="1">  1       21 0.87743536E-02 0.80358606E+02</pdfrwt>
<pdfrwt beam="2">  1       21 0.38489008E-01 0.80358606E+02</pdfrwt>
<totfact> 0.66736336E+05</totfact>
</mgrwt>
</event>
<event>
 5    1  0.1624116E+000  0.9970820E+02  0.7546771E-02  0.1280911E+00
         21   -1    0    0  503  502  0.00000000000E+00  0.00000000000E+00  0.46554977894E+03  0.46554977894E+03  0.00000000000E+00 0. -1.
         21   -1    0    0  501  503 -0.00000000000E+00 -0.00000000000E+00 -0.36233794950E+02  0.36233794950E+02  0.00000000000E+00 0.  1.
         24    1    1    2    0    0  0.44104658717E+02  0.15815713821E+01  0.24500979166E+03  0.26161944930E+03  0.80419002446E+02 0. -1.
          1    1    1    2  501    0  0.17021146353E+02 -0.34344431712E+02 -0.49048286634E+01  0.38643456846E+02  0.00000000000E+00 0. -1.
         -2    1    1    2    0  502 -0.61125805069E+02  0.32762860330E+02  0.18921102100E+03  0.20152066775E+03  0.00000000000E+00 0.  1.
<mgrwt>
<rscale>  2 0.99708195E+02</rscale>
<asrwt>0</asrwt>
<pdfrwt beam="1">  1       21 0.71623039E-01 0.99708195E+02</pdfrwt>
<pdfrwt beam="2">  1       21 0.55744303E-02 0.99708195E+02</pdfrwt>
<totfact> 0.40031233E+05</totfact>
</mgrwt>
</event>
<event>
 5    1  0.1624116E+000  0.6991874E+02  0.7546771E-02  0.1360370E+00
         21   -1    0    0  503  502  0.00000000000E+00  0.00000000000E+00  0.42087118320E+03  0.42087118320E+03  0.00000000000E+00 0. -1.
         21   -1    0    0  501  503 -0.00000000000E+00 -0.00000000000E+00 -0.28407826621E+02  0.28407826621E+02  0.00000000000E+00 0. -1.
         24    1    1    2    0    0  0.28637787496E+02  0.35400533544E+01  0.37485128786E+03  0.38446502938E+03  0.80419002446E+02 0. -1.
          1    1    1    2  501    0 -0.21855259007E+02  0.20168095453E+02 -0.63727899903E+01  0.30414090036E+02  0.00000000000E+00 0. -1.
         -2    1    1    2    0  502 -0.67825284894E+01 -0.23708148807E+02  0.23984858704E+02  0.34399890402E+02  0.00000000000E+00 0.  1.
<mgrwt>
<rscale>  2 0.69918739E+02</rscale>
<asrwt>0</asrwt>
<pdfrwt beam="1">  1       21 0.64749408E-01 0.69918739E+02</pdfrwt>
<pdfrwt beam="2">  1       21 0.43704352E-02 0.69918739E+02</pdfrwt>
<totfact> 0.74403879E+05</totfact>
</mgrwt>
</event>
<event>
 5    1  0.1624116E+000  0.1108358E+03  0.7546771E-02  0.1259030E+00
         21   -1    0    0  501  502  0.00000000000E+00  0.00000000000E+00  0.21895249681E+03  0.21895249681E+03  0.00000000000E+00 0.  1.
         21   -1    0    0  502  503 -0.00000000000E+00 -0.00000000000E+00 -0.57375638278E+02  0.57375638278E+02  0.00000000000E+00 0. -1.
         24    1    1    2    0    0  0.10899201034E+02 -0.26312783395E+02  0.79775619230E+02  0.11680120090E+03  0.80419002446E+02 0.  0.
          1    1    1    2  501    0  0.33630534206E+02 -0.42621685531E+02  0.39942440428E+02  0.67401924719E+02  0.00000000000E+00 0. -1.
         -2    1    1    2    0  503 -0.44529735240E+02  0.68934468926E+02  0.41858798870E+02  0.92125009468E+02  0.00000000000E+00 0.  1.
<mgrwt>
<rscale>  2 0.11083577E+03</rscale>
<asrwt>0</asrwt>
<pdfrwt beam="1">  1       21 0.33684999E-01 0.11083577E+03</pdfrwt>
<pdfrwt beam="2">  1       21 0.88270214E-02 0.11083577E+03</pdfrwt>
<totfact> 0.85967438E+05</totfact>
</mgrwt>
</event>
<event>
 5    1  0.1624116E+000  0.6362160E+02  0.7546771E-02  0.1383233E+00
         21   -1    0    0  501  502  0.00000000000E+00  0.00000000000E+00  0.10132608759E+03  0.10132608759E+03  0.00000000000E+00 0. -1.
         21   -1    0    0  502  503 -0.00000000000E+00 -0.00000000000E+00 -0.72608083169E+02  0.72608083169E+02  0.00000000000E+00 0. -1.
         24    1    1    2    0    0  0.36768754085E+01  0.81320757488E+01  0.73256432769E+02  0.10914838966E+03  0.80419002446E+02 0. -1.
          1    1    1    2  501    0 -0.24467307059E+02 -0.15221733921E+01 -0.29153955779E+02  0.38090934146E+02  0.00000000000E+00 0. -1.
         -2    1    1    2    0  503  0.20790431650E+02 -0.66099023567E+01 -0.15384472573E+02  0.26694846950E+02  0.00000000000E+00 0.  1.
<mgrwt>
<rscale>  2 0.63621601E+02</rscale>
<asrwt>0</asrwt>
<pdfrwt beam="1">  1       21 0.15588629E-01 0.63621601E+02</pdfrwt>
<pdfrwt beam="2">  1       21 0.11170474E-01 0.63621601E+02</pdfrwt>
<totfact> 0.23444470E+06</totfact>
</mgrwt>
</event>
<event>
 5    1  0.1624116E+000  0.7573744E+02  0.7546771E-02  0.1341603E+00
         21   -1    0    0  501  502  0.00000000000E+00  0.00000000000E+00  0.14104617911E+02  0.14104617911E+02  0.00000000000E+00 0. -1.
         21   -1    0    0  502  503 -0.00000000000E+00 -0.00000000000E+00 -0.15497140998E+04  0.15497140998E+04  0.00000000000E+00 0.  1.
         24    1    1    2    0    0  0.16789739467E+02 -0.34201778982E+02 -0.17648409193E+03  0.19764996255E+03  0.80419002446E+02 0.  1.
          1    1    1    2  501    0 -0.29416802053E+02  0.39187085412E+01 -0.63122986876E+02  0.69751100291E+02  0.00000000000E+00 0. -1.
         -2    1    1    2    0  503  0.12627062586E+02  0.30283070441E+02 -0.12960024030E+04  0.12964176548E+04  0.00000000000E+00 0.  1.
<mgrwt>
<rscale>  2 0.75737442E+02</rscale>
<asrwt>0</asrwt>
<pdfrwt beam="1">  1       21 0.21699416E-02 0.75737442E+02</pdfrwt>
<pdfrwt beam="2">  1       21 0.23841751E+00 0.75737442E+02</pdfrwt>
<totfact> 0.93255092E+04</totfact>
</mgrwt>
</event>
<event>
 5    1  0.1624116E+000  0.1723526E+03  0.7546771E-02  0.1175416E+00
         21   -1    0    0  503  502  0.00000000000E+00  0.00000000000E+00  0.90470169718E+02  0.90470169718E+02  0.00000000000E+00 0. -1.
         21   -1    0    0  501  503 -0.00000000000E+00 -0.00000000000E+00 -0.42409876537E+03  0.42409876537E+03  0.00000000000E+00 0.  1.
         24    1    1    2    0    0 -0.13366975633E+03 -0.94876102384E+01 -0.15603221173E+03  0.22084131307E+03  0.80419002446E+02 0.  1.
          1    1    1    2  501    0  0.15688203884E+03  0.27199995547E+02 -0.20091789722E+03  0.25635876285E+03  0.00000000000E+00 0. -1.
         -2    1    1    2    0  502 -0.23212282508E+02 -0.17712385309E+02  0.23321513300E+02  0.37368859163E+02  0.00000000000E+00 0.  1.
<mgrwt>
<rscale>  2 0.17235263E+03</rscale>
<asrwt>0</asrwt>
<pdfrwt beam="1">  1       21 0.13918488E-01 0.17235263E+03</pdfrwt>
<pdfrwt beam="2">  1       21 0.65245962E-01 0.17235263E+03</pdfrwt>
<totfact> 0.97917911E+04</totfact>
</mgrwt>
</event>
<event>
 5    1  0.1624116E+000  0.9761471E+02  0.7546771E-02  0.1285393E+00
         21   -1    0    0  503  502  0.00000000000E+00  0.00000000000E+00  0.23132054982E+03  0.23132054982E+03  0.00000000000E+00 0.  1.
         21   -1    0    0  501  503 -0.00000000000E+00 -0.00000000000E+00 -0.90153053102E+02  0.90153053102E+02  0.00000000000E+00 0. -1.
         24    1    1    2    0    0 -0.32876562525E+02 -0.19744076328E+02  0.11919683570E+03  0.14881464480E+03  0.80419002446E+02 0.  0.
          1    1    1    2  501    0  0.42514938108E+02  0.55038986944E+02 -0.54189481634E+02  0.88166376618E+02  0.00000000000E+00 0. -1.
         -2    1    1    2    0  502 -0.96383755826E+01 -0.35294910616E+02  0.76160142654E+02  0.84492581498E+02  0.00000000000E+00 0.  1.
<mgrwt>
<rscale>  2 0.97614712E+02</rscale>
<asrwt>0</asrwt>
<pdfrwt beam="1">  1       21 0.35587777E-01 0.97614712E+02</pdfrwt>
<pdfrwt beam="2">  1       21 0.13869701E-01 0.97614712E+02</pdfrwt>
<totfact> 0.34998442E+05</totfact>
</mgrwt>
</event>
<event>
 5    1  0.1624116E+000  0.8015021E+02  0.7546771E-02  0.1328626E+00
         21   -1    0    0  503  502  0.00000000000E+00  0.00000000000E+00  0.24613339059E+02  0.24613339059E+02  0.00000000000E+00 0. -1.
         21   -1    0    0  501  503 -0.00000000000E+00 -0.00000000000E+00 -0.99368778661E+03  0.99368778661E+03  0.00000000000E+00 0. -1.
         24    1    1    2    0    0 -0.11191416731E+01 -0.58385071848E+02 -0.82302342609E+02  0.12903860138E+03  0.80419002446E+02 0. -1.
          1    1    1    2  501    0  0.90874006292E+01  0.36848432104E+02 -0.70875857133E+03  0.70977397827E+03  0.00000000000E+00 0. -1.
         -2    1    1    2    0  502 -0.79682589562E+01  0.21536639745E+02 -0.17801353361E+03  0.17948854602E+03  0.00000000000E+00 0.  1.
<mgrwt>
<rscale>  2 0.80150211E+02</rscale>
<asrwt>0</asrwt>
<pdfrwt beam="1">  1       21 0.37866677E-02 0.80150211E+02</pdfrwt>
<pdfrwt beam="2">  1       21 0.15287504E+00 0.80150211E+02</pdfrwt>
<totfact> 0.12961976E+05</totfact>
</mgrwt>
</event>
<event>
 5    1  0.1624116E+000  0.7050256E+02  0.7546771E-02  0.1358392E+00
         21   -1    0    0  503  502  0.00000000000E+00  0.00000000000E+00  0.13987146658E+04  0.13987146658E+04  0.00000000000E+00 0.  1.
         21   -1    0    0  501  503 -0.00000000000E+00 -0.00000000000E+00 -0.48124161924E+01  0.48124161924E+01  0.00000000000E+00 0. -1.
         24    1    1    2    0    0  0.54107497581E+01  0.20315677220E+02  0.10065164092E+04  0.10099428206E+04  0.80419002446E+02 0.  0.
          1    1    1    2  501    0  0.14915255504E+02 -0.31377670642E+02  0.11289971266E+03  0.11812437589E+03  0.00000000000E+00 0. -1.
         -2    1    1    2    0  502 -0.20326005263E+02  0.11061993422E+02  0.27448612779E+03  0.27545988553E+03  0.00000000000E+00 0.  1.
<mgrwt>
<rscale>  2 0.70502564E+02</rscale>
<asrwt>0</asrwt>
<pdfrwt beam="1">  1       21 0.21518655E+00 0.70502564E+02</pdfrwt>
<pdfrwt beam="2">  1       21 0.74037284E-03 0.70502564E+02</pdfrwt>
<totfact> 0.68637384E+05</totfact>
</mgrwt>
</event>
<event>
 5    1  0.1624116E+000  0.8657748E+02  0.7546771E-02  0.1311358E+00
         21   -1    0    0  501  502  0.00000000000E+00  0.00000000000E+00  0.79379867030E+03  0.79379867030E+03  0.00000000000E+00 0.  1.
         21   -1    0    0  502  503 -0.00000000000E+00 -0.00000000000E+00 -0.13865034966E+02  0.13865034966E+02  0.00000000000E+00 0.  1.
         24    1    1    2    0    0  0.51905581897E+02 -0.40841324478E+02  0.45937854376E+03  0.47101811604E+03  0.80419002446E+02 0.  1.
          1    1    1    2  501    0 -0.27080670346E+02  0.33752082597E+02  0.30141941746E+03  0.30450982087E+03  0.00000000000E+00 0. -1.
         -2    1    1    2    0  503 -0.24824911551E+02  0.70892418817E+01  0.19135674121E+02  0.32135768359E+02  0.00000000000E+00 0.  1.
<mgrwt>
<rscale>  2 0.86577480E+02</rscale>
<asrwt>0</asrwt>
<pdfrwt beam="1">  1       21 0.12212284E+00 0.86577480E+02</pdfrwt>
<pdfrwt beam="2">  1       21 0.21330829E-02 0.86577480E+02</pdfrwt>
<totfact> 0.57122251E+05</totfact>
</mgrwt>
</event>
<event>
 5    1  0.1624116E+000  0.7643822E+02  0.7546771E-02  0.1339474E+00
         21   -1    0    0  501  502  0.00000000000E+00  0.00000000000E+00  0.63880932225E+03  0.63880932225E+03  0.00000000000E+00 0. -1.
         21   -1    0    0  502  503 -0.00000000000E+00 -0.00000000000E+00 -0.17454195498E+03  0.17454195498E+03  0.00000000000E+00 0. -1.
         24    1    1    2    0    0 -0.34897469253E+02 -0.39431024190E+02 -0.15936009575E+03  0.18610613934E+03  0.80419002446E+02 0. -1.
          1    1    1    2  501    0  0.28520332689E+02  0.16496365344E+02  0.51438661230E+03  0.51544071081E+03  0.00000000000E+00 0. -1.
         -2    1    1    2    0  503  0.63771365632E+01  0.22934658846E+02  0.10924085073E+03  0.11180442708E+03  0.00000000000E+00 0.  1.
<mgrwt>
<rscale>  2 0.76438223E+02</rscale>
<asrwt>0</asrwt>
<pdfrwt beam="1">  1       21 0.98278356E-01 0.76438223E+02</pdfrwt>
<pdfrwt beam="2">  1       21 0.26852609E-01 0.76438223E+02</pdfrwt>
<totfact> 0.12578443E+04</totfact>
</mgrwt>
</event>
<event>
 5    1  0.1624116E+000  0.6340355E+02  0.7546771E-02  0.1384079E+00
         21   -1    0    0  501  502  0.00000000000E+00  0.00000000000E+00  0.56968986651E+02  0.56968986651E+02  0.00000000000E+00 0.  1.
         21   -1    0    0  502  503 -0.00000000000E+00 -0.00000000000E+00 -0.30500862388E+03  0.30500862388E+03  0.00000000000E+00 0.  1.
         24    1    1    2    0    0  0.32611786514E+01  0.24978558599E+01  0.25013561462E+02  0.84319444860E+02  0.80419002446E+02 0.  1.
          1    1    1    2  501    0  0.35460000487E+01 -0.23726445647E+02 -0.86073457412E+02  0.89354118038E+02  0.00000000000E+00 0. -1.
         -2    1    1    2    0  503 -0.68071787001E+01  0.21228589787E+02 -0.18697974128E+03  0.18830404764E+03  0.00000000000E+00 0.  1.
<mgrwt>
<rscale>  2 0.63403551E+02</rscale>
<asrwt>0</asrwt>
<pdfrwt beam="1">  1       21 0.87644597E-02 0.63403551E+02</pdfrwt>
<pdfrwt beam="2">  1       21 0.46924402E-01 0.63403551E+02</pdfrwt>
<totfact> 0.45068953E+05</totfact>
</mgrwt>
</event>
<event>
 5    1  0.1624116E+000  0.7446328E+02  0.7546771E-02  0.1345541E+00
         21   -1    0    0  501  502  0.00000000000E+00  0.00000000000E+00  0.19659577031E+02  0.19659577031E+02  0.00000000000E+00 0. -1.
         21   -1    0    0  502  503 -0.00000000000E+00 -0.00000000000E+00 -0.29954493932E+03  0.29954493932E+03  0.00000000000E+00 0.  1.
         24    1    1    2    0    0 -0.21335305007E+02 -0.18287487174E+02 -0.13209828885E+03  0.15718397278E+03  0.80419002446E+02 0.  0.
          1    1    1    2  501    0  0.41149139958E+02  0.14013759209E+02 -0.77383550967E+02  0.88757259572E+02  0.00000000000E+00 0. -1.
         -2    1    1    2    0  503 -0.19813834951E+02  0.42737279654E+01 -0.70403522474E+02  0.73263284003E+02  0.00000000000E+00 0.  1.
<mgrwt>
<rscale>  2 0.74463285E+02</rscale>
<asrwt>0</asrwt>
<pdfrwt beam="1">  1       21 0.30245503E-02 0.74463285E+02</pdfrwt>
<pdfrwt beam="2">  1       21 0.46083837E-01 0.74463285E+02</pdfrwt>
<totfact> 0.27337275E+06</totfact>
</mgrwt>
</event>
<event>
 5    1  0.1624116E+000  0.8308937E+02  0.7546771E-02  0.1320506E+00
         21   -1    0    0  501  502  0.00000000000E+00  0.00000000000E+00  0.14607476814E+02  0.14607476814E+02  0.00000000000E+00 0.  1.
         21   -1    0    0  502  503 -0.00000000000E+00 -0.00000000000E+00 -0.74627234443E+03  0.74627234443E+03  0.00000000000E+00 0.  1.
         24    1    1    2    0    0 -0.50764317762E+02 -0.22807135427E+02 -0.55125937662E+03  0.55986721431E+03  0.80419002446E+02 0.  1.
          1    1    1    2  501    0  0.16429224472E+02  0.29153698542E+02 -0.25102694550E+02  0.41833035141E+02  0.00000000000E+00 0. -1.
         -2    1    1    2    0  503  0.34335093290E+02 -0.63465631150E+01 -0.15530279644E+03  0.15917957180E+03  0.00000000000E+00 0.  1.
<mgrwt>
<rscale>  2 0.83089366E+02</rscale>
<asrwt>0</asrwt>
<pdfrwt beam="1">  1       21 0.22473034E-02 0.83089366E+02</pdfrwt>
<pdfrwt beam="2">  1       21 0.11481117E+00 0.83089366E+02</pdfrwt>
<totfact> 0.60923318E+05</totfact>
</mgrwt>
</event>
<event>
 5    1  0.1624116E+000  0.7419622E+02  0.7546771E-02  0.1346378E+00
         21   -1    0    0  501  502  0.00000000000E+00  0.00000000000E+00  0.37418297592E+02  0.37418297592E+02  0.00000000000E+00 0.  1.
         21   -1    0    0  502  503 -0.00000000000E+00 -0.00000000000E+00 -0.21188655110E+03  0.21188655110E+03  0.00000000000E+00 0. -1.
         24    1    1    2    0    0  0.14901578612E+02  0.94453092553E+01 -0.57288989075E+02  0.10030211930E+03  0.80419002446E+02 0.  1.
          1    1    1    2  501    0  0.18402903451E+02  0.15811560888E+02  0.34686359403E+00  0.24265049506E+02  0.00000000000E+00 0. -1.
         -2    1    1    2    0  503 -0.33304482063E+02 -0.25256870144E+02 -0.11752612803E+03  0.12473767989E+03  0.00000000000E+00 0.  1.
<mgrwt>
<rscale>  2 0.74196219E+02</rscale>
<asrwt>0</asrwt>
<pdfrwt beam="1">  1       21 0.57566612E-02 0.74196219E+02</pdfrwt>
<pdfrwt beam="2">  1       21 0.32597931E-01 0.74196219E+02</pdfrwt>
<totfact> 0.18729065E+06</totfact>
</mgrwt>
</event>
<event>
 5    1  0.1624116E+000  0.9383681E+02  0.7546771E-02  0.1293818E+00
         21   -1    0    0  501  502  0.00000000000E+00  0.00000000000E+00  0.49460648444E+03  0.49460648444E+03  0.00000000000E+00 0.  1.
         21   -1    0    0  502  503 -0.00000000000E+00 -0.00000000000E+00 -0.32350220138E+02  0.32350220138E+02  0.00000000000E+00 0.  1.
         24    1    1    2    0    0  0.36842047809E+02  0.61000463011E+02  0.20039512592E+03  0.22738472997E+03  0.80419002446E+02 0.  1.
          1    1    1    2  501    0 -0.13524132113E+02 -0.54303973948E+02  0.26862007679E+03  0.27438762616E+03  0.00000000000E+00 0. -1.
         -2    1    1    2    0  503 -0.23317915696E+02 -0.66964890627E+01 -0.67589384137E+01  0.25184348446E+02  0.00000000000E+00 0.  1.
<mgrwt>
<rscale>  2 0.93836809E+02</rscale>
<asrwt>0</asrwt>
<pdfrwt beam="1">  1       21 0.76093300E-01 0.93836809E+02</pdfrwt>
<pdfrwt beam="2">  1       21 0.49769573E-02 0.93836809E+02</pdfrwt>
<totfact> 0.42430554E+05</totfact>
</mgrwt>
</event>
<event>
 5    1  0.1624116E+000  0.7385066E+02  0.7546771E-02  0.1347468E+00
         21   -1    0    0  501  502  0.00000000000E+00  0.00000000000E+00  0.25150308006E+03  0.25150308006E+03  0.00000000000E+00 0. -1.
         21   -1    0    0  502  503 -0.00000000000E+00 -0.00000000000E+00 -0.61377704252E+02  0.61377704252E+02  0.00000000000E+00 0.  1.
         24    1    1    2    0    0  0.19985169733E+02 -0.15936260520E+02  0.13924757995E+03  0.16282037921E+03  0.80419002446E+02 0. -1.
          1    1    1    2  501    0 -0.40625822413E+02  0.99498281735E+01  0.93443210837E+02  0.10237719560E+03  0.00000000000E+00 0. -1.
         -2    1    1    2    0  503  0.20640652681E+02  0.59864323462E+01 -0.42565414985E+02  0.47683209499E+02  0.00000000000E+00 0.  1.
<mgrwt>
<rscale>  2 0.73850665E+02</rscale>
<asrwt>0</asrwt>
<pdfrwt beam="1">  1       21 0.38692781E-01 0.73850665E+02</pdfrwt>
<pdfrwt beam="2">  1       21 0.94427239E-02 0.73850665E+02</pdfrwt>
<totfact> 0.58193795E+05</totfact>
</mgrwt>
</event>
<event>
 5    1  0.1624116E+000  0.8145791E+02  0.7546771E-02  0.1324964E+00
         21   -1    0    0  501  502  0.00000000000E+00  0.00000000000E+00  0.94540010868E+01  0.94540010868E+01  0.00000000000E+00 0. -1.
         21   -1    0    0  502  503 -0.00000000000E+00 -0.00000000000E+00 -0.84560115025E+03  0.84560115025E+03  0.00000000000E+00 0.  1.
         24    1    1    2    0    0 -0.51109084807E+02 -0.34343002055E+02 -0.51137364501E+03  0.52130777963E+03  0.80419002446E+02 0.  1.
          1    1    1    2  501    0  0.22348977425E+02  0.13477761167E+02 -0.47422780485E+02  0.54129908063E+02  0.00000000000E+00 0. -1.
         -2    1    1    2    0  503  0.28760107382E+02  0.20865240888E+02 -0.27735072367E+03  0.27961746364E+03  0.00000000000E+00 0.  1.
<mgrwt>
<rscale>  2 0.81457914E+02</rscale>
<asrwt>0</asrwt>
<pdfrwt beam="1">  1       21 0.14544618E-02 0.81457914E+02</pdfrwt>
<pdfrwt beam="2">  1       21 0.13009248E+00 0.81457914E+02</pdfrwt>
<totfact> 0.90069792E+05</totfact>
</mgrwt>
</event>
<event>
 5    1  0.1624116E+000  0.1312633E+03  0.7546771E-02  0.1225593E+00
         21   -1    0    0  503  502  0.00000000000E+00  0.00000000000E+00  0.89939082127E+02  0.89939082127E+02  0.00000000000E+00 0. -1.
         21   -1    0    0  501  503 -0.00000000000E+00 -0.00000000000E+00 -0.22694305607E+03  0.22694305607E+03  0.00000000000E+00 0. -1.
         24    1    1    2    0    0  0.62441576916E+02  0.71380647224E+02 -0.88076427228E+02  0.15237723030E+03  0.80419002446E+02 0. -1.
          1    1    1    2  501    0 -0.51923751290E+02 -0.97257457487E+02 -0.69041520640E+02  0.13008389815E+03  0.00000000000E+00 0. -1.
         -2    1    1    2    0  502 -0.10517825626E+02  0.25876810263E+02  0.20113973924E+02  0.34421009752E+02  0.00000000000E+00 0.  1.
<mgrwt>
<rscale>  2 0.13126326E+03</rscale>
<asrwt>0</asrwt>
<pdfrwt beam="1">  1       21 0.13836782E-01 0.13126326E+03</pdfrwt>
<pdfrwt beam="2">  1       21 0.34914316E-01 0.13126326E+03</pdfrwt>
<totfact> 0.36316557E+05</totfact>
</mgrwt>
</event>
<event>
 5    1  0.1624116E+000  0.7527251E+02  0.7546771E-02  0.1343029E+00
         21   -1    0    0  501  502  0.00000000000E+00  0.00000000000E+00  0.52722740252E+03  0.52722740252E+03  0.00000000000E+00 0. -1.
         21   -1    0    0  502  503 -0.00000000000E+00 -0.00000000000E+00 -0.15749337476E+02  0.15749337476E+02  0.00000000000E+00 0.  1.
         24    1    1    2    0    0 -0.46562568489E+02  0.23531720098E+02  0.18136040237E+03  0.20513562864E+03  0.80419002446E+02 0.  1.
          1    1    1    2  501    0  0.32038072079E+02 -0.72143931206E+01  0.29252085202E+03  0.29435851338E+03  0.00000000000E+00 0. -1.
         -2    1    1    2    0  503  0.14524496410E+02 -0.16317326977E+02  0.37596810650E+02  0.43482597975E+02  0.00000000000E+00 0.  1.
<mgrwt>
<rscale>  2 0.75272506E+02</rscale>
<asrwt>0</asrwt>
<pdfrwt beam="1">  1       21 0.81111895E-01 0.75272506E+02</pdfrwt>
<pdfrwt beam="2">  1       21 0.24229754E-02 0.75272506E+02</pdfrwt>
<totfact> 0.11936089E+06</totfact>
</mgrwt>
</event>
<event>
 5    1  0.1624116E+000  0.6431618E+02  0.7546771E-02  0.1380562E+00
         21   -1    0    0  501  502  0.00000000000E+00  0.00000000000E+00  0.94907480346E+02  0.94907480346E+02  0.00000000000E+00 0. -1.
         21   -1    0    0  502  503 -0.00000000000E+00 -0.00000000000E+00 -0.15470493805E+03  0.15470493805E+03  0.00000000000E+00 0. -1.
         24    1    1    2    0    0 -0.45936497019E+01 -0.21169576790E+02 -0.56153586491E+02  0.10044746801E+03  0.80419002446E+02 0. -1.
          1    1    1    2  501    0 -0.17008417912E+02  0.15503692253E+02  0.69225150257E+02  0.72950477596E+02  0.00000000000E+00 0. -1.
         -2    1    1    2    0  503  0.21602067613E+02  0.56658845373E+01 -0.72869021469E+02  0.76214472790E+02  0.00000000000E+00 0.  1.
<mgrwt>
<rscale>  2 0.64316177E+02</rscale>
<asrwt>0</asrwt>
<pdfrwt beam="1">  1       21 0.14601151E-01 0.64316177E+02</pdfrwt>
<pdfrwt beam="2">  1       21 0.23800759E-01 0.64316177E+02</pdfrwt>
<totfact> 0.68435390E+05</totfact>
</mgrwt>
</event>
<event>
 5    1  0.1624116E+000  0.7529211E+02  0.7546771E-02  0.1342969E+00
         21   -1    0    0  501  502  0.00000000000E+00  0.00000000000E+00  0.20415242021E+02  0.20415242021E+02  0.00000000000E+00 0.  1.
         21   -1    0    0  502  503 -0.00000000000E+00 -0.00000000000E+00 -0.45579515472E+03  0.45579515472E+03  0.00000000000E+00 0.  1.
         24    1    1    2    0    0 -0.41595896309E+02  0.71755923019E-01 -0.13379767731E+03  0.16155264822E+03  0.80419002446E+02 0.  1.
          1    1    1    2  501    0  0.81298465806E+01 -0.19654837367E+02 -0.16417576061E+02  0.26869012655E+02  0.00000000000E+00 0. -1.
         -2    1    1    2    0  503  0.33466049728E+02  0.19583081444E+02 -0.28516465932E+03  0.28778873586E+03  0.00000000000E+00 0.  1.
<mgrwt>
<rscale>  2 0.75292113E+02</rscale>
<asrwt>0</asrwt>
<pdfrwt beam="1">  1       21 0.31408066E-02 0.75292113E+02</pdfrwt>
<pdfrwt beam="2">  1       21 0.70122329E-01 0.75292113E+02</pdfrwt>
<totfact> 0.10779228E+06</totfact>
</mgrwt>
</event>
<event>
 5    1  0.1624116E+000  0.1847372E+03  0.7546771E-02  0.1163295E+00
         21   -1    0    0  503  502  0.00000000000E+00  0.00000000000E+00  0.35261850163E+03  0.35261850163E+03  0.00000000000E+00 0.  1.
         21   -1    0    0  501  503 -0.00000000000E+00 -0.00000000000E+00 -0.23073478787E+03  0.23073478787E+03  0.00000000000E+00 0.  1.
         24    1    1    2    0    0 -0.84556446535E+02  0.14110855937E+03 -0.11107082144E+03  0.21416199828E+03  0.80419002446E+02 0.  1.
          1    1    1    2  501    0 -0.16224282827E+02 -0.41971782407E+02 -0.41023383335E+02  0.60891508865E+02  0.00000000000E+00 0. -1.
         -2    1    1    2    0  502  0.10078072936E+03 -0.99136776966E+02  0.27397791853E+03  0.30829978236E+03  0.00000000000E+00 0.  1.
<mgrwt>
<rscale>  2 0.18473724E+03</rscale>
<asrwt>0</asrwt>
<pdfrwt beam="1">  1       21 0.54249000E-01 0.18473724E+03</pdfrwt>
<pdfrwt beam="2">  1       21 0.35497660E-01 0.18473724E+03</pdfrwt>
<totfact> 0.24680677E+04</totfact>
</mgrwt>
</event>
<event>
 5    1  0.1624116E+000  0.7055266E+02  0.7546771E-02  0.1358224E+00
         21   -1    0    0  501  502  0.00000000000E+00  0.00000000000E+00  0.22770430739E+02  0.22770430739E+02  0.00000000000E+00 0.  1.
         21   -1    0    0  502  503 -0.00000000000E+00 -0.00000000000E+00 -0.38132840160E+03  0.38132840160E+03  0.00000000000E+00 0.  1.
         24    1    1    2    0    0 -0.23705312416E+02 -0.60871950793E+01 -0.80186439260E+02  0.11617261629E+03  0.80419002446E+02 0.  0.
          1    1    1    2  501    0  0.30568265881E+01  0.27282965625E+02 -0.45197835471E+02  0.52882404762E+02  0.00000000000E+00 0. -1.
         -2    1    1    2    0  503  0.20648485828E+02 -0.21195770546E+02 -0.23317369613E+03  0.23504381128E+03  0.00000000000E+00 0.  1.
<mgrwt>
<rscale>  2 0.70552664E+02</rscale>
<asrwt>0</asrwt>
<pdfrwt beam="1">  1       21 0.35031438E-02 0.70552664E+02</pdfrwt>
<pdfrwt beam="2">  1       21 0.58665899E-01 0.70552664E+02</pdfrwt>
<totfact> 0.13132696E+06</totfact>
</mgrwt>
</event>
<event>
 5    1  0.1624116E+000  0.8304572E+02  0.7546771E-02  0.1320624E+00
         21   -1    0    0  503  502  0.00000000000E+00  0.00000000000E+00  0.16782186735E+02  0.16782186735E+02  0.00000000000E+00 0.  1.
         21   -1    0    0  501  503 -0.00000000000E+00 -0.00000000000E+00 -0.44408658596E+03  0.44408658596E+03  0.00000000000E+00 0. -1.
         24    1    1    2    0    0  0.24806402147E+02 -0.29704842007E+01 -0.22086867325E+03  0.23637759653E+03  0.80419002446E+02 0.  0.
          1    1    1    2  501    0 -0.44990425887E+02  0.25433686265E+02 -0.16703947628E+03  0.17485193008E+03  0.00000000000E+00 0. -1.
         -2    1    1    2    0  502  0.20184023740E+02 -0.22463202064E+02 -0.39396249695E+02  0.49639246079E+02  0.00000000000E+00 0.  1.
<mgrwt>
<rscale>  2 0.83045717E+02</rscale>
<asrwt>0</asrwt>
<pdfrwt beam="1">  1       21 0.25818751E-02 0.83045717E+02</pdfrwt>
<pdfrwt beam="2">  1       21 0.68321008E-01 0.83045717E+02</pdfrwt>
<totfact> 0.15681999E+06</totfact>
</mgrwt>
</event>
<event>
 5    1  0.1624116E+000  0.6909913E+02  0.7546771E-02  0.1363184E+00
         21   -1    0    0  503  502  0.00000000000E+00  0.00000000000E+00  0.56276187700E+02  0.56276187700E+02  0.00000000000E+00 0. -1.
         21   -1    0    0  501  503 -0.00000000000E+00 -0.00000000000E+00 -0.10114368178E+03  0.10114368178E+03  0.00000000000E+00 0. -1.
         24    1    1    2    0    0  0.15947150253E+01  0.17578000217E+02 -0.41795753068E+02  0.92334338880E+02  0.80419002446E+02 0. -1.
          1    1    1    2  501    0 -0.17792864859E+02 -0.30387972378E+02 -0.18053712616E+02  0.39572104371E+02  0.00000000000E+00 0. -1.
         -2    1    1    2    0  502  0.16198149834E+02  0.12809972161E+02  0.14981971603E+02  0.25513426229E+02  0.00000000000E+00 0.  1.
<mgrwt>
<rscale>  2 0.69099131E+02</rscale>
<asrwt>0</asrwt>
<pdfrwt beam="1">  1       21 0.86578752E-02 0.69099131E+02</pdfrwt>
<pdfrwt beam="2">  1       21 0.15560566E-01 0.69099131E+02</pdfrwt>
<totfact> 0.36602201E+06</totfact>
</mgrwt>
</event>
<event>
 5    1  0.1624116E+000  0.7096491E+02  0.7546771E-02  0.1356842E+00
         21   -1    0    0  503  502  0.00000000000E+00  0.00000000000E+00  0.23901566315E+03  0.23901566315E+03  0.00000000000E+00 0.  1.
         21   -1    0    0  501  503 -0.00000000000E+00 -0.00000000000E+00 -0.35333832817E+02  0.35333832817E+02  0.00000000000E+00 0. -1.
         24    1    1    2    0    0  0.13328445639E+02  0.44970498720E+02  0.12861891245E+03  0.15877667906E+03  0.80419002446E+02 0.  1.
          1    1    1    2  501    0  0.86195520413E-01 -0.23599185261E+02 -0.10891417634E+02  0.25991382278E+02  0.00000000000E+00 0. -1.
         -2    1    1    2    0  502 -0.13414641159E+02 -0.21371313459E+02  0.85954335512E+02  0.89581434626E+02  0.00000000000E+00 0.  1.
<mgrwt>
<rscale>  2 0.70964910E+02</rscale>
<asrwt>0</asrwt>
<pdfrwt beam="1">  1       21 0.36771639E-01 0.70964910E+02</pdfrwt>
<pdfrwt beam="2">  1       21 0.54359744E-02 0.70964910E+02</pdfrwt>
<totfact> 0.16297681E+06</totfact>
</mgrwt>
</event>
<event>
 5    1  0.1624116E+000  0.1116375E+03  0.7546771E-02  0.1257567E+00
         21   -1    0    0  503  502  0.00000000000E+00  0.00000000000E+00  0.96786356869E+02  0.96786356869E+02  0.00000000000E+00 0. -1.
         21   -1    0    0  501  503 -0.00000000000E+00 -0.00000000000E+00 -0.17586953619E+03  0.17586953619E+03  0.00000000000E+00 0. -1.
         24    1    1    2    0    0  0.47313869000E+02 -0.64959253395E+02 -0.33249312341E+02  0.11845268898E+03  0.80419002446E+02 0. -1.
          1    1    1    2  501    0  0.13818350758E+02  0.42113878285E+02 -0.71460952853E+02  0.84090387944E+02  0.00000000000E+00 0. -1.
         -2    1    1    2    0  502 -0.61132219758E+02  0.22845375109E+02  0.25627085870E+02  0.70112816137E+02  0.00000000000E+00 0.  1.
<mgrwt>
<rscale>  2 0.11163745E+03</rscale>
<asrwt>0</asrwt>
<pdfrwt beam="1">  1       21 0.14890209E-01 0.11163745E+03</pdfrwt>
<pdfrwt beam="2">  1       21 0.27056852E-01 0.11163745E+03</pdfrwt>
<totfact> 0.52196358E+05</totfact>
</mgrwt>
</event>
<event>
 5    1  0.1624116E+000  0.9094416E+02  0.7546771E-02  0.1300581E+00
         21   -1    0    0  501  502  0.00000000000E+00  0.00000000000E+00  0.10696297593E+04  0.10696297593E+04  0.00000000000E+00 0. -1.
         21   -1    0    0  502  503 -0.00000000000E+00 -0.00000000000E+00 -0.75324062720E+02  0.75324062720E+02  0.00000000000E+00 0.  1.
         24    1    1    2    0    0 -0.18932282638E+02 -0.43555701498E+02  0.21104909490E+02  0.95750528029E+02  0.80419002446E+02 0.  1.
          1    1    1    2  501    0  0.41248970265E+02  0.19684427724E+01  0.99595291990E+03  0.99680869326E+03  0.00000000000E+00 0. -1.
         -2    1    1    2    0  503 -0.22316687627E+02  0.41587258726E+02 -0.22752132828E+02  0.52394600706E+02  0.00000000000E+00 0.  1.
<mgrwt>
<rscale>  2 0.90944161E+02</rscale>
<asrwt>0</asrwt>
<pdfrwt beam="1">  1       21 0.16455841E+00 0.90944161E+02</pdfrwt>
<pdfrwt beam="2">  1       21 0.11588318E-01 0.90944161E+02</pdfrwt>
<totfact> 0.16009902E+04</totfact>
</mgrwt>
</event>
<event>
 5    1  0.1624116E+000  0.9300701E+02  0.7546771E-02  0.1295729E+00
         21   -1    0    0  503  502  0.00000000000E+00  0.00000000000E+00  0.58943334292E+02  0.58943334292E+02  0.00000000000E+00 0.  1.
         21   -1    0    0  501  503 -0.00000000000E+00 -0.00000000000E+00 -0.31552694518E+03  0.31552694518E+03  0.00000000000E+00 0.  1.
         24    1    1    2    0    0  0.55811598143E+02 -0.31654934767E+02 -0.13845601858E+03  0.17249421560E+03  0.80419002446E+02 0.  1.
          1    1    1    2  501    0 -0.58685293666E+02  0.79095548928E+01 -0.15049732490E+03  0.16172807287E+03  0.00000000000E+00 0. -1.
         -2    1    1    2    0  502  0.28736955234E+01  0.23745379874E+02  0.32369732592E+02  0.40247990998E+02  0.00000000000E+00 0.  1.
<mgrwt>
<rscale>  2 0.93007012E+02</rscale>
<asrwt>0</asrwt>
<pdfrwt beam="1">  1       21 0.90682054E-02 0.93007012E+02</pdfrwt>
<pdfrwt beam="2">  1       21 0.48542606E-01 0.93007012E+02</pdfrwt>
<totfact> 0.39672646E+05</totfact>
</mgrwt>
</event>
<event>
 5    1  0.1624116E+000  0.9601313E+02  0.7546771E-02  0.1288910E+00
         21   -1    0    0  501  502  0.00000000000E+00  0.00000000000E+00  0.68745946863E+02  0.68745946863E+02  0.00000000000E+00 0. -1.
         21   -1    0    0  502  503 -0.00000000000E+00 -0.00000000000E+00 -0.18400161575E+03  0.18400161575E+03  0.00000000000E+00 0.  1.
         24    1    1    2    0    0  0.56899237805E+02  0.31034179499E+02 -0.11364852845E+03  0.15357033416E+03  0.80419002446E+02 0.  1.
          1    1    1    2  501    0  0.82979360864E+01 -0.21251275544E+02  0.19438893713E+02  0.29972371350E+02  0.00000000000E+00 0. -1.
         -2    1    1    2    0  503 -0.65197173891E+02 -0.97829039548E+01 -0.21046034145E+02  0.69204857102E+02  0.00000000000E+00 0.  1.
<mgrwt>
<rscale>  2 0.96013126E+02</rscale>
<asrwt>0</asrwt>
<pdfrwt beam="1">  1       21 0.10576300E-01 0.96013126E+02</pdfrwt>
<pdfrwt beam="2">  1       21 0.28307940E-01 0.96013126E+02</pdfrwt>
<totfact> 0.87634961E+05</totfact>
</mgrwt>
</event>
<event>
 5    1  0.1624116E+000  0.7720224E+02  0.7546771E-02  0.1337184E+00
         21   -1    0    0  503  502  0.00000000000E+00  0.00000000000E+00  0.66331053209E+02  0.66331053209E+02  0.00000000000E+00 0.  1.
         21   -1    0    0  501  503 -0.00000000000E+00 -0.00000000000E+00 -0.12711655569E+03  0.12711655569E+03  0.00000000000E+00 0.  1.
         24    1    1    2    0    0 -0.55910214222E+02  0.31893429628E+01 -0.64309165487E+02  0.11721351749E+03  0.80419002446E+02 0.  1.
          1    1    1    2  501    0  0.35791145427E+02 -0.52877301015E+01 -0.23004244558E+02  0.42873785094E+02  0.00000000000E+00 0. -1.
         -2    1    1    2    0  502  0.20119068795E+02  0.20983871387E+01  0.26527907562E+02  0.33360306315E+02  0.00000000000E+00 0.  1.
<mgrwt>
<rscale>  2 0.77202236E+02</rscale>
<asrwt>0</asrwt>
<pdfrwt beam="1">  1       21 0.10204777E-01 0.77202236E+02</pdfrwt>
<pdfrwt beam="2">  1       21 0.19556393E-01 0.77202236E+02</pdfrwt>
<totfact> 0.18425119E+06</totfact>
</mgrwt>
</event>
<event>
 5    1  0.1624116E+000  0.7878058E+02  0.7546771E-02  0.1332548E+00
         21   -1    0    0  503  502  0.00000000000E+00  0.00000000000E+00  0.78849576311E+01  0.78849576311E+01  0.00000000000E+00 0.  1.
         21   -1    0    0  501  503 -0.00000000000E+00 -0.00000000000E+00 -0.11371374486E+04  0.11371374486E+04  0.00000000000E+00 0.  1.
         24    1    1    2    0    0 -0.33540696630E+02  0.72796356786E+01 -0.68689898954E+03  0.69244162874E+03  0.80419002446E+02 0.  1.
          1    1    1    2  501    0 -0.87830936449E+01 -0.23276432540E+02 -0.33706714992E+03  0.33798402123E+03  0.00000000000E+00 0. -1.
         -2    1    1    2    0  502  0.42323790275E+02  0.15996796861E+02 -0.10528635148E+03  0.11459675624E+03  0.00000000000E+00 0.  1.
<mgrwt>
<rscale>  2 0.78780585E+02</rscale>
<asrwt>0</asrwt>
<pdfrwt beam="1">  1       21 0.12130707E-02 0.78780585E+02</pdfrwt>
<pdfrwt beam="2">  1       21 0.17494418E+00 0.78780585E+02</pdfrwt>
<totfact> 0.56387230E+05</totfact>
</mgrwt>
</event>
<event>
 5    1  0.1624116E+000  0.6905955E+02  0.7546771E-02  0.1363321E+00
         21   -1    0    0  501  502  0.00000000000E+00  0.00000000000E+00  0.26971970139E+03  0.26971970139E+03  0.00000000000E+00 0. -1.
         21   -1    0    0  502  503 -0.00000000000E+00 -0.00000000000E+00 -0.65895334760E+02  0.65895334760E+02  0.00000000000E+00 0.  1.
         24    1    1    2    0    0  0.33291265430E+02  0.24057200843E+02  0.33540282446E+02  0.96328727632E+02  0.80419002446E+02 0.  0.
          1    1    1    2  501    0 -0.26281856590E+02 -0.40165701441E+01  0.20055641545E+03  0.20231100959E+03  0.00000000000E+00 0. -1.
         -2    1    1    2    0  503 -0.70094088394E+01 -0.20040630698E+02 -0.30272331264E+02  0.36975298934E+02  0.00000000000E+00 0.  1.
<mgrwt>
<rscale>  2 0.69059549E+02</rscale>
<asrwt>0</asrwt>
<pdfrwt beam="1">  1       21 0.41495338E-01 0.69059549E+02</pdfrwt>
<pdfrwt beam="2">  1       21 0.10137744E-01 0.69059549E+02</pdfrwt>
<totfact> 0.44870264E+05</totfact>
</mgrwt>
</event>
<event>
 5    1  0.1624116E+000  0.8510756E+02  0.7546771E-02  0.1315151E+00
         21   -1    0    0  501  502  0.00000000000E+00  0.00000000000E+00  0.14528858584E+03  0.14528858584E+03  0.00000000000E+00 0.  1.
         21   -1    0    0  502  503 -0.00000000000E+00 -0.00000000000E+00 -0.71457660989E+02  0.71457660989E+02  0.00000000000E+00 0.  1.
         24    1    1    2    0    0 -0.55748396949E+02  0.12752533583E+02  0.67078430566E+02  0.11931991735E+03  0.80419002446E+02 0.  1.
          1    1    1    2  501    0  0.31028609821E+02  0.14920065550E+02  0.36272216849E+02  0.50010565870E+02  0.00000000000E+00 0. -1.
         -2    1    1    2    0  503  0.24719787128E+02 -0.27672599133E+02 -0.29519722563E+02  0.47415763609E+02  0.00000000000E+00 0.  1.
<mgrwt>
<rscale>  2 0.85107558E+02</rscale>
<asrwt>0</asrwt>
<pdfrwt beam="1">  1       21 0.22352090E-01 0.85107558E+02</pdfrwt>
<pdfrwt beam="2">  1       21 0.10993486E-01 0.85107558E+02</pdfrwt>
<totfact> 0.12719108E+06</totfact>
</mgrwt>
</event>
<event>
 5    1  0.1624116E+000  0.7916282E+02  0.7546771E-02  0.1331444E+00
         21   -1    0    0  501  502  0.00000000000E+00  0.00000000000E+00  0.86956911800E+02  0.86956911800E+02  0.00000000000E+00 0.  1.
         21   -1    0    0  502  503 -0.00000000000E+00 -0.00000000000E+00 -0.10839626812E+03  0.10839626812E+03  0.00000000000E+00 0.  1.
         24    1    1    2    0    0  0.25033464540E+02 -0.51375111927E+02 -0.27873400319E+02  0.10251935852E+03  0.80419002446E+02 0.  1.
          1    1    1    2  501    0 -0.19888075205E+02  0.21242658381E+02  0.38678411578E+02  0.48402537048E+02  0.00000000000E+00 0. -1.
         -2    1    1    2    0  503 -0.51453893351E+01  0.30132453546E+02 -0.32244367577E+02  0.44431284345E+02  0.00000000000E+00 0.  1.
<mgrwt>
<rscale>  2 0.79162823E+02</rscale>
<asrwt>0</asrwt>
<pdfrwt beam="1">  1       21 0.13377986E-01 0.79162823E+02</pdfrwt>
<pdfrwt beam="2">  1       21 0.16676349E-01 0.79162823E+02</pdfrwt>
<totfact> 0.15333639E+06</totfact>
</mgrwt>
</event>
<event>
 5    1  0.1624116E+000  0.6453693E+02  0.7546771E-02  0.1379722E+00
         21   -1    0    0  501  502  0.00000000000E+00  0.00000000000E+00  0.46198630474E+03  0.46198630474E+03  0.00000000000E+00 0.  1.
         21   -1    0    0  502  503 -0.00000000000E+00 -0.00000000000E+00 -0.10183243304E+02  0.10183243304E+02  0.00000000000E+00 0. -1.
         24    1    1    2    0    0  0.79260057354E+00  0.74401006060E+01  0.34983629835E+03  0.35903848667E+03  0.80419002446E+02 0.  1.
          1    1    1    2  501    0  0.17965564388E+02 -0.19099413327E+02  0.64694521056E+02  0.69806376126E+02  0.00000000000E+00 0. -1.
         -2    1    1    2    0  503 -0.18758164962E+02  0.11659312721E+02  0.37272242028E+02  0.43324685246E+02  0.00000000000E+00 0.  1.
<mgrwt>
<rscale>  2 0.64536933E+02</rscale>
<asrwt>0</asrwt>
<pdfrwt beam="1">  1       21 0.71074800E-01 0.64536933E+02</pdfrwt>
<pdfrwt beam="2">  1       21 0.15666532E-02 0.64536933E+02</pdfrwt>
<totfact> 0.31575404E+06</totfact>
</mgrwt>
</event>
<event>
 5    1  0.1624116E+000  0.8593661E+02  0.7546771E-02  0.1313001E+00
         21   -1    0    0  503  502  0.00000000000E+00  0.00000000000E+00  0.10777209843E+03  0.10777209843E+03  0.00000000000E+00 0.  1.
         21   -1    0    0  501  503 -0.00000000000E+00 -0.00000000000E+00 -0.32170056547E+03  0.32170056547E+03  0.00000000000E+00 0. -1.
         24    1    1    2    0    0  0.10976369423E+02 -0.31019962329E+02 -0.18261492475E+03  0.20223289901E+03  0.80419002446E+02 0. -1.
          1    1    1    2  501    0 -0.44082000159E+02  0.83676705791E+01 -0.12096754487E+03  0.12902088033E+03  0.00000000000E+00 0. -1.
         -2    1    1    2    0  502  0.33105630736E+02  0.22652291750E+02  0.89654002568E+02  0.98218884561E+02  0.00000000000E+00 0.  1.
<mgrwt>
<rscale>  2 0.85936606E+02</rscale>
<asrwt>0</asrwt>
<pdfrwt beam="1">  1       21 0.16580323E-01 0.85936606E+02</pdfrwt>
<pdfrwt beam="2">  1       21 0.49492394E-01 0.85936606E+02</pdfrwt>
<totfact> 0.13224618E+05</totfact>
</mgrwt>
</event>
<event>
 5    1  0.1624116E+000  0.1747161E+03  0.7546771E-02  0.1173017E+00
         21   -1    0    0  503  502  0.00000000000E+00  0.00000000000E+00  0.70691269937E+03  0.70691269937E+03  0.00000000000E+00 0.  1.
         21   -1    0    0  501  503 -0.00000000000E+00 -0.00000000000E+00 -0.45559914157E+02  0.45559914157E+02  0.00000000000E+00 0.  1.
         24    1    1    2    0    0  0.12492674148E+03  0.66786853667E+02  0.26828327088E+03  0.31386351165E+03  0.80419002446E+02 0.  1.
          1    1    1    2  501    0  0.23056831621E+02  0.23973640224E+01  0.17481922880E+02  0.29034160333E+02  0.00000000000E+00 0. -1.
         -2    1    1    2    0  502 -0.14798357310E+03 -0.69184217690E+02  0.37558759145E+03  0.40957494154E+03  0.00000000000E+00 0.  1.
<mgrwt>
<rscale>  2 0.17471610E+03</rscale>
<asrwt>0</asrwt>
<pdfrwt beam="1">  1       21 0.10875579E+00 0.17471610E+03</pdfrwt>
<pdfrwt beam="2">  1       21 0.70092181E-02 0.17471610E+03</pdfrwt>
<totfact> 0.10208671E+05</totfact>
</mgrwt>
</event>
<event>
 5    1  0.1624116E+000  0.7945189E+02  0.7546771E-02  0.1330614E+00
         21   -1    0    0  501  502  0.00000000000E+00  0.00000000000E+00  0.39182307342E+02  0.39182307342E+02  0.00000000000E+00 0. -1.
         21   -1    0    0  502  503 -0.00000000000E+00 -0.00000000000E+00 -0.26711328102E+03  0.26711328102E+03  0.00000000000E+00 0. -1.
         24    1    1    2    0    0 -0.15019352670E+02  0.31800859302E+02 -0.21256913165E+03  0.22997766694E+03  0.80419002446E+02 0. -1.
          1    1    1    2  501    0  0.36923268026E+02 -0.62031635308E+01  0.36761978806E+01  0.37620757440E+02  0.00000000000E+00 0. -1.
         -2    1    1    2    0  503 -0.21903915356E+02 -0.25597695771E+02 -0.19038039910E+02  0.38697163983E+02  0.00000000000E+00 0.  1.
<mgrwt>
<rscale>  2 0.79451889E+02</rscale>
<asrwt>0</asrwt>
<pdfrwt beam="1">  1       21 0.60280471E-02 0.79451889E+02</pdfrwt>
<pdfrwt beam="2">  1       21 0.41094352E-01 0.79451889E+02</pdfrwt>
<totfact> 0.11072888E+06</totfact>
</mgrwt>
</event>
<event>
 5    1  0.1624116E+000  0.1064611E+03  0.7546771E-02  0.1267267E+00
         21   -1    0    0  503  502  0.00000000000E+00  0.00000000000E+00  0.31215892926E+03  0.31215892926E+03  0.00000000000E+00 0.  1.
         21   -1    0    0  501  503 -0.00000000000E+00 -0.00000000000E+00 -0.72291763038E+02  0.72291763038E+02  0.00000000000E+00 0. -1.
         24    1    1    2    0    0  0.23870089475E+02 -0.87726309668E+01  0.12184700063E+03  0.14819125394E+03  0.80419002446E+02 0.  0.
          1    1    1    2  501    0  0.12696865726E+02  0.62395179311E+02 -0.33120125759E+02  0.71772637759E+02  0.00000000000E+00 0. -1.
         -2    1    1    2    0  502 -0.36566955201E+02 -0.53622548345E+02  0.15114029135E+03  0.16448680061E+03  0.00000000000E+00 0.  1.
<mgrwt>
<rscale>  2 0.10646106E+03</rscale>
<asrwt>0</asrwt>
<pdfrwt beam="1">  1       21 0.48024450E-01 0.10646106E+03</pdfrwt>
<pdfrwt beam="2">  1       21 0.11121810E-01 0.10646106E+03</pdfrwt>
<totfact> 0.28377274E+05</totfact>
</mgrwt>
</event>
<event>
 5    1  0.1624116E+000  0.6706646E+02  0.7546771E-02  0.1370363E+00
         21   -1    0    0  503  502  0.00000000000E+00  0.00000000000E+00  0.68688620280E+03  0.68688620280E+03  0.00000000000E+00 0. -1.
         21   -1    0    0  501  503 -0.00000000000E+00 -0.00000000000E+00 -0.22490830658E+02  0.22490830658E+02  0.00000000000E+00 0. -1.
         24    1    1    2    0    0  0.19422289058E+02  0.26724450110E+02  0.56626333455E+03  0.57289859622E+03  0.80419002446E+02 0. -1.
          1    1    1    2  501    0  0.41678637186E+01 -0.22922011993E+02 -0.10279514570E+02  0.25464841284E+02  0.00000000000E+00 0. -1.
         -2    1    1    2    0  502 -0.23590152777E+02 -0.38024381167E+01  0.10841155216E+03  0.11101359595E+03  0.00000000000E+00 0.  1.
<mgrwt>
<rscale>  2 0.67066457E+02</rscale>
<asrwt>0</asrwt>
<pdfrwt beam="1">  1       21 0.10567478E+00 0.67066457E+02</pdfrwt>
<pdfrwt beam="2">  1       21 0.34601283E-02 0.67066457E+02</pdfrwt>
<totfact> 0.36952729E+05</totfact>
</mgrwt>
</event>
<event>
 5    1  0.1624116E+000  0.1697362E+03  0.7546771E-02  0.1178123E+00
         21   -1    0    0  501  502  0.00000000000E+00  0.00000000000E+00  0.21206041488E+03  0.21206041488E+03  0.00000000000E+00 0.  1.
         21   -1    0    0  502  503 -0.00000000000E+00 -0.00000000000E+00 -0.18570428130E+03  0.18570428130E+03  0.00000000000E+00 0.  1.
         24    1    1    2    0    0 -0.10532410952E+03 -0.91374372666E+02 -0.86761551330E+02  0.18285848837E+03  0.80419002446E+02 0.  1.
          1    1    1    2  501    0  0.71034624796E+01 -0.25135758619E+02  0.34972828798E+02  0.43650478745E+02  0.00000000000E+00 0. -1.
         -2    1    1    2    0  503  0.98220647041E+02  0.11651013129E+03  0.78144856112E+02  0.17125572905E+03  0.00000000000E+00 0.  1.
<mgrwt>
<rscale>  2 0.16973617E+03</rscale>
<asrwt>0</asrwt>
<pdfrwt beam="1">  1       21 0.32624679E-01 0.16973617E+03</pdfrwt>
<pdfrwt beam="2">  1       21 0.28569889E-01 0.16973617E+03</pdfrwt>
<totfact> 0.10686271E+05</totfact>
</mgrwt>
</event>
<event>
 5    1  0.1624116E+000  0.1178440E+03  0.7546771E-02  0.1246697E+00
         21   -1    0    0  501  502  0.00000000000E+00  0.00000000000E+00  0.15065189582E+03  0.15065189582E+03  0.00000000000E+00 0.  1.
         21   -1    0    0  502  503 -0.00000000000E+00 -0.00000000000E+00 -0.10195434022E+03  0.10195434022E+03  0.00000000000E+00 0.  1.
         24    1    1    2    0    0  0.51118987441E+02  0.59059560807E+02 -0.15745557125E+02  0.11320919187E+03  0.80419002446E+02 0.  1.
          1    1    1    2  501    0 -0.46597466473E+02  0.15328350589E+02  0.24140752910E+02  0.54672279672E+02  0.00000000000E+00 0. -1.
         -2    1    1    2    0  503 -0.45215209681E+01 -0.74387911396E+02  0.40302359815E+02  0.84724764504E+02  0.00000000000E+00 0.  1.
<mgrwt>
<rscale>  2 0.11784397E+03</rscale>
<asrwt>0</asrwt>
<pdfrwt beam="1">  1       21 0.23177215E-01 0.11784397E+03</pdfrwt>
<pdfrwt beam="2">  1       21 0.15685283E-01 0.11784397E+03</pdfrwt>
<totfact> 0.63609772E+05</totfact>
</mgrwt>
</event>
<event>
 5    1  0.1624116E+000  0.1569451E+03  0.7546771E-02  0.1192189E+00
         21   -1    0    0  501  502  0.00000000000E+00  0.00000000000E+00  0.81005149791E+02  0.81005149791E+02  0.00000000000E+00 0. -1.
         21   -1    0    0  502  503 -0.00000000000E+00 -0.00000000000E+00 -0.59829389259E+03  0.59829389259E+03  0.00000000000E+00 0.  1.
         24    1    1    2    0    0  0.74182878249E+02 -0.98244572393E+02 -0.10266677311E+03  0.17933983853E+03  0.80419002446E+02 0.  1.
          1    1    1    2  501    0  0.24692263567E+02  0.52259752898E+02  0.12501175138E+02  0.59136021449E+02  0.00000000000E+00 0. -1.
         -2    1    1    2    0  503 -0.98875141816E+02  0.45984819495E+02 -0.42712314483E+03  0.44082318240E+03  0.00000000000E+00 0.  1.
<mgrwt>
<rscale>  2 0.15694511E+03</rscale>
<asrwt>0</asrwt>
<pdfrwt beam="1">  1       21 0.12462331E-01 0.15694511E+03</pdfrwt>
<pdfrwt beam="2">  1       21 0.92045209E-01 0.15694511E+03</pdfrwt>
<totfact> 0.55671396E+04</totfact>
</mgrwt>
</event>
<event>
 5    1  0.1624116E+000  0.8289521E+02  0.7546771E-02  0.1321030E+00
         21   -1    0    0  503  502  0.00000000000E+00  0.00000000000E+00  0.61451015225E+03  0.61451015225E+03  0.00000000000E+00 0.  1.
         21   -1    0    0  501  503 -0.00000000000E+00 -0.00000000000E+00 -0.15765841013E+02  0.15765841013E+02  0.00000000000E+00 0.  1.
         24    1    1    2    0    0 -0.30478866058E+02  0.23390094198E+02  0.42083769337E+03  0.43017163772E+03  0.80419002446E+02 0.  1.
          1    1    1    2  501    0 -0.20170477675E+02 -0.15427349554E+02  0.15393703708E+02  0.29695410382E+02  0.00000000000E+00 0. -1.
         -2    1    1    2    0  502  0.50649343733E+02 -0.79627446440E+01  0.16251291415E+03  0.17040894516E+03  0.00000000000E+00 0.  1.
<mgrwt>
<rscale>  2 0.82895208E+02</rscale>
<asrwt>0</asrwt>
<pdfrwt beam="1">  1       21 0.94540005E-01 0.82895208E+02</pdfrwt>
<pdfrwt beam="2">  1       21 0.24255145E-02 0.82895208E+02</pdfrwt>
<totfact> 0.84686237E+05</totfact>
</mgrwt>
</event>
<event>
 5    1  0.1624116E+000  0.7659229E+02  0.7546771E-02  0.1339010E+00
         21   -1    0    0  501  502  0.00000000000E+00  0.00000000000E+00  0.48868317178E+02  0.48868317178E+02  0.00000000000E+00 0.  1.
         21   -1    0    0  502  503 -0.00000000000E+00 -0.00000000000E+00 -0.25127101897E+03  0.25127101897E+03  0.00000000000E+00 0. -1.
         24    1    1    2    0    0  0.13448311800E+02 -0.21405942461E+01 -0.14338173839E+02  0.82814481930E+02  0.80419002446E+02 0.  0.
          1    1    1    2  501    0  0.28623347830E+02  0.64122684125E+01 -0.53955423752E+01  0.29824907455E+02  0.00000000000E+00 0. -1.
         -2    1    1    2    0  503 -0.42071659630E+02 -0.42716741664E+01 -0.18266898557E+03  0.18749994676E+03  0.00000000000E+00 0.  1.
<mgrwt>
<rscale>  2 0.76592287E+02</rscale>
<asrwt>0</asrwt>
<pdfrwt beam="1">  1       21 0.75182024E-02 0.76592287E+02</pdfrwt>
<pdfrwt beam="2">  1       21 0.38657081E-01 0.76592287E+02</pdfrwt>
<totfact> 0.86028744E+05</totfact>
</mgrwt>
</event>
<event>
 5    1  0.1624116E+000  0.8786971E+02  0.7546771E-02  0.1308094E+00
         21   -1    0    0  503  502  0.00000000000E+00  0.00000000000E+00  0.26547686738E+03  0.26547686738E+03  0.00000000000E+00 0.  1.
         21   -1    0    0  501  503 -0.00000000000E+00 -0.00000000000E+00 -0.77746533557E+02  0.77746533557E+02  0.00000000000E+00 0.  1.
         24    1    1    2    0    0  0.23128291420E+02  0.53803459906E+02  0.26576579683E+02  0.10297213557E+03  0.80419002446E+02 0.  1.
          1    1    1    2  501    0 -0.32807366004E+02 -0.14660310040E+02 -0.28808785125E+02  0.46056422516E+02  0.00000000000E+00 0. -1.
         -2    1    1    2    0  502  0.96790745842E+01 -0.39143149866E+02  0.18996253927E+03  0.19419484285E+03  0.00000000000E+00 0.  1.
<mgrwt>
<rscale>  2 0.87869711E+02</rscale>
<asrwt>0</asrwt>
<pdfrwt beam="1">  1       21 0.40842595E-01 0.87869711E+02</pdfrwt>
<pdfrwt beam="2">  1       21 0.11961005E-01 0.87869711E+02</pdfrwt>
<totfact> 0.34709145E+05</totfact>
</mgrwt>
</event>
<event>
 5    1  0.1624116E+000  0.9794203E+02  0.7546771E-02  0.1284684E+00
         21   -1    0    0  501  502  0.00000000000E+00  0.00000000000E+00  0.58779296615E+02  0.58779296615E+02  0.00000000000E+00 0. -1.
         21   -1    0    0  502  503 -0.00000000000E+00 -0.00000000000E+00 -0.18506055233E+03  0.18506055233E+03  0.00000000000E+00 0. -1.
         24    1    1    2    0    0  0.22758908175E+02 -0.77995232739E+02 -0.34639114128E+02  0.11945002475E+03  0.80419002446E+02 0. -1.
          1    1    1    2  501    0 -0.19750677611E+02  0.56297927884E+02 -0.52204015850E+02  0.79276763437E+02  0.00000000000E+00 0. -1.
         -2    1    1    2    0  503 -0.30082305635E+01  0.21697304855E+02 -0.39438125735E+02  0.45113060754E+02  0.00000000000E+00 0.  1.
<mgrwt>
<rscale>  2 0.97942030E+02</rscale>
<asrwt>0</asrwt>
<pdfrwt beam="1">  1       21 0.90429688E-02 0.97942030E+02</pdfrwt>
<pdfrwt beam="2">  1       21 0.28470854E-01 0.97942030E+02</pdfrwt>
<totfact> 0.11376395E+06</totfact>
</mgrwt>
</event>
<event>
 5    1  0.1624116E+000  0.6374334E+02  0.7546771E-02  0.1382762E+00
         21   -1    0    0  503  502  0.00000000000E+00  0.00000000000E+00  0.10855066020E+03  0.10855066020E+03  0.00000000000E+00 0.  1.
         21   -1    0    0  501  503 -0.00000000000E+00 -0.00000000000E+00 -0.51439133361E+02  0.51439133361E+02  0.00000000000E+00 0.  1.
         24    1    1    2    0    0  0.16915491576E+02 -0.59897145021E+01  0.60330751286E+01  0.82617337678E+02  0.80419002446E+02 0.  1.
          1    1    1    2  501    0 -0.19093693835E+02 -0.14817669474E+02  0.22772807006E+01  0.24275882689E+02  0.00000000000E+00 0. -1.
         -2    1    1    2    0  502  0.21782022592E+01  0.20807383976E+02  0.48801171011E+02  0.53096573195E+02  0.00000000000E+00 0.  1.
<mgrwt>
<rscale>  2 0.63743340E+02</rscale>
<asrwt>0</asrwt>
<pdfrwt beam="1">  1       21 0.16700102E-01 0.63743340E+02</pdfrwt>
<pdfrwt beam="2">  1       21 0.79137128E-02 0.63743340E+02</pdfrwt>
<totfact> 0.37383484E+06</totfact>
</mgrwt>
</event>
<event>
 5    1  0.1624116E+000  0.2792127E+03  0.7546771E-02  0.1096120E+00
         21   -1    0    0  501  502  0.00000000000E+00  0.00000000000E+00  0.56619320629E+02  0.56619320629E+02  0.00000000000E+00 0.  1.
         21   -1    0    0  502  503 -0.00000000000E+00 -0.00000000000E+00 -0.17227413908E+04  0.17227413908E+04  0.00000000000E+00 0.  1.
         24    1    1    2    0    0  0.20948091794E+03  0.17139640381E+03 -0.83143195445E+03  0.87806907078E+03  0.80419002446E+02 0.  1.
          1    1    1    2  501    0 -0.48437557796E+02 -0.72140917279E+02 -0.64518273237E+02  0.10822715247E+03  0.00000000000E+00 0. -1.
         -2    1    1    2    0  503 -0.16104336015E+03 -0.99255486535E+02 -0.77017184250E+03  0.79306448820E+03  0.00000000000E+00 0.  1.
<mgrwt>
<rscale>  2 0.27921273E+03</rscale>
<asrwt>0</asrwt>
<pdfrwt beam="1">  1       21 0.87106660E-02 0.27921273E+03</pdfrwt>
<pdfrwt beam="2">  1       21 0.26503710E+00 0.27921273E+03</pdfrwt>
<totfact> 0.52010580E+03</totfact>
</mgrwt>
</event>
<event>
 5    1  0.1624116E+000  0.8787168E+02  0.7546771E-02  0.1308089E+00
         21   -1    0    0  503  502  0.00000000000E+00  0.00000000000E+00  0.14670818651E+04  0.14670818651E+04  0.00000000000E+00 0. -1.
         21   -1    0    0  501  503 -0.00000000000E+00 -0.00000000000E+00 -0.18137518493E+02  0.18137518493E+02  0.00000000000E+00 0. -1.
         24    1    1    2    0    0  0.19347589042E+02 -0.66714122376E+02  0.39990365567E+03  0.41378164906E+03  0.80419002446E+02 0.  1.
          1    1    1    2  501    0 -0.72305340493E+01  0.27486756539E+02  0.79157363117E+01  0.29503580953E+02  0.00000000000E+00 0. -1.
         -2    1    1    2    0  502 -0.12117054992E+02  0.39227365837E+02  0.10411249546E+04  0.10419341536E+04  0.00000000000E+00 0.  1.
<mgrwt>
<rscale>  2 0.87871681E+02</rscale>
<asrwt>0</asrwt>
<pdfrwt beam="1">  1       21 0.22570481E+00 0.87871681E+02</pdfrwt>
<pdfrwt beam="2">  1       21 0.27903886E-02 0.87871681E+02</pdfrwt>
<totfact> 0.72396432E+04</totfact>
</mgrwt>
</event>
<event>
 5    1  0.1624116E+000  0.1210994E+03  0.7546771E-02  0.1241294E+00
         21   -1    0    0  503  502  0.00000000000E+00  0.00000000000E+00  0.15764628612E+03  0.15764628612E+03  0.00000000000E+00 0. -1.
         21   -1    0    0  501  503 -0.00000000000E+00 -0.00000000000E+00 -0.17771775428E+03  0.17771775428E+03  0.00000000000E+00 0.  1.
         24    1    1    2    0    0 -0.86497624094E+02 -0.63705782569E+02 -0.10250188861E+03  0.16886124135E+03  0.80419002446E+02 0.  1.
          1    1    1    2  501    0  0.29294554768E+02  0.15180030601E+02 -0.20720240279E+02  0.38960654837E+02  0.00000000000E+00 0. -1.
         -2    1    1    2    0  502  0.57203069326E+02  0.48525751968E+02  0.10315066072E+03  0.12754214421E+03  0.00000000000E+00 0.  1.
<mgrwt>
<rscale>  2 0.12109945E+03</rscale>
<asrwt>0</asrwt>
<pdfrwt beam="1">  1       21 0.24253275E-01 0.12109945E+03</pdfrwt>
<pdfrwt beam="2">  1       21 0.27341193E-01 0.12109945E+03</pdfrwt>
<totfact> 0.20863485E+05</totfact>
</mgrwt>
</event>
<event>
 5    1  0.1624116E+000  0.1030919E+03  0.7546771E-02  0.1273925E+00
         21   -1    0    0  501  502  0.00000000000E+00  0.00000000000E+00  0.28482856762E+03  0.28482856762E+03  0.00000000000E+00 0.  1.
         21   -1    0    0  502  503 -0.00000000000E+00 -0.00000000000E+00 -0.39866239698E+02  0.39866239698E+02  0.00000000000E+00 0. -1.
         24    1    1    2    0    0  0.79878250123E+02 -0.35479326101E+02  0.10966959892E+03  0.16165999599E+03  0.80419002446E+02 0.  0.
          1    1    1    2  501    0 -0.54300984210E+02  0.23454366118E+02  0.11095665079E+03  0.12573815066E+03  0.00000000000E+00 0. -1.
         -2    1    1    2    0  503 -0.25577265913E+02  0.12024959983E+02  0.24336078211E+02  0.37296660666E+02  0.00000000000E+00 0.  1.
<mgrwt>
<rscale>  2 0.10309188E+03</rscale>
<asrwt>0</asrwt>
<pdfrwt beam="1">  1       21 0.43819778E-01 0.10309188E+03</pdfrwt>
<pdfrwt beam="2">  1       21 0.61332678E-02 0.10309188E+03</pdfrwt>
<totfact> 0.95062925E+05</totfact>
</mgrwt>
</event>
<event>
 5    1  0.1765439E+000  0.1350714E+03  0.7546771E-02  0.1220119E+00
         21   -1    0    0  503  502  0.00000000000E+00  0.00000000000E+00  0.15171658313E+03  0.15171658313E+03  0.00000000000E+00 0.  1.
         21   -1    0    0  501  503 -0.00000000000E+00 -0.00000000000E+00 -0.19753619093E+03  0.19753619093E+03  0.00000000000E+00 0. -1.
         24    1    1    2    0    0  0.45184679538E+01  0.33837577540E+02  0.80791955956E+01  0.87737606317E+02  0.80419002446E+02 0. -1.
          1    1    1    2  501    0  0.81030050862E+02 -0.50698698691E+02 -0.11904677431E+03  0.15267076231E+03  0.00000000000E+00 0. -1.
         -2    1    1    2    0  502 -0.85548518816E+02  0.16861121151E+02  0.65147970918E+02  0.10884440543E+03  0.00000000000E+00 0.  1.
<mgrwt>
<rscale>  2 0.13507138E+03</rscale>
<asrwt>0</asrwt>
<pdfrwt beam="1">  1       21 0.23341013E-01 0.13507138E+03</pdfrwt>
<pdfrwt beam="2">  1       21 0.30390183E-01 0.13507138E+03</pdfrwt>
<totfact> 0.18235848E+05</totfact>
</mgrwt>
</event>
<event>
 5    1  0.1624116E+000  0.8190521E+02  0.7546771E-02  0.1323730E+00
         21   -1    0    0  501  502  0.00000000000E+00  0.00000000000E+00  0.18032543417E+04  0.18032543417E+04  0.00000000000E+00 0. -1.
         21   -1    0    0  502  503 -0.00000000000E+00 -0.00000000000E+00 -0.12120497656E+02  0.12120497656E+02  0.00000000000E+00 0.  1.
         24    1    1    2    0    0 -0.71722981657E+01  0.31147156417E+02  0.43439953813E+03  0.44293539246E+03  0.80419002446E+02 0. -1.
          1    1    1    2  501    0  0.13779846152E+01 -0.53836954581E+02  0.13453027404E+04  0.13463802508E+04  0.00000000000E+00 0. -1.
         -2    1    1    2    0  503  0.57943135504E+01  0.22689798164E+02  0.11431565559E+02  0.26059196100E+02  0.00000000000E+00 0.  1.
<mgrwt>
<rscale>  2 0.81905211E+02</rscale>
<asrwt>0</asrwt>
<pdfrwt beam="1">  1       21 0.27742353E+00 0.81905211E+02</pdfrwt>
<pdfrwt beam="2">  1       21 0.18646934E-02 0.81905211E+02</pdfrwt>
<totfact> 0.71691622E+04</totfact>
</mgrwt>
</event>
<event>
 5    1  0.1624116E+000  0.7904985E+02  0.7546771E-02  0.1331770E+00
         21   -1    0    0  503  502  0.00000000000E+00  0.00000000000E+00  0.65395360194E+03  0.65395360194E+03  0.00000000000E+00 0.  1.
         21   -1    0    0  501  503 -0.00000000000E+00 -0.00000000000E+00 -0.22609628366E+02  0.22609628366E+02  0.00000000000E+00 0. -1.
         24    1    1    2    0    0 -0.14317800004E+02 -0.14187355106E+01  0.57232148424E+03  0.57812291901E+03  0.80419002446E+02 0.  1.
          1    1    1    2  501    0  0.38439960271E+02  0.22351019388E+02  0.22208857696E+02  0.49703440258E+02  0.00000000000E+00 0. -1.
         -2    1    1    2    0  502 -0.24122160267E+02 -0.20932283877E+02  0.36813631642E+02  0.48736871042E+02  0.00000000000E+00 0.  1.
<mgrwt>
<rscale>  2 0.79049851E+02</rscale>
<asrwt>0</asrwt>
<pdfrwt beam="1">  1       21 0.10060823E+00 0.79049851E+02</pdfrwt>
<pdfrwt beam="2">  1       21 0.34784049E-02 0.79049851E+02</pdfrwt>
<totfact> 0.40975581E+05</totfact>
</mgrwt>
</event>
<event>
 5    1  0.1624116E+000  0.1172239E+03  0.7546771E-02  0.1247748E+00
         21   -1    0    0  501  502  0.00000000000E+00  0.00000000000E+00  0.15320137507E+03  0.15320137507E+03  0.00000000000E+00 0.  1.
         21   -1    0    0  502  503 -0.00000000000E+00 -0.00000000000E+00 -0.97627839866E+02  0.97627839866E+02  0.00000000000E+00 0. -1.
         24    1    1    2    0    0 -0.66456538710E+02 -0.41753086769E+02  0.61690268699E+02  0.12819008151E+03  0.80419002446E+02 0. -1.
          1    1    1    2  501    0  0.66458264249E+02  0.68436039692E+02 -0.62537442479E+00  0.95396978511E+02  0.00000000000E+00 0. -1.
         -2    1    1    2    0  503 -0.17255390426E-02 -0.26682952923E+02 -0.54913590719E+01  0.27242154910E+02  0.00000000000E+00 0.  1.
<mgrwt>
<rscale>  2 0.11722392E+03</rscale>
<asrwt>0</asrwt>
<pdfrwt beam="1">  1       21 0.23569442E-01 0.11722392E+03</pdfrwt>
<pdfrwt beam="2">  1       21 0.15019668E-01 0.11722392E+03</pdfrwt>
<totfact> 0.66651540E+05</totfact>
</mgrwt>
</event>
<event>
 5    1  0.1624116E+000  0.1127596E+03  0.7546771E-02  0.1255543E+00
         21   -1    0    0  503  502  0.00000000000E+00  0.00000000000E+00  0.72689717645E+02  0.72689717645E+02  0.00000000000E+00 0.  1.
         21   -1    0    0  501  503 -0.00000000000E+00 -0.00000000000E+00 -0.33993130338E+03  0.33993130338E+03  0.00000000000E+00 0. -1.
         24    1    1    2    0    0  0.80912866346E+02 -0.20529810990E+02 -0.79286615261E+02  0.14043485463E+03  0.80419002446E+02 0.  1.
          1    1    1    2  501    0  0.60465330064E+01  0.21815961675E+02 -0.18372496240E+03  0.18511444718E+03  0.00000000000E+00 0. -1.
         -2    1    1    2    0  502 -0.86959399353E+02 -0.12861506855E+01 -0.42300080696E+01  0.87071719218E+02  0.00000000000E+00 0.  1.
<mgrwt>
<rscale>  2 0.11275963E+03</rscale>
<asrwt>0</asrwt>
<pdfrwt beam="1">  1       21 0.11183033E-01 0.11275963E+03</pdfrwt>
<pdfrwt beam="2">  1       21 0.52297124E-01 0.11275963E+03</pdfrwt>
<totfact> 0.23557141E+05</totfact>
</mgrwt>
</event>
<event>
 5    1  0.1624116E+000  0.7429151E+02  0.7546771E-02  0.1346079E+00
         21   -1    0    0  501  502  0.00000000000E+00  0.00000000000E+00  0.25568829396E+02  0.25568829396E+02  0.00000000000E+00 0. -1.
         21   -1    0    0  502  503 -0.00000000000E+00 -0.00000000000E+00 -0.26975494176E+03  0.26975494176E+03  0.00000000000E+00 0.  1.
         24    1    1    2    0    0  0.24109033090E+02 -0.97591525957E+01 -0.76832470103E+02  0.11422316294E+03  0.80419002446E+02 0.  0.
          1    1    1    2  501    0 -0.28390488434E+02 -0.19531866748E+02 -0.54926561970E+02  0.64841659927E+02  0.00000000000E+00 0. -1.
         -2    1    1    2    0  503  0.42814553441E+01  0.29291019344E+02 -0.11242708029E+03  0.11625894829E+03  0.00000000000E+00 0.  1.
<mgrwt>
<rscale>  2 0.74291511E+02</rscale>
<asrwt>0</asrwt>
<pdfrwt beam="1">  1       21 0.39336662E-02 0.74291511E+02</pdfrwt>
<pdfrwt beam="2">  1       21 0.41500759E-01 0.74291511E+02</pdfrwt>
<totfact> 0.21958571E+06</totfact>
</mgrwt>
</event>
<event>
 5    1  0.1624116E+000  0.8908630E+02  0.7546771E-02  0.1305080E+00
         21   -1    0    0  501  502  0.00000000000E+00  0.00000000000E+00  0.61460317496E+01  0.61460317496E+01  0.00000000000E+00 0.  1.
         21   -1    0    0  502  503 -0.00000000000E+00 -0.00000000000E+00 -0.19945737530E+04  0.19945737530E+04  0.00000000000E+00 0. -1.
         24    1    1    2    0    0 -0.15261722211E+02  0.68541082589E+02 -0.72220684996E+03  0.73005530629E+03  0.80419002446E+02 0.  1.
          1    1    1    2  501    0  0.12523525901E+02 -0.26815556375E+02 -0.11706905920E+03  0.12075213202E+03  0.00000000000E+00 0. -1.
         -2    1    1    2    0  503  0.27381963105E+01 -0.41725526215E+02 -0.11491518121E+04  0.11499123464E+04  0.00000000000E+00 0.  1.
<mgrwt>
<rscale>  2 0.89086295E+02</rscale>
<asrwt>0</asrwt>
<pdfrwt beam="1">  1       21 0.94554301E-03 0.89086295E+02</pdfrwt>
<pdfrwt beam="2">  1       21 0.30685761E+00 0.89086295E+02</pdfrwt>
<totfact> 0.14262573E+05</totfact>
</mgrwt>
</event>
<event>
 5    1  0.1624116E+000  0.1100766E+03  0.7546771E-02  0.1260428E+00
         21   -1    0    0  501  502  0.00000000000E+00  0.00000000000E+00  0.14664276105E+03  0.14664276105E+03  0.00000000000E+00 0. -1.
         21   -1    0    0  502  503 -0.00000000000E+00 -0.00000000000E+00 -0.17532628590E+03  0.17532628590E+03  0.00000000000E+00 0.  1.
         24    1    1    2    0    0  0.78949112691E+01  0.41180072432E+02  0.16456699252E+02  0.92174654293E+02  0.80419002446E+02 0. -1.
          1    1    1    2  501    0 -0.27361490017E+02  0.38613966145E+02  0.72342872542E+02  0.86447560550E+02  0.00000000000E+00 0. -1.
         -2    1    1    2    0  503  0.19466578748E+02 -0.79794038576E+02 -0.11748309664E+03  0.14334683211E+03  0.00000000000E+00 0.  1.
<mgrwt>
<rscale>  2 0.11007665E+03</rscale>
<asrwt>0</asrwt>
<pdfrwt beam="1">  1       21 0.22560425E-01 0.11007665E+03</pdfrwt>
<pdfrwt beam="2">  1       21 0.26973275E-01 0.11007665E+03</pdfrwt>
<totfact> 0.24580850E+05</totfact>
</mgrwt>
</event>
<event>
 5    1  0.1624116E+000  0.9537472E+02  0.7546771E-02  0.1290334E+00
         21   -1    0    0  503  502  0.00000000000E+00  0.00000000000E+00  0.15899498687E+03  0.15899498687E+03  0.00000000000E+00 0.  1.
         21   -1    0    0  501  503 -0.00000000000E+00 -0.00000000000E+00 -0.85321256019E+02  0.85321256019E+02  0.00000000000E+00 0. -1.
         24    1    1    2    0    0 -0.17136642537E+02  0.41587964030E+01  0.22271411442E+02  0.85288872820E+02  0.80419002446E+02 0. -1.
          1    1    1    2  501    0  0.62637018945E+02  0.86409724708E+00 -0.27020285870E+02  0.68221980731E+02  0.00000000000E+00 0. -1.
         -2    1    1    2    0  502 -0.45500376409E+02 -0.50228936501E+01  0.78422605280E+02  0.90805389338E+02  0.00000000000E+00 0.  1.
<mgrwt>
<rscale>  2 0.95374720E+02</rscale>
<asrwt>0</asrwt>
<pdfrwt beam="1">  1       21 0.24460767E-01 0.95374720E+02</pdfrwt>
<pdfrwt beam="2">  1       21 0.13126347E-01 0.95374720E+02</pdfrwt>
<totfact> 0.78984262E+05</totfact>
</mgrwt>
</event>
<event>
 5    1  0.1624116E+000  0.1672333E+03  0.7546771E-02  0.1180764E+00
         21   -1    0    0  501  502  0.00000000000E+00  0.00000000000E+00  0.49569005230E+02  0.49569005230E+02  0.00000000000E+00 0. -1.
         21   -1    0    0  502  503 -0.00000000000E+00 -0.00000000000E+00 -0.88497884227E+03  0.88497884227E+03  0.00000000000E+00 0.  1.
         24    1    1    2    0    0  0.77234758588E+02 -0.12245932293E+03 -0.35093898005E+03  0.38805525042E+03  0.80419002446E+02 0. -1.
          1    1    1    2  501    0 -0.90955941106E+02  0.70413146487E+02 -0.84028852935E+02  0.14244943856E+03  0.00000000000E+00 0. -1.
         -2    1    1    2    0  503  0.13721182518E+02  0.52046176448E+02 -0.40044200406E+03  0.40404315853E+03  0.00000000000E+00 0.  1.
<mgrwt>
<rscale>  2 0.16723335E+03</rscale>
<asrwt>0</asrwt>
<pdfrwt beam="1">  1       21 0.76260009E-02 0.16723335E+03</pdfrwt>
<pdfrwt beam="2">  1       21 0.13615059E+00 0.16723335E+03</pdfrwt>
<totfact> 0.50848050E+04</totfact>
</mgrwt>
</event>
<event>
 5    1  0.1624116E+000  0.9024942E+02  0.7546771E-02  0.1302249E+00
         21   -1    0    0  501  502  0.00000000000E+00  0.00000000000E+00  0.38732530849E+02  0.38732530849E+02  0.00000000000E+00 0.  1.
         21   -1    0    0  502  503 -0.00000000000E+00 -0.00000000000E+00 -0.51046941831E+03  0.51046941831E+03  0.00000000000E+00 0.  1.
         24    1    1    2    0    0 -0.48752159381E+02  0.10433297919E+02 -0.55067245864E+02  0.10947714040E+03  0.80419002446E+02 0.  1.
          1    1    1    2  501    0 -0.15777120669E+02 -0.14219125978E+02 -0.34955502096E+01  0.21524868210E+02  0.00000000000E+00 0. -1.
         -2    1    1    2    0  503  0.64529280050E+02  0.37858280584E+01 -0.41317409138E+03  0.41819994054E+03  0.00000000000E+00 0.  1.
<mgrwt>
<rscale>  2 0.90249421E+02</rscale>
<asrwt>0</asrwt>
<pdfrwt beam="1">  1       21 0.59588510E-02 0.90249421E+02</pdfrwt>
<pdfrwt beam="2">  1       21 0.78533755E-01 0.90249421E+02</pdfrwt>
<totfact> 0.29313230E+05</totfact>
</mgrwt>
</event>
<event>
 5    1  0.1624116E+000  0.1557036E+03  0.7546771E-02  0.1193635E+00
         21   -1    0    0  501  502  0.00000000000E+00  0.00000000000E+00  0.68500671251E+02  0.68500671251E+02  0.00000000000E+00 0.  1.
         21   -1    0    0  502  503 -0.00000000000E+00 -0.00000000000E+00 -0.64313960602E+03  0.64313960602E+03  0.00000000000E+00 0.  1.
         24    1    1    2    0    0 -0.23175369256E+01 -0.11783503995E+03 -0.41372872097E+02  0.14855772654E+03  0.80419002446E+02 0.  1.
          1    1    1    2  501    0  0.53655786285E+02  0.10157406824E+03 -0.25538792999E+03  0.28003433633E+03  0.00000000000E+00 0. -1.
         -2    1    1    2    0  503 -0.51338249360E+02  0.16260971704E+02 -0.27787813268E+03  0.28304821439E+03  0.00000000000E+00 0.  1.
<mgrwt>
<rscale>  2 0.15570360E+03</rscale>
<asrwt>0</asrwt>
<pdfrwt beam="1">  1       21 0.10538565E-01 0.15570360E+03</pdfrwt>
<pdfrwt beam="2">  1       21 0.98944552E-01 0.15570360E+03</pdfrwt>
<totfact> 0.63385047E+04</totfact>
</mgrwt>
</event>
<event>
 5    1  0.1624116E+000  0.6677538E+02  0.7546771E-02  0.1371415E+00
         21   -1    0    0  503  502  0.00000000000E+00  0.00000000000E+00  0.49012992681E+02  0.49012992681E+02  0.00000000000E+00 0.  1.
         21   -1    0    0  501  503 -0.00000000000E+00 -0.00000000000E+00 -0.12580590407E+03  0.12580590407E+03  0.00000000000E+00 0. -1.
         24    1    1    2    0    0  0.17755968480E+02  0.21914561057E+02 -0.68072825656E+02  0.10907175597E+03  0.80419002446E+02 0. -1.
          1    1    1    2  501    0 -0.26709144253E+02 -0.23489239494E+01 -0.26601892746E+02  0.37769783268E+02  0.00000000000E+00 0. -1.
         -2    1    1    2    0  502  0.89531757730E+01 -0.19565637108E+02  0.17881807007E+02  0.27977357518E+02  0.00000000000E+00 0.  1.
<mgrwt>
<rscale>  2 0.66775377E+02</rscale>
<asrwt>0</asrwt>
<pdfrwt beam="1">  1       21 0.75404605E-02 0.66775377E+02</pdfrwt>
<pdfrwt beam="2">  1       21 0.19354754E-01 0.66775377E+02</pdfrwt>
<totfact> 0.31220858E+06</totfact>
</mgrwt>
</event>
<event>
 5    1  0.1624116E+000  0.7043041E+02  0.7546771E-02  0.1358636E+00
         21   -1    0    0  501  502  0.00000000000E+00  0.00000000000E+00  0.44890566618E+03  0.44890566618E+03  0.00000000000E+00 0.  1.
         21   -1    0    0  502  503 -0.00000000000E+00 -0.00000000000E+00 -0.12769227795E+02  0.12769227795E+02  0.00000000000E+00 0.  1.
         24    1    1    2    0    0 -0.44710523587E+02  0.13144534214E+02  0.20552616423E+03  0.22556602102E+03  0.80419002446E+02 0.  1.
          1    1    1    2  501    0  0.19764266110E+02 -0.11607839602E+02  0.14913914318E+03  0.15089019910E+03  0.00000000000E+00 0. -1.
         -2    1    1    2    0  503  0.24946257478E+02 -0.15366946122E+01  0.81471130971E+02  0.85218673859E+02  0.00000000000E+00 0.  1.
<mgrwt>
<rscale>  2 0.70430406E+02</rscale>
<asrwt>0</asrwt>
<pdfrwt beam="1">  1       21 0.69062398E-01 0.70430406E+02</pdfrwt>
<pdfrwt beam="2">  1       21 0.19644969E-02 0.70430406E+02</pdfrwt>
<totfact> 0.23585710E+06</totfact>
</mgrwt>
</event>
<event>
 5    1  0.1624116E+000  0.8874261E+02  0.7546771E-02  0.1305926E+00
         21   -1    0    0  503  502  0.00000000000E+00  0.00000000000E+00  0.60329134934E+03  0.60329134934E+03  0.00000000000E+00 0.  1.
         21   -1    0    0  501  503 -0.00000000000E+00 -0.00000000000E+00 -0.22998885361E+02  0.22998885361E+02  0.00000000000E+00 0.  1.
         24    1    1    2    0    0  0.65914422412E+02 -0.13549842438E+02  0.13665946253E+03  0.17225369072E+03  0.80419002446E+02 0.  1.
          1    1    1    2  501    0 -0.21721134913E+02 -0.83910122219E+01  0.32652565556E+02  0.40104947643E+02  0.00000000000E+00 0. -1.
         -2    1    1    2    0  502 -0.44193287499E+02  0.21940854660E+02  0.41098043590E+03  0.41393159634E+03  0.00000000000E+00 0.  1.
<mgrwt>
<rscale>  2 0.88742611E+02</rscale>
<asrwt>0</asrwt>
<pdfrwt beam="1">  1       21 0.92814042E-01 0.88742611E+02</pdfrwt>
<pdfrwt beam="2">  1       21 0.35382905E-02 0.88742611E+02</pdfrwt>
<totfact> 0.47864751E+05</totfact>
</mgrwt>
</event>
<event>
 5    1  0.1624116E+000  0.9039314E+02  0.7546771E-02  0.1301902E+00
         21   -1    0    0  501  502  0.00000000000E+00  0.00000000000E+00  0.13375827751E+03  0.13375827751E+03  0.00000000000E+00 0.  1.
         21   -1    0    0  502  503 -0.00000000000E+00 -0.00000000000E+00 -0.66649725757E+02  0.66649725757E+02  0.00000000000E+00 0. -1.
         24    1    1    2    0    0  0.42589572674E+02  0.26569536502E+01  0.60361747767E+02  0.10923226470E+03  0.80419002446E+02 0.  1.
          1    1    1    2  501    0 -0.62201166062E+02  0.14296954417E+02  0.11412149871E+02  0.64835369435E+02  0.00000000000E+00 0. -1.
         -2    1    1    2    0  503  0.19611593389E+02 -0.16953908068E+02 -0.46653458823E+01  0.26340369136E+02  0.00000000000E+00 0.  1.
<mgrwt>
<rscale>  2 0.90393140E+02</rscale>
<asrwt>0</asrwt>
<pdfrwt beam="1">  1       21 0.20578196E-01 0.90393140E+02</pdfrwt>
<pdfrwt beam="2">  1       21 0.10253804E-01 0.90393140E+02</pdfrwt>
<totfact> 0.16750683E+06</totfact>
</mgrwt>
</event>
<event>
 5    1  0.1624116E+000  0.9908332E+02  0.7546771E-02  0.1282235E+00
         21   -1    0    0  503  502  0.00000000000E+00  0.00000000000E+00  0.39093974635E+03  0.39093974635E+03  0.00000000000E+00 0.  1.
         21   -1    0    0  501  503 -0.00000000000E+00 -0.00000000000E+00 -0.13299397476E+03  0.13299397476E+03  0.00000000000E+00 0. -1.
         24    1    1    2    0    0  0.19545138926E+02  0.71507875402E+02 -0.73222961257E+02  0.13162145232E+03  0.80419002446E+02 0. -1.
          1    1    1    2  501    0 -0.27051829700E+02 -0.13375484685E+02 -0.20053034979E+02  0.36232986249E+02  0.00000000000E+00 0. -1.
         -2    1    1    2    0  502  0.75066907743E+01 -0.58132390718E+02  0.35122176783E+03  0.35607928254E+03  0.00000000000E+00 0.  1.
<mgrwt>
<rscale>  2 0.99083322E+02</rscale>
<asrwt>0</asrwt>
<pdfrwt beam="1">  1       21 0.60144576E-01 0.99083322E+02</pdfrwt>
<pdfrwt beam="2">  1       21 0.20460612E-01 0.99083322E+02</pdfrwt>
<totfact> 0.59819058E+04</totfact>
</mgrwt>
</event>
<event>
 5    1  0.1624116E+000  0.1301702E+03  0.7546771E-02  0.1227203E+00
         21   -1    0    0  501  502  0.00000000000E+00  0.00000000000E+00  0.35359415418E+02  0.35359415418E+02  0.00000000000E+00 0. -1.
         21   -1    0    0  502  503 -0.00000000000E+00 -0.00000000000E+00 -0.53410503093E+03  0.53410503093E+03  0.00000000000E+00 0.  1.
         24    1    1    2    0    0  0.51459792880E+02 -0.81502632029E+02 -0.17213000386E+03  0.21304164732E+03  0.80419002446E+02 0. -1.
          1    1    1    2  501    0  0.27193969500E+02  0.31466888966E+02 -0.53041162763E+02  0.67402092146E+02  0.00000000000E+00 0. -1.
         -2    1    1    2    0  503 -0.78653762380E+02  0.50035743063E+02 -0.27357444889E+03  0.28902070688E+03  0.00000000000E+00 0.  1.
<mgrwt>
<rscale>  2 0.13017020E+03</rscale>
<asrwt>0</asrwt>
<pdfrwt beam="1">  1       21 0.54399098E-02 0.13017020E+03</pdfrwt>
<pdfrwt beam="2">  1       21 0.82170008E-01 0.13017020E+03</pdfrwt>
<totfact> 0.30623534E+05</totfact>
</mgrwt>
</event>
<event>
 5    1  0.1624116E+000  0.7988138E+02  0.7546771E-02  0.1329388E+00
         21   -1    0    0  503  502  0.00000000000E+00  0.00000000000E+00  0.35388447166E+02  0.35388447166E+02  0.00000000000E+00 0.  1.
         21   -1    0    0  501  503 -0.00000000000E+00 -0.00000000000E+00 -0.80085292206E+03  0.80085292206E+03  0.00000000000E+00 0. -1.
         24    1    1    2    0    0 -0.27079715262E+02 -0.80979130385E+01 -0.21326547345E+03  0.22966990507E+03  0.80419002446E+02 0.  1.
          1    1    1    2  501    0  0.13684871656E+02  0.38736443398E+02 -0.56807276255E+03  0.56955636359E+03  0.00000000000E+00 0. -1.
         -2    1    1    2    0  502  0.13394843607E+02 -0.30638530359E+02  0.15873761108E+02  0.37015100561E+02  0.00000000000E+00 0.  1.
<mgrwt>
<rscale>  2 0.79881378E+02</rscale>
<asrwt>0</asrwt>
<pdfrwt beam="1">  1       21 0.54443773E-02 0.79881378E+02</pdfrwt>
<pdfrwt beam="2">  1       21 0.12320812E+00 0.79881378E+02</pdfrwt>
<totfact> 0.12147016E+05</totfact>
</mgrwt>
</event>
<event>
 5    1  0.1624116E+000  0.9685807E+02  0.7546771E-02  0.1287045E+00
         21   -1    0    0  503  502  0.00000000000E+00  0.00000000000E+00  0.88321489288E+01  0.88321489288E+01  0.00000000000E+00 0. -1.
         21   -1    0    0  501  503 -0.00000000000E+00 -0.00000000000E+00 -0.11682981149E+04  0.11682981149E+04  0.00000000000E+00 0. -1.
         24    1    1    2    0    0  0.14991269390E+02  0.44215609366E+02 -0.46627739103E+03  0.47545933539E+03  0.80419002446E+02 0. -1.
          1    1    1    2  501    0 -0.31594234263E+02 -0.66096905858E+02 -0.60183316657E+03  0.60627564440E+03  0.00000000000E+00 0. -1.
         -2    1    1    2    0  502  0.16602964873E+02  0.21881296492E+02 -0.91355408325E+02  0.95395283998E+02  0.00000000000E+00 0.  1.
<mgrwt>
<rscale>  2 0.96858071E+02</rscale>
<asrwt>0</asrwt>
<pdfrwt beam="1">  1       21 0.13587941E-02 0.96858071E+02</pdfrwt>
<pdfrwt beam="2">  1       21 0.17973792E+00 0.96858071E+02</pdfrwt>
<totfact> 0.43539780E+05</totfact>
</mgrwt>
</event>
<event>
 5    1  0.1624116E+000  0.1328317E+03  0.7546771E-02  0.1223314E+00
         21   -1    0    0  503  502  0.00000000000E+00  0.00000000000E+00  0.20671278033E+03  0.20671278033E+03  0.00000000000E+00 0. -1.
         21   -1    0    0  501  503 -0.00000000000E+00 -0.00000000000E+00 -0.13725317722E+03  0.13725317722E+03  0.00000000000E+00 0. -1.
         24    1    1    2    0    0  0.11692015439E+03  0.64115645640E+01  0.56464474671E+02  0.15286230247E+03  0.80419002446E+02 0. -1.
          1    1    1    2  501    0 -0.92567288698E+02  0.11642465691E+02 -0.60776277624E+02  0.11134633297E+03  0.00000000000E+00 0. -1.
         -2    1    1    2    0  502 -0.24352865693E+02 -0.18054030255E+02  0.73771406065E+02  0.79757322101E+02  0.00000000000E+00 0.  1.
<mgrwt>
<rscale>  2 0.13283166E+03</rscale>
<asrwt>0</asrwt>
<pdfrwt beam="1">  1       21 0.31801966E-01 0.13283166E+03</pdfrwt>
<pdfrwt beam="2">  1       21 0.21115873E-01 0.13283166E+03</pdfrwt>
<totfact> 0.20150974E+05</totfact>
</mgrwt>
</event>
<event>
 5    1  0.1624116E+000  0.8152511E+02  0.7546771E-02  0.1324778E+00
         21   -1    0    0  501  502  0.00000000000E+00  0.00000000000E+00  0.18106249522E+04  0.18106249522E+04  0.00000000000E+00 0. -1.
         21   -1    0    0  502  503 -0.00000000000E+00 -0.00000000000E+00 -0.41057295286E+01  0.41057295286E+01  0.00000000000E+00 0.  1.
         24    1    1    2    0    0 -0.26758609854E+02 -0.33714327948E+02  0.81271135725E+03  0.81781394294E+03  0.80419002446E+02 0. -1.
          1    1    1    2  501    0  0.11158514887E+02  0.48845561054E+02  0.85005649291E+03  0.85153182114E+03  0.00000000000E+00 0. -1.
         -2    1    1    2    0  503  0.15600094967E+02 -0.15131233106E+02  0.14375137249E+03  0.14538491762E+03  0.00000000000E+00 0.  1.
<mgrwt>
<rscale>  2 0.81525112E+02</rscale>
<asrwt>0</asrwt>
<pdfrwt beam="1">  1       21 0.27855705E+00 0.81525112E+02</pdfrwt>
<pdfrwt beam="2">  1       21 0.63165214E-03 0.81525112E+02</pdfrwt>
<totfact> 0.38428596E+05</totfact>
</mgrwt>
</event>
<event>
 5    1  0.1624116E+000  0.8293909E+02  0.7546771E-02  0.1320912E+00
         21   -1    0    0  503  502  0.00000000000E+00  0.00000000000E+00  0.23072657706E+03  0.23072657706E+03  0.00000000000E+00 0.  1.
         21   -1    0    0  501  503 -0.00000000000E+00 -0.00000000000E+00 -0.62634841936E+02  0.62634841936E+02  0.00000000000E+00 0. -1.
         24    1    1    2    0    0  0.87020093124E+00 -0.39392330022E+01  0.14757473052E+03  0.16811243811E+03  0.80419002446E+02 0.  1.
          1    1    1    2  501    0 -0.14875826672E+02 -0.38177674386E+02 -0.35197949463E+02  0.54015929938E+02  0.00000000000E+00 0. -1.
         -2    1    1    2    0  502  0.14005625741E+02  0.42116907388E+02  0.55714954075E+02  0.71233050951E+02  0.00000000000E+00 0.  1.
<mgrwt>
<rscale>  2 0.82939090E+02</rscale>
<asrwt>0</asrwt>
<pdfrwt beam="1">  1       21 0.35496396E-01 0.82939090E+02</pdfrwt>
<pdfrwt beam="2">  1       21 0.96361297E-02 0.82939090E+02</pdfrwt>
<totfact> 0.66556946E+05</totfact>
</mgrwt>
</event>
<event>
 5    1  0.1624116E+000  0.9205994E+02  0.7546771E-02  0.1297939E+00
         21   -1    0    0  503  502  0.00000000000E+00  0.00000000000E+00  0.17672192151E+02  0.17672192151E+02  0.00000000000E+00 0.  1.
         21   -1    0    0  501  503 -0.00000000000E+00 -0.00000000000E+00 -0.58385922501E+03  0.58385922501E+03  0.00000000000E+00 0. -1.
         24    1    1    2    0    0 -0.33939496414E+02 -0.16309391846E+02 -0.28889715099E+03  0.30223610883E+03  0.80419002446E+02 0. -1.
          1    1    1    2  501    0  0.55901196949E+02 -0.14250539840E+02 -0.23799318840E+03  0.24488523727E+03  0.00000000000E+00 0. -1.
         -2    1    1    2    0  502 -0.21961700535E+02  0.30559931685E+02 -0.39296693467E+02  0.54410071057E+02  0.00000000000E+00 0.  1.
<mgrwt>
<rscale>  2 0.92059939E+02</rscale>
<asrwt>0</asrwt>
<pdfrwt beam="1">  1       21 0.27187986E-02 0.92059939E+02</pdfrwt>
<pdfrwt beam="2">  1       21 0.89824503E-01 0.92059939E+02</pdfrwt>
<totfact> 0.79153998E+05</totfact>
</mgrwt>
</event>
<event>
 5    1  0.1624116E+000  0.8933452E+02  0.7546771E-02  0.1304471E+00
         21   -1    0    0  503  502  0.00000000000E+00  0.00000000000E+00  0.32729298346E+02  0.32729298346E+02  0.00000000000E+00 0. -1.
         21   -1    0    0  501  503 -0.00000000000E+00 -0.00000000000E+00 -0.33923403569E+03  0.33923403569E+03  0.00000000000E+00 0.  1.
         24    1    1    2    0    0  0.39349724945E+02  0.55913445918E+01 -0.21890209226E+03  0.23656924132E+03  0.80419002446E+02 0.  0.
          1    1    1    2  501    0 -0.73449039453E+01 -0.40758067759E+02 -0.75839512442E+02  0.86410643724E+02  0.00000000000E+00 0. -1.
         -2    1    1    2    0  502 -0.32004820999E+02  0.35166723167E+02 -0.11763132637E+02  0.48983448990E+02  0.00000000000E+00 0.  1.
<mgrwt>
<rscale>  2 0.89334517E+02</rscale>
<asrwt>0</asrwt>
<pdfrwt beam="1">  1       21 0.50352767E-02 0.89334517E+02</pdfrwt>
<pdfrwt beam="2">  1       21 0.52189852E-01 0.89334517E+02</pdfrwt>
<totfact> 0.92577986E+05</totfact>
</mgrwt>
</event>
<event>
 5    1  0.1624116E+000  0.1263848E+03  0.7546771E-02  0.1232921E+00
         21   -1    0    0  503  502  0.00000000000E+00  0.00000000000E+00  0.64418005405E+03  0.64418005405E+03  0.00000000000E+00 0.  1.
         21   -1    0    0  501  503 -0.00000000000E+00 -0.00000000000E+00 -0.20630827006E+03  0.20630827006E+03  0.00000000000E+00 0. -1.
         24    1    1    2    0    0  0.39514354912E+02  0.10380694506E+03  0.19717912005E+03  0.24017511825E+03  0.80419002446E+02 0.  0.
          1    1    1    2  501    0 -0.38551157719E+02 -0.56938201032E+02 -0.17705759285E+03  0.18994088998E+03  0.00000000000E+00 0. -1.
         -2    1    1    2    0  502 -0.96319719363E+00 -0.46868744023E+02  0.41775025679E+03  0.42037231589E+03  0.00000000000E+00 0.  1.
<mgrwt>
<rscale>  2 0.12638481E+03</rscale>
<asrwt>0</asrwt>
<pdfrwt beam="1">  1       21 0.99104623E-01 0.12638481E+03</pdfrwt>
<pdfrwt beam="2">  1       21 0.31739734E-01 0.12638481E+03</pdfrwt>
<totfact> 0.84520739E+03</totfact>
</mgrwt>
</event>
<event>
 5    1  0.1624116E+000  0.6902209E+02  0.7546771E-02  0.1363450E+00
         21   -1    0    0  501  502  0.00000000000E+00  0.00000000000E+00  0.43588715614E+02  0.43588715614E+02  0.00000000000E+00 0. -1.
         21   -1    0    0  502  503 -0.00000000000E+00 -0.00000000000E+00 -0.18888362396E+03  0.18888362396E+03  0.00000000000E+00 0. -1.
         24    1    1    2    0    0 -0.17798744003E+02 -0.15903447237E+02 -0.13163540449E+03  0.15609231432E+03  0.80419002446E+02 0. -1.
          1    1    1    2  501    0 -0.59003625172E+01  0.27250696647E+02  0.19535088491E+02  0.34044594695E+02  0.00000000000E+00 0. -1.
         -2    1    1    2    0  503  0.23699106520E+02 -0.11347249410E+02 -0.33194592347E+02  0.42335430553E+02  0.00000000000E+00 0.  1.
<mgrwt>
<rscale>  2 0.69022093E+02</rscale>
<asrwt>0</asrwt>
<pdfrwt beam="1">  1       21 0.67059562E-02 0.69022093E+02</pdfrwt>
<pdfrwt beam="2">  1       21 0.29059019E-01 0.69022093E+02</pdfrwt>
<totfact> 0.17993474E+06</totfact>
</mgrwt>
</event>
<event>
 5    1  0.1624116E+000  0.8408749E+02  0.7546771E-02  0.1317836E+00
         21   -1    0    0  503  502  0.00000000000E+00  0.00000000000E+00  0.69107197476E+03  0.69107197476E+03  0.00000000000E+00 0. -1.
         21   -1    0    0  501  503 -0.00000000000E+00 -0.00000000000E+00 -0.26547968393E+03  0.26547968393E+03  0.00000000000E+00 0. -1.
         24    1    1    2    0    0  0.60807011342E+02  0.96748236461E+01  0.24370615133E+02  0.10417407392E+03  0.80419002446E+02 0. -1.
          1    1    1    2  501    0 -0.43912701944E+02  0.54076241009E+01 -0.22320119458E+03  0.22754415188E+03  0.00000000000E+00 0. -1.
         -2    1    1    2    0  502 -0.16894309398E+02 -0.15082447747E+02  0.62442287029E+03  0.62483343289E+03  0.00000000000E+00 0.  1.
<mgrwt>
<rscale>  2 0.84087489E+02</rscale>
<asrwt>0</asrwt>
<pdfrwt beam="1">  1       21 0.10631876E+00 0.84087489E+02</pdfrwt>
<pdfrwt beam="2">  1       21 0.40843029E-01 0.84087489E+02</pdfrwt>
<totfact> 0.46179287E+03</totfact>
</mgrwt>
</event>
<event>
 5    1  0.1624116E+000  0.1316134E+03  0.7546771E-02  0.1225081E+00
         21   -1    0    0  501  502  0.00000000000E+00  0.00000000000E+00  0.93460481953E+02  0.93460481953E+02  0.00000000000E+00 0. -1.
         21   -1    0    0  502  503 -0.00000000000E+00 -0.00000000000E+00 -0.73375238805E+03  0.73375238805E+03  0.00000000000E+00 0.  1.
         24    1    1    2    0    0 -0.36358105001E+02  0.51168336553E+02 -0.11089347779E+03  0.15068075470E+03  0.80419002446E+02 0.  0.
          1    1    1    2  501    0 -0.10254091517E+02 -0.95995004532E+02  0.39252428384E+02  0.10421583575E+03  0.00000000000E+00 0. -1.
         -2    1    1    2    0  503  0.46612196518E+02  0.44826667980E+02 -0.56865085669E+03  0.57231627955E+03  0.00000000000E+00 0.  1.
<mgrwt>
<rscale>  2 0.13161339E+03</rscale>
<asrwt>0</asrwt>
<pdfrwt beam="1">  1       21 0.14378536E-01 0.13161339E+03</pdfrwt>
<pdfrwt beam="2">  1       21 0.11288498E+00 0.13161339E+03</pdfrwt>
<totfact> 0.27018432E+04</totfact>
</mgrwt>
</event>
<event>
 5    1  0.1624116E+000  0.9180744E+02  0.7546771E-02  0.1298533E+00
         21   -1    0    0  501  502  0.00000000000E+00  0.00000000000E+00  0.67733302153E+02  0.67733302153E+02  0.00000000000E+00 0. -1.
         21   -1    0    0  502  503 -0.00000000000E+00 -0.00000000000E+00 -0.14464543394E+03  0.14464543394E+03  0.00000000000E+00 0.  1.
         24    1    1    2    0    0  0.58720586001E+02 -0.44484940888E+02 -0.47982871711E+02  0.11914944028E+03  0.80419002446E+02 0.  1.
          1    1    1    2  501    0 -0.37728295059E+02  0.21494479861E+02  0.88096302591E+01  0.44306280569E+02  0.00000000000E+00 0. -1.
         -2    1    1    2    0  503 -0.20992290942E+02  0.22990461027E+02 -0.37738890336E+02  0.48923015248E+02  0.00000000000E+00 0.  1.
<mgrwt>
<rscale>  2 0.91807442E+02</rscale>
<asrwt>0</asrwt>
<pdfrwt beam="1">  1       21 0.10420508E-01 0.91807442E+02</pdfrwt>
<pdfrwt beam="2">  1       21 0.22253143E-01 0.91807442E+02</pdfrwt>
<totfact> 0.14107191E+06</totfact>
</mgrwt>
</event>
<event>
 5    1  0.1624116E+000  0.8679951E+02  0.7546771E-02  0.1310793E+00
         21   -1    0    0  501  502  0.00000000000E+00  0.00000000000E+00  0.30918220282E+04  0.30918220282E+04  0.00000000000E+00 0. -1.
         21   -1    0    0  502  503 -0.00000000000E+00 -0.00000000000E+00 -0.58944641063E+01  0.58944641063E+01  0.00000000000E+00 0. -1.
         24    1    1    2    0    0 -0.50154058609E+02  0.44683224474E+02  0.50048064015E+03  0.51133169985E+03  0.80419002446E+02 0. -1.
          1    1    1    2  501    0  0.20213130052E+02 -0.86988290343E+01  0.10235760378E+04  0.10238125538E+04  0.00000000000E+00 0. -1.
         -2    1    1    2    0  503  0.29940928557E+02 -0.35984395440E+02  0.15618708862E+04  0.15625722387E+04  0.00000000000E+00 0.  1.
<mgrwt>
<rscale>  2 0.86799508E+02</rscale>
<asrwt>0</asrwt>
<pdfrwt beam="1">  1       21 0.47566363E+00 0.86799508E+02</pdfrwt>
<pdfrwt beam="2">  1       21 0.90684310E-03 0.86799508E+02</pdfrwt>
<totfact> 0.15014314E+04</totfact>
</mgrwt>
</event>
<event>
 5    1  0.1624116E+000  0.7610465E+02  0.7546771E-02  0.1340484E+00
         21   -1    0    0  501  502  0.00000000000E+00  0.00000000000E+00  0.33390031551E+04  0.33390031551E+04  0.00000000000E+00 0. -1.
         21   -1    0    0  502  503 -0.00000000000E+00 -0.00000000000E+00 -0.40068104474E+01  0.40068104474E+01  0.00000000000E+00 0.  1.
         24    1    1    2    0    0  0.25564522462E+02  0.25293227198E+02  0.93650776635E+03  0.94064196406E+03  0.80419002446E+02 0.  0.
          1    1    1    2  501    0  0.25448689952E+01 -0.34456473792E+02  0.22794847336E+04  0.22797465596E+04  0.00000000000E+00 0. -1.
         -2    1    1    2    0  503 -0.28109391457E+02  0.91632465936E+01  0.11900384463E+03  0.12262144190E+03  0.00000000000E+00 0.  1.
<mgrwt>
<rscale>  2 0.76104652E+02</rscale>
<asrwt>0</asrwt>
<pdfrwt beam="1">  1       21 0.51369057E+00 0.76104652E+02</pdfrwt>
<pdfrwt beam="2">  1       21 0.61643505E-03 0.76104652E+02</pdfrwt>
<totfact> 0.15477331E+04</totfact>
</mgrwt>
</event>
<event>
 5    1  0.1624116E+000  0.6399296E+02  0.7546771E-02  0.1381800E+00
         21   -1    0    0  503  502  0.00000000000E+00  0.00000000000E+00  0.78846453428E+01  0.78846453428E+01  0.00000000000E+00 0. -1.
         21   -1    0    0  501  503 -0.00000000000E+00 -0.00000000000E+00 -0.59853551597E+03  0.59853551597E+03  0.00000000000E+00 0.  1.
         24    1    1    2    0    0 -0.41304968435E+01 -0.80132585535E+01 -0.31099708901E+03  0.32135288802E+03  0.80419002446E+02 0. -1.
          1    1    1    2  501    0 -0.13579118751E+02  0.21065842922E+02 -0.22111603764E+03  0.22253193997E+03  0.00000000000E+00 0. -1.
         -2    1    1    2    0  502  0.17709615594E+02 -0.13052584368E+02 -0.58537743981E+02  0.62535333321E+02  0.00000000000E+00 0.  1.
<mgrwt>
<rscale>  2 0.63992955E+02</rscale>
<asrwt>0</asrwt>
<pdfrwt beam="1">  1       21 0.12130226E-02 0.63992955E+02</pdfrwt>
<pdfrwt beam="2">  1       21 0.92082367E-01 0.63992955E+02</pdfrwt>
<totfact> 0.26718844E+06</totfact>
</mgrwt>
</event>
<event>
 5    1  0.1624116E+000  0.7126549E+02  0.7546771E-02  0.1355842E+00
         21   -1    0    0  503  502  0.00000000000E+00  0.00000000000E+00  0.27771470424E+03  0.27771470424E+03  0.00000000000E+00 0.  1.
         21   -1    0    0  501  503 -0.00000000000E+00 -0.00000000000E+00 -0.24789672875E+02  0.24789672875E+02  0.00000000000E+00 0.  1.
         24    1    1    2    0    0  0.47052470029E+02  0.21383707016E+01  0.22932345189E+03  0.24753781349E+03  0.80419002446E+02 0.  1.
          1    1    1    2  501    0 -0.19756952224E+02  0.63441608188E+01  0.69325884197E+01  0.21877987108E+02  0.00000000000E+00 0. -1.
         -2    1    1    2    0  502 -0.27295517804E+02 -0.84825315204E+01  0.16668991053E+02  0.33088576517E+02  0.00000000000E+00 0.  1.
<mgrwt>
<rscale>  2 0.71265486E+02</rscale>
<asrwt>0</asrwt>
<pdfrwt beam="1">  1       21 0.42725337E-01 0.71265486E+02</pdfrwt>
<pdfrwt beam="2">  1       21 0.38137960E-02 0.71265486E+02</pdfrwt>
<totfact> 0.21760950E+06</totfact>
</mgrwt>
</event>
<event>
 5    1  0.1624116E+000  0.1395641E+03  0.7546771E-02  0.1213917E+00
         21   -1    0    0  503  502  0.00000000000E+00  0.00000000000E+00  0.10431035149E+03  0.10431035149E+03  0.00000000000E+00 0.  1.
         21   -1    0    0  501  503 -0.00000000000E+00 -0.00000000000E+00 -0.64408758415E+03  0.64408758415E+03  0.00000000000E+00 0.  1.
         24    1    1    2    0    0 -0.78557888527E+02 -0.75572073184E+02  0.18604498352E+02  0.13673267133E+03  0.80419002446E+02 0.  1.
          1    1    1    2  501    0  0.11779027266E+02 -0.22278864219E+02 -0.45121682034E+03  0.45192002858E+03  0.00000000000E+00 0. -1.
         -2    1    1    2    0  502  0.66778861261E+02  0.97850937403E+02 -0.10716491067E+03  0.15974523574E+03  0.00000000000E+00 0.  1.
<mgrwt>
<rscale>  2 0.13956411E+03</rscale>
<asrwt>0</asrwt>
<pdfrwt beam="1">  1       21 0.16047746E-01 0.13956411E+03</pdfrwt>
<pdfrwt beam="2">  1       21 0.99090399E-01 0.13956411E+03</pdfrwt>
<totfact> 0.30032337E+04</totfact>
</mgrwt>
</event>
<event>
 5    1  0.1624116E+000  0.6582043E+02  0.7546771E-02  0.1374912E+00
         21   -1    0    0  503  502  0.00000000000E+00  0.00000000000E+00  0.33969894735E+03  0.33969894735E+03  0.00000000000E+00 0.  1.
         21   -1    0    0  501  503 -0.00000000000E+00 -0.00000000000E+00 -0.61542030140E+02  0.61542030140E+02  0.00000000000E+00 0. -1.
         24    1    1    2    0    0 -0.17507084700E+02 -0.24451486459E+02  0.26491255933E+02  0.89851966033E+02  0.80419002446E+02 0. -1.
          1    1    1    2  501    0  0.23544925287E+02  0.32860902264E+01 -0.24622157040E+02  0.34225904123E+02  0.00000000000E+00 0. -1.
         -2    1    1    2    0  502 -0.60378405865E+01  0.21165396233E+02  0.27628781831E+03  0.27716310733E+03  0.00000000000E+00 0.  1.
<mgrwt>
<rscale>  2 0.65820426E+02</rscale>
<asrwt>0</asrwt>
<pdfrwt beam="1">  1       21 0.52261375E-01 0.65820426E+02</pdfrwt>
<pdfrwt beam="2">  1       21 0.94680049E-02 0.65820426E+02</pdfrwt>
<totfact> 0.31787168E+05</totfact>
</mgrwt>
</event>
<event>
 5    1  0.1624116E+000  0.1004032E+03  0.7546771E-02  0.1279450E+00
         21   -1    0    0  501  502  0.00000000000E+00  0.00000000000E+00  0.21853497358E+03  0.21853497358E+03  0.00000000000E+00 0.  1.
         21   -1    0    0  502  503 -0.00000000000E+00 -0.00000000000E+00 -0.55582162905E+02  0.55582162905E+02  0.00000000000E+00 0. -1.
         24    1    1    2    0    0 -0.49922484690E+02 -0.36285123123E+02  0.50474715273E+02  0.11324211882E+03  0.80419002446E+02 0.  0.
          1    1    1    2  501    0  0.40578679772E+02  0.60858059372E+02  0.11296774538E+03  0.13458099471E+03  0.00000000000E+00 0. -1.
         -2    1    1    2    0  503  0.93438049180E+01 -0.24572936249E+02 -0.48964997287E+00  0.26294022958E+02  0.00000000000E+00 0.  1.
<mgrwt>
<rscale>  2 0.10040322E+03</rscale>
<asrwt>0</asrwt>
<pdfrwt beam="1">  1       21 0.33620765E-01 0.10040322E+03</pdfrwt>
<pdfrwt beam="2">  1       21 0.85511021E-02 0.10040322E+03</pdfrwt>
<totfact> 0.91042642E+05</totfact>
</mgrwt>
</event>
<event>
 5    1  0.1624116E+000  0.6889978E+02  0.7546771E-02  0.1363875E+00
         21   -1    0    0  503  502  0.00000000000E+00  0.00000000000E+00  0.14786938505E+04  0.14786938505E+04  0.00000000000E+00 0. -1.
         21   -1    0    0  501  503 -0.00000000000E+00 -0.00000000000E+00 -0.13151158757E+02  0.13151158757E+02  0.00000000000E+00 0. -1.
         24    1    1    2    0    0 -0.40740556139E+02 -0.18643156953E+02  0.73012276026E+03  0.73590340482E+03  0.80419002446E+02 0. -1.
          1    1    1    2  501    0  0.20194882556E+02  0.14292527017E+02  0.50264823334E+01  0.25246289522E+02  0.00000000000E+00 0. -1.
         -2    1    1    2    0  502  0.20545673584E+02  0.43506299357E+01  0.73039344917E+03  0.73069531494E+03  0.00000000000E+00 0.  1.
<mgrwt>
<rscale>  2 0.68899782E+02</rscale>
<asrwt>0</asrwt>
<pdfrwt beam="1">  1       21 0.22749123E+00 0.68899782E+02</pdfrwt>
<pdfrwt beam="2">  1       21 0.20232564E-02 0.68899782E+02</pdfrwt>
<totfact> 0.12131658E+05</totfact>
</mgrwt>
</event>
<event>
 5    1  0.1624116E+000  0.1208294E+03  0.7546771E-02  0.1241735E+00
         21   -1    0    0  503  502  0.00000000000E+00  0.00000000000E+00  0.10083511770E+03  0.10083511770E+03  0.00000000000E+00 0.  1.
         21   -1    0    0  501  503 -0.00000000000E+00 -0.00000000000E+00 -0.32038939402E+03  0.32038939402E+03  0.00000000000E+00 0. -1.
         24    1    1    2    0    0 -0.75791161327E+02  0.41363781873E+02 -0.86051584743E+02  0.14603887762E+03  0.80419002446E+02 0.  1.
          1    1    1    2  501    0  0.78880492368E+01  0.26508731320E+02 -0.17017827685E+03  0.17241107872E+03  0.00000000000E+00 0. -1.
         -2    1    1    2    0  502  0.67903112090E+02 -0.67872513193E+02  0.36675585268E+02  0.10277455538E+03  0.00000000000E+00 0.  1.
<mgrwt>
<rscale>  2 0.12082943E+03</rscale>
<asrwt>0</asrwt>
<pdfrwt beam="1">  1       21 0.15513095E-01 0.12082943E+03</pdfrwt>
<pdfrwt beam="2">  1       21 0.49290675E-01 0.12082943E+03</pdfrwt>
<totfact> 0.14828056E+05</totfact>
</mgrwt>
</event>
<event>
 5    1  0.1624116E+000  0.1228974E+03  0.7546771E-02  0.1238392E+00
         21   -1    0    0  501  502  0.00000000000E+00  0.00000000000E+00  0.32404738624E+02  0.32404738624E+02  0.00000000000E+00 0. -1.
         21   -1    0    0  502  503 -0.00000000000E+00 -0.00000000000E+00 -0.14510697373E+04  0.14510697373E+04  0.00000000000E+00 0.  1.
         24    1    1    2    0    0  0.99950620340E+01  0.94640259292E+02 -0.54856310436E+03  0.56253477702E+03  0.80419002446E+02 0.  1.
          1    1    1    2  501    0  0.32096097529E+02 -0.53202732185E+02 -0.15156372682E+02  0.63956280547E+02  0.00000000000E+00 0. -1.
         -2    1    1    2    0  503 -0.42091159563E+02 -0.41437527108E+02 -0.85494552168E+03  0.85698341840E+03  0.00000000000E+00 0.  1.
<mgrwt>
<rscale>  2 0.12289744E+03</rscale>
<asrwt>0</asrwt>
<pdfrwt beam="1">  1       21 0.49853452E-02 0.12289744E+03</pdfrwt>
<pdfrwt beam="2">  1       21 0.22324146E+00 0.12289744E+03</pdfrwt>
<totfact> 0.27641889E+04</totfact>
</mgrwt>
</event>
<event>
 5    1  0.1624116E+000  0.6805863E+02  0.7546771E-02  0.1366822E+00
         21   -1    0    0  501  502  0.00000000000E+00  0.00000000000E+00  0.76487677193E+03  0.76487677193E+03  0.00000000000E+00 0. -1.
         21   -1    0    0  502  503 -0.00000000000E+00 -0.00000000000E+00 -0.11829151455E+02  0.11829151455E+02  0.00000000000E+00 0. -1.
         24    1    1    2    0    0 -0.35864010025E+02 -0.24022431968E+02  0.28960736151E+03  0.30364937716E+03  0.80419002446E+02 0.  0.
          1    1    1    2  501    0  0.14743309366E+02  0.17191758156E+02  0.44068824183E+03  0.44126981338E+03  0.00000000000E+00 0. -1.
         -2    1    1    2    0  503  0.21120700659E+02  0.68306738127E+01  0.22752017136E+02  0.31786732842E+02  0.00000000000E+00 0.  1.
<mgrwt>
<rscale>  2 0.68058627E+02</rscale>
<asrwt>0</asrwt>
<pdfrwt beam="1">  1       21 0.11767331E+00 0.68058627E+02</pdfrwt>
<pdfrwt beam="2">  1       21 0.18198701E-02 0.68058627E+02</pdfrwt>
<totfact> 0.80428140E+05</totfact>
</mgrwt>
</event>
<event>
 5    1  0.1624116E+000  0.1683669E+03  0.7546771E-02  0.1179562E+00
         21   -1    0    0  503  502  0.00000000000E+00  0.00000000000E+00  0.35299781005E+03  0.35299781005E+03  0.00000000000E+00 0.  1.
         21   -1    0    0  501  503 -0.00000000000E+00 -0.00000000000E+00 -0.17384301735E+03  0.17384301735E+03  0.00000000000E+00 0.  1.
         24    1    1    2    0    0  0.97944942433E+02  0.64772446015E+02 -0.10646294234E+03  0.17773647784E+03  0.80419002446E+02 0.  1.
          1    1    1    2  501    0  0.33351939471E+02 -0.52955475513E+02  0.54284582496E+02  0.82845942267E+02  0.00000000000E+00 0. -1.
         -2    1    1    2    0  502 -0.13129688190E+03 -0.11816970502E+02  0.23133315254E+03  0.26625840729E+03  0.00000000000E+00 0.  1.
<mgrwt>
<rscale>  2 0.16836691E+03</rscale>
<asrwt>0</asrwt>
<pdfrwt beam="1">  1       21 0.54307355E-01 0.16836691E+03</pdfrwt>
<pdfrwt beam="2">  1       21 0.26745080E-01 0.16836691E+03</pdfrwt>
<totfact> 0.43170352E+04</totfact>
</mgrwt>
</event>
<event>
 5    1  0.1624116E+000  0.8285923E+02  0.7546771E-02  0.1321128E+00
         21   -1    0    0  503  502  0.00000000000E+00  0.00000000000E+00  0.12504268593E+03  0.12504268593E+03  0.00000000000E+00 0.  1.
         21   -1    0    0  501  503 -0.00000000000E+00 -0.00000000000E+00 -0.11182451322E+03  0.11182451322E+03  0.00000000000E+00 0. -1.
         24    1    1    2    0    0 -0.50495395752E+02  0.30866531108E+02 -0.31145018530E+02  0.10459328787E+03  0.80419002446E+02 0. -1.
          1    1    1    2  501    0  0.27187157281E+02 -0.32657422502E+02 -0.31497075805E+02  0.52893426338E+02  0.00000000000E+00 0. -1.
         -2    1    1    2    0  502  0.23308238471E+02  0.17908913944E+01  0.75860267047E+02  0.79380484939E+02  0.00000000000E+00 0.  1.
<mgrwt>
<rscale>  2 0.82859234E+02</rscale>
<asrwt>0</asrwt>
<pdfrwt beam="1">  1       21 0.19237336E-01 0.82859234E+02</pdfrwt>
<pdfrwt beam="2">  1       21 0.17203771E-01 0.82859234E+02</pdfrwt>
<totfact> 0.75763830E+05</totfact>
</mgrwt>
</event>
<event>
 5    1  0.1624116E+000  0.9861696E+02  0.7546771E-02  0.1283231E+00
         21   -1    0    0  503  502  0.00000000000E+00  0.00000000000E+00  0.54426007024E+03  0.54426007024E+03  0.00000000000E+00 0. -1.
         21   -1    0    0  501  503 -0.00000000000E+00 -0.00000000000E+00 -0.25154374147E+02  0.25154374147E+02  0.00000000000E+00 0. -1.
         24    1    1    2    0    0  0.40161630485E+02 -0.60427422699E+02  0.41882373374E+03  0.43260254955E+03  0.80419002446E+02 0. -1.
          1    1    1    2  501    0 -0.47196965714E+02  0.26206504574E+02  0.40189928997E+02  0.67302041926E+02  0.00000000000E+00 0. -1.
         -2    1    1    2    0  502  0.70353352292E+01  0.34220918125E+02  0.60092033354E+02  0.69509852911E+02  0.00000000000E+00 0.  1.
<mgrwt>
<rscale>  2 0.98616958E+02</rscale>
<asrwt>0</asrwt>
<pdfrwt beam="1">  1       21 0.83732309E-01 0.98616958E+02</pdfrwt>
<pdfrwt beam="2">  1       21 0.38699041E-02 0.98616958E+02</pdfrwt>
<totfact> 0.52058703E+05</totfact>
</mgrwt>
</event>
<event>
 5    1  0.1624116E+000  0.1233343E+03  0.7546771E-02  0.1237696E+00
         21   -1    0    0  503  502  0.00000000000E+00  0.00000000000E+00  0.17689045019E+03  0.17689045019E+03  0.00000000000E+00 0. -1.
         21   -1    0    0  501  503 -0.00000000000E+00 -0.00000000000E+00 -0.92026483319E+02  0.92026483319E+02  0.00000000000E+00 0. -1.
         24    1    1    2    0    0  0.29975703142E+02  0.88421594669E+02  0.41825530012E+02  0.13012882885E+03  0.80419002446E+02 0. -1.
          1    1    1    2  501    0  0.73820536532E+01 -0.85668076019E+02  0.61345961701E+01  0.86204102194E+02  0.00000000000E+00 0. -1.
         -2    1    1    2    0  502 -0.37357756795E+02 -0.27535186503E+01  0.36903840689E+02  0.52584002466E+02  0.00000000000E+00 0.  1.
<mgrwt>
<rscale>  2 0.12333429E+03</rscale>
<asrwt>0</asrwt>
<pdfrwt beam="1">  1       21 0.27213915E-01 0.12333429E+03</pdfrwt>
<pdfrwt beam="2">  1       21 0.14157921E-01 0.12333429E+03</pdfrwt>
<totfact> 0.56478609E+05</totfact>
</mgrwt>
</event>
<event>
 5    1  0.1624116E+000  0.1652651E+03  0.7546771E-02  0.1182877E+00
         21   -1    0    0  503  502  0.00000000000E+00  0.00000000000E+00  0.87742653000E+02  0.87742653000E+02  0.00000000000E+00 0.  1.
         21   -1    0    0  501  503 -0.00000000000E+00 -0.00000000000E+00 -0.36508556576E+03  0.36508556576E+03  0.00000000000E+00 0. -1.
         24    1    1    2    0    0 -0.13779679931E+03 -0.41675255326E+02 -0.51968684411E+02  0.17289518478E+03  0.80419002446E+02 0.  1.
          1    1    1    2  501    0  0.13200236653E+03  0.88512439868E+01 -0.17180805693E+03  0.21684320999E+03  0.00000000000E+00 0. -1.
         -2    1    1    2    0  502  0.57944327704E+01  0.32824011339E+02 -0.53566171417E+02  0.63089823996E+02  0.00000000000E+00 0.  1.
<mgrwt>
<rscale>  2 0.16526515E+03</rscale>
<asrwt>0</asrwt>
<pdfrwt beam="1">  1       21 0.13498870E-01 0.16526515E+03</pdfrwt>
<pdfrwt beam="2">  1       21 0.56167010E-01 0.16526515E+03</pdfrwt>
<totfact> 0.14304249E+05</totfact>
</mgrwt>
</event>
<event>
 5    1  0.1624116E+000  0.6698938E+02  0.7546771E-02  0.1370641E+00
         21   -1    0    0  501  502  0.00000000000E+00  0.00000000000E+00  0.23646743056E+02  0.23646743056E+02  0.00000000000E+00 0.  1.
         21   -1    0    0  502  503 -0.00000000000E+00 -0.00000000000E+00 -0.28066492355E+03  0.28066492355E+03  0.00000000000E+00 0. -1.
         24    1    1    2    0    0 -0.24369446434E+02 -0.32573482215E+02 -0.76137728077E+02  0.11797911364E+03  0.80419002446E+02 0.  1.
          1    1    1    2  501    0  0.19881235125E+02  0.12952637245E+02 -0.79157756627E+02  0.82637671530E+02  0.00000000000E+00 0. -1.
         -2    1    1    2    0  503  0.44882113082E+01  0.19620844969E+02 -0.10172269579E+03  0.10369488144E+03  0.00000000000E+00 0.  1.
<mgrwt>
<rscale>  2 0.66989384E+02</rscale>
<asrwt>0</asrwt>
<pdfrwt beam="1">  1       21 0.36379604E-02 0.66989384E+02</pdfrwt>
<pdfrwt beam="2">  1       21 0.43179220E-01 0.66989384E+02</pdfrwt>
<totfact> 0.22942007E+06</totfact>
</mgrwt>
</event>
<event>
 5    1  0.1624116E+000  0.9466687E+02  0.7546771E-02  0.1291928E+00
         21   -1    0    0  503  502  0.00000000000E+00  0.00000000000E+00  0.10617682433E+04  0.10617682433E+04  0.00000000000E+00 0.  1.
         21   -1    0    0  501  503 -0.00000000000E+00 -0.00000000000E+00 -0.22366174423E+02  0.22366174423E+02  0.00000000000E+00 0. -1.
         24    1    1    2    0    0 -0.75278629244E+01  0.68680482308E+02  0.70952989900E+03  0.71740753474E+03  0.80419002446E+02 0.  1.
          1    1    1    2  501    0  0.26395651057E+02 -0.51134131973E+02  0.28428706530E+02  0.64184275351E+02  0.00000000000E+00 0. -1.
         -2    1    1    2    0  502 -0.18867788133E+02 -0.17546350335E+02  0.30144346331E+03  0.30254260759E+03  0.00000000000E+00 0.  1.
<mgrwt>
<rscale>  2 0.94666868E+02</rscale>
<asrwt>0</asrwt>
<pdfrwt beam="1">  1       21 0.16334892E+00 0.94666868E+02</pdfrwt>
<pdfrwt beam="2">  1       21 0.34409507E-02 0.94666868E+02</pdfrwt>
<totfact> 0.12640352E+05</totfact>
</mgrwt>
</event>
<event>
 5    1  0.1624116E+000  0.1281607E+03  0.7546771E-02  0.1230211E+00
         21   -1    0    0  501  502  0.00000000000E+00  0.00000000000E+00  0.58848098410E+02  0.58848098410E+02  0.00000000000E+00 0.  1.
         21   -1    0    0  502  503 -0.00000000000E+00 -0.00000000000E+00 -0.10274277605E+04  0.10274277605E+04  0.00000000000E+00 0.  1.
         24    1    1    2    0    0 -0.10206563347E+03  0.14427885519E+02 -0.91977527419E+02  0.15985192811E+03  0.80419002446E+02 0.  1.
          1    1    1    2  501    0  0.67908203273E+02 -0.43568802829E+02 -0.42646564025E+02  0.91260583358E+02  0.00000000000E+00 0. -1.
         -2    1    1    2    0  503  0.34157430194E+02  0.29140917310E+02 -0.83395557069E+03  0.83516334749E+03  0.00000000000E+00 0.  1.
<mgrwt>
<rscale>  2 0.12816074E+03</rscale>
<asrwt>0</asrwt>
<pdfrwt beam="1">  1       21 0.90535533E-02 0.12816074E+03</pdfrwt>
<pdfrwt beam="2">  1       21 0.15806582E+00 0.12816074E+03</pdfrwt>
<totfact> 0.26335436E+04</totfact>
</mgrwt>
</event>
<event>
 5    1  0.1624116E+000  0.8366986E+02  0.7546771E-02  0.1318948E+00
         21   -1    0    0  501  502  0.00000000000E+00  0.00000000000E+00  0.83680305773E+03  0.83680305773E+03  0.00000000000E+00 0. -1.
         21   -1    0    0  502  503 -0.00000000000E+00 -0.00000000000E+00 -0.10681165783E+02  0.10681165783E+02  0.00000000000E+00 0.  1.
         24    1    1    2    0    0  0.30590153033E+01 -0.23714034228E+02  0.54993978744E+03  0.55630270425E+03  0.80419002446E+02 0. -1.
          1    1    1    2  501    0 -0.41389114014E+02  0.15803002698E+02  0.20707488514E+03  0.21176119028E+03  0.00000000000E+00 0. -1.
         -2    1    1    2    0  503  0.38330098710E+02  0.79110315297E+01  0.69107219375E+02  0.79420328989E+02  0.00000000000E+00 0.  1.
<mgrwt>
<rscale>  2 0.83669862E+02</rscale>
<asrwt>0</asrwt>
<pdfrwt beam="1">  1       21 0.12873888E+00 0.83669862E+02</pdfrwt>
<pdfrwt beam="2">  1       21 0.16432569E-02 0.83669862E+02</pdfrwt>
<totfact> 0.76174307E+05</totfact>
</mgrwt>
</event>
<event>
 5    1  0.1624116E+000  0.7854503E+02  0.7546771E-02  0.1333232E+00
         21   -1    0    0  501  502  0.00000000000E+00  0.00000000000E+00  0.40172823111E+02  0.40172823111E+02  0.00000000000E+00 0.  1.
         21   -1    0    0  502  503 -0.00000000000E+00 -0.00000000000E+00 -0.17096413194E+03  0.17096413194E+03  0.00000000000E+00 0. -1.
         24    1    1    2    0    0  0.20948225589E+02  0.23120434016E+02 -0.38255418625E+02  0.94361409660E+02  0.80419002446E+02 0.  1.
          1    1    1    2  501    0 -0.41219703642E+02 -0.28187545930E+02 -0.59395896655E+02  0.77598158827E+02  0.00000000000E+00 0. -1.
         -2    1    1    2    0  503  0.20271478053E+02  0.50671119138E+01 -0.33139993552E+02  0.39177386567E+02  0.00000000000E+00 0.  1.
<mgrwt>
<rscale>  2 0.78545029E+02</rscale>
<asrwt>0</asrwt>
<pdfrwt beam="1">  1       21 0.61804344E-02 0.78545029E+02</pdfrwt>
<pdfrwt beam="2">  1       21 0.26302174E-01 0.78545029E+02</pdfrwt>
<totfact> 0.25043072E+06</totfact>
</mgrwt>
</event>
<event>
 5    1  0.1624116E+000  0.1222975E+03  0.7546771E-02  0.1239354E+00
         21   -1    0    0  503  502  0.00000000000E+00  0.00000000000E+00  0.27375671833E+03  0.27375671833E+03  0.00000000000E+00 0.  1.
         21   -1    0    0  501  503 -0.00000000000E+00 -0.00000000000E+00 -0.13659183981E+03  0.13659183981E+03  0.00000000000E+00 0.  1.
         24    1    1    2    0    0  0.41356697539E+02  0.98393976871E+02 -0.54132632972E+02  0.14418498196E+03  0.80419002446E+02 0.  1.
          1    1    1    2  501    0 -0.20607334208E+02 -0.16279010186E+02 -0.23518877324E+02  0.35253453538E+02  0.00000000000E+00 0. -1.
         -2    1    1    2    0  502 -0.20749363331E+02 -0.82114966685E+02  0.21481638882E+03  0.23091012264E+03  0.00000000000E+00 0.  1.
<mgrwt>
<rscale>  2 0.12229747E+03</rscale>
<asrwt>0</asrwt>
<pdfrwt beam="1">  1       21 0.42116418E-01 0.12229747E+03</pdfrwt>
<pdfrwt beam="2">  1       21 0.21014129E-01 0.12229747E+03</pdfrwt>
<totfact> 0.11711858E+05</totfact>
</mgrwt>
</event>
<event>
 5    1  0.1624116E+000  0.6704554E+02  0.7546771E-02  0.1370438E+00
         21   -1    0    0  503  502  0.00000000000E+00  0.00000000000E+00  0.38442572834E+02  0.38442572834E+02  0.00000000000E+00 0. -1.
         21   -1    0    0  501  503 -0.00000000000E+00 -0.00000000000E+00 -0.18836008755E+03  0.18836008755E+03  0.00000000000E+00 0. -1.
         24    1    1    2    0    0 -0.40352793404E+01 -0.15656826803E+02 -0.53682573459E+02  0.98032924839E+02  0.80419002446E+02 0.  0.
          1    1    1    2  501    0  0.15683254279E+02 -0.13482344909E+02 -0.95148121718E+02  0.97369929421E+02  0.00000000000E+00 0. -1.
         -2    1    1    2    0  502 -0.11647974938E+02  0.29139171712E+02 -0.10868195446E+01  0.31399806129E+02  0.00000000000E+00 0.  1.
<mgrwt>
<rscale>  2 0.67045542E+02</rscale>
<asrwt>0</asrwt>
<pdfrwt beam="1">  1       21 0.59142418E-02 0.67045542E+02</pdfrwt>
<pdfrwt beam="2">  1       21 0.28978476E-01 0.67045542E+02</pdfrwt>
<totfact> 0.22282297E+06</totfact>
</mgrwt>
</event>
<event>
 5    1  0.1624116E+000  0.9037774E+02  0.7546771E-02  0.1301940E+00
         21   -1    0    0  503  502  0.00000000000E+00  0.00000000000E+00  0.35065409423E+02  0.35065409423E+02  0.00000000000E+00 0.  1.
         21   -1    0    0  501  503 -0.00000000000E+00 -0.00000000000E+00 -0.71515651916E+03  0.71515651916E+03  0.00000000000E+00 0.  1.
         24    1    1    2    0    0 -0.23159733135E+01  0.72314707474E+02 -0.41495406016E+03  0.42882265407E+03  0.80419002446E+02 0.  1.
          1    1    1    2  501    0  0.35720298230E+01 -0.25586590036E+02 -0.27280844564E+03  0.27402897839E+03  0.00000000000E+00 0. -1.
         -2    1    1    2    0  502 -0.12560565096E+01 -0.46728117437E+02  0.76713960561E+01  0.47370296122E+02  0.00000000000E+00 0.  1.
<mgrwt>
<rscale>  2 0.90377744E+02</rscale>
<asrwt>0</asrwt>
<pdfrwt beam="1">  1       21 0.53946782E-02 0.90377744E+02</pdfrwt>
<pdfrwt beam="2">  1       21 0.11002408E+00 0.90377744E+02</pdfrwt>
<totfact> 0.16060076E+05</totfact>
</mgrwt>
</event>
<event>
 5    1  0.1624116E+000  0.1240410E+03  0.7546771E-02  0.1236576E+00
         21   -1    0    0  503  502  0.00000000000E+00  0.00000000000E+00  0.48823000482E+02  0.48823000482E+02  0.00000000000E+00 0.  1.
         21   -1    0    0  501  503 -0.00000000000E+00 -0.00000000000E+00 -0.10573865780E+04  0.10573865780E+04  0.00000000000E+00 0. -1.
         24    1    1    2    0    0 -0.21406942652E+02  0.32809280187E+02 -0.30638900118E+03  0.31918042242E+03  0.80419002446E+02 0. -1.
          1    1    1    2  501    0  0.70957521529E+02  0.31340144382E+02 -0.70169510220E+03  0.70596968134E+03  0.00000000000E+00 0. -1.
         -2    1    1    2    0  502 -0.49550578877E+02 -0.64149424569E+02 -0.47947409091E+00  0.81059474677E+02  0.00000000000E+00 0.  1.
<mgrwt>
<rscale>  2 0.12404098E+03</rscale>
<asrwt>0</asrwt>
<pdfrwt beam="1">  1       21 0.75112307E-02 0.12404098E+03</pdfrwt>
<pdfrwt beam="2">  1       21 0.16267486E+00 0.12404098E+03</pdfrwt>
<totfact> 0.33804280E+04</totfact>
</mgrwt>
</event>
<event>
 5    1  0.1624116E+000  0.1189576E+03  0.7546771E-02  0.1244827E+00
         21   -1    0    0  503  502  0.00000000000E+00  0.00000000000E+00  0.26457775685E+03  0.26457775685E+03  0.00000000000E+00 0. -1.
         21   -1    0    0  501  503 -0.00000000000E+00 -0.00000000000E+00 -0.10344079971E+03  0.10344079971E+03  0.00000000000E+00 0. -1.
         24    1    1    2    0    0  0.60764555617E+02 -0.71410057283E+02  0.16206892921E+03  0.20377752886E+03  0.80419002446E+02 0. -1.
          1    1    1    2  501    0  0.71296604317E+01  0.38102618690E+02 -0.57817951047E+02  0.69610035714E+02  0.00000000000E+00 0. -1.
         -2    1    1    2    0  502 -0.67894216049E+02  0.33307438593E+02  0.56885978974E+02  0.94630991976E+02  0.00000000000E+00 0.  1.
<mgrwt>
<rscale>  2 0.11895758E+03</rscale>
<asrwt>0</asrwt>
<pdfrwt beam="1">  1       21 0.40704270E-01 0.11895758E+03</pdfrwt>
<pdfrwt beam="2">  1       21 0.15913969E-01 0.11895758E+03</pdfrwt>
<totfact> 0.20883230E+05</totfact>
</mgrwt>
</event>
<event>
 5    1  0.1624116E+000  0.6957374E+02  0.7546771E-02  0.1361549E+00
         21   -1    0    0  501  502  0.00000000000E+00  0.00000000000E+00  0.10074717549E+02  0.10074717549E+02  0.00000000000E+00 0. -1.
         21   -1    0    0  502  503 -0.00000000000E+00 -0.00000000000E+00 -0.78216801497E+03  0.78216801497E+03  0.00000000000E+00 0. -1.
         24    1    1    2    0    0  0.93131732423E+01 -0.16959123394E+02 -0.37107234822E+03  0.38017923488E+03  0.80419002446E+02 0. -1.
          1    1    1    2  501    0 -0.30670041283E+02  0.27740236240E+01 -0.41749468246E+02  0.51878364837E+02  0.00000000000E+00 0. -1.
         -2    1    1    2    0  503  0.21356868040E+02  0.14185099770E+02 -0.35927148095E+03  0.36018513280E+03  0.00000000000E+00 0.  1.
<mgrwt>
<rscale>  2 0.69573741E+02</rscale>
<asrwt>0</asrwt>
<pdfrwt beam="1">  1       21 0.15499563E-02 0.69573741E+02</pdfrwt>
<pdfrwt beam="2">  1       21 0.12033356E+00 0.69573741E+02</pdfrwt>
<totfact> 0.98280503E+05</totfact>
</mgrwt>
</event>
<event>
 5    1  0.1624116E+000  0.7439996E+02  0.7546771E-02  0.1345739E+00
         21   -1    0    0  501  502  0.00000000000E+00  0.00000000000E+00  0.17499861909E+03  0.17499861909E+03  0.00000000000E+00 0. -1.
         21   -1    0    0  502  503 -0.00000000000E+00 -0.00000000000E+00 -0.94423447714E+02  0.94423447714E+02  0.00000000000E+00 0.  1.
         24    1    1    2    0    0 -0.19267837748E+02  0.80188889358E+01  0.44627997022E+02  0.94310265739E+02  0.80419002446E+02 0. -1.
          1    1    1    2  501    0  0.72434276240E+01 -0.35230330906E+02  0.99033567956E+02  0.10536266436E+03  0.00000000000E+00 0. -1.
         -2    1    1    2    0  503  0.12024410124E+02  0.27211441970E+02 -0.63086393602E+02  0.69749136702E+02  0.00000000000E+00 0.  1.
<mgrwt>
<rscale>  2 0.74399964E+02</rscale>
<asrwt>0</asrwt>
<pdfrwt beam="1">  1       21 0.26922864E-01 0.74399964E+02</pdfrwt>
<pdfrwt beam="2">  1       21 0.14526684E-01 0.74399964E+02</pdfrwt>
<totfact> 0.55033009E+05</totfact>
</mgrwt>
</event>
<event>
 5    1  0.1624116E+000  0.7021513E+02  0.7546771E-02  0.1359363E+00
         21   -1    0    0  503  502  0.00000000000E+00  0.00000000000E+00  0.10891190089E+04  0.10891190089E+04  0.00000000000E+00 0.  1.
         21   -1    0    0  501  503 -0.00000000000E+00 -0.00000000000E+00 -0.27783349399E+02  0.27783349399E+02  0.00000000000E+00 0.  1.
         24    1    1    2    0    0  0.79289711874E+01  0.24329789530E+02  0.20342342125E+03  0.22023421966E+03  0.80419002446E+02 0.  1.
          1    1    1    2  501    0 -0.28798476399E+02 -0.18991297409E+02 -0.37831694825E+01  0.34703515550E+02  0.00000000000E+00 0. -1.
         -2    1    1    2    0  502  0.20869505212E+02 -0.53384921206E+01  0.86169540769E+03  0.86196462304E+03  0.00000000000E+00 0.  1.
<mgrwt>
<rscale>  2 0.70215130E+02</rscale>
<asrwt>0</asrwt>
<pdfrwt beam="1">  1       21 0.16755674E+00 0.70215130E+02</pdfrwt>
<pdfrwt beam="2">  1       21 0.42743623E-02 0.70215130E+02</pdfrwt>
<totfact> 0.84600519E+04</totfact>
</mgrwt>
</event>
<event>
 5    1  0.1624116E+000  0.1178361E+03  0.7546771E-02  0.1246710E+00
         21   -1    0    0  501  502  0.00000000000E+00  0.00000000000E+00  0.37865814899E+03  0.37865814899E+03  0.00000000000E+00 0. -1.
         21   -1    0    0  502  503 -0.00000000000E+00 -0.00000000000E+00 -0.87551147028E+02  0.87551147028E+02  0.00000000000E+00 0.  1.
         24    1    1    2    0    0 -0.27079265222E+02 -0.13653905991E+02  0.21032291708E+02  0.88483269620E+02  0.80419002446E+02 0. -1.
          1    1    1    2  501    0  0.52537211730E+02  0.70217432546E+02  0.29731561751E+03  0.30997939103E+03  0.00000000000E+00 0. -1.
         -2    1    1    2    0  503 -0.25457946508E+02 -0.56563526555E+02 -0.27240907248E+02  0.67746635374E+02  0.00000000000E+00 0.  1.
<mgrwt>
<rscale>  2 0.11783607E+03</rscale>
<asrwt>0</asrwt>
<pdfrwt beam="1">  1       21 0.58255099E-01 0.11783607E+03</pdfrwt>
<pdfrwt beam="2">  1       21 0.13469407E-01 0.11783607E+03</pdfrwt>
<totfact> 0.13509216E+05</totfact>
</mgrwt>
</event>
<event>
 5    1  0.1624116E+000  0.6704704E+02  0.7546771E-02  0.1370433E+00
         21   -1    0    0  501  502  0.00000000000E+00  0.00000000000E+00  0.18417916313E+03  0.18417916313E+03  0.00000000000E+00 0. -1.
         21   -1    0    0  502  503 -0.00000000000E+00 -0.00000000000E+00 -0.12794717445E+03  0.12794717445E+03  0.00000000000E+00 0.  1.
         24    1    1    2    0    0 -0.17919787261E+02  0.37677376036E+02  0.81270652604E+02  0.12170800454E+03  0.80419002446E+02 0.  1.
          1    1    1    2  501    0  0.28133999736E+01 -0.20201735807E+02  0.80159534129E+02  0.82713821462E+02  0.00000000000E+00 0. -1.
         -2    1    1    2    0  503  0.15106387287E+02 -0.17475640229E+02 -0.10519819806E+03  0.10770451157E+03  0.00000000000E+00 0.  1.
<mgrwt>
<rscale>  2 0.67047036E+02</rscale>
<asrwt>0</asrwt>
<pdfrwt beam="1">  1       21 0.28335256E-01 0.67047036E+02</pdfrwt>
<pdfrwt beam="2">  1       21 0.19684181E-01 0.67047036E+02</pdfrwt>
<totfact> 0.29015454E+05</totfact>
</mgrwt>
</event>
<event>
 5    1  0.1624116E+000  0.9546224E+02  0.7546771E-02  0.1290138E+00
         21   -1    0    0  501  502  0.00000000000E+00  0.00000000000E+00  0.63508461105E+03  0.63508461105E+03  0.00000000000E+00 0. -1.
         21   -1    0    0  502  503 -0.00000000000E+00 -0.00000000000E+00 -0.16514211501E+02  0.16514211501E+02  0.00000000000E+00 0.  1.
         24    1    1    2    0    0  0.56952243243E+02 -0.28719327618E+02  0.23581871586E+03  0.25718872544E+03  0.80419002446E+02 0.  1.
          1    1    1    2  501    0 -0.11111875410E+02 -0.19063553433E+02  0.17437772501E+03  0.17576826740E+03  0.00000000000E+00 0. -1.
         -2    1    1    2    0  503 -0.45840367833E+02  0.47782881051E+02  0.20837395867E+03  0.21864182970E+03  0.00000000000E+00 0.  1.
<mgrwt>
<rscale>  2 0.95462237E+02</rscale>
<asrwt>0</asrwt>
<pdfrwt beam="1">  1       21 0.97705306E-01 0.95462237E+02</pdfrwt>
<pdfrwt beam="2">  1       21 0.25406484E-02 0.95462237E+02</pdfrwt>
<totfact> 0.72905988E+05</totfact>
</mgrwt>
</event>
<event>
 5    1  0.1624116E+000  0.1085117E+03  0.7546771E-02  0.1263351E+00
         21   -1    0    0  503  502  0.00000000000E+00  0.00000000000E+00  0.70795728413E+02  0.70795728413E+02  0.00000000000E+00 0.  1.
         21   -1    0    0  501  503 -0.00000000000E+00 -0.00000000000E+00 -0.37833396412E+03  0.37833396412E+03  0.00000000000E+00 0. -1.
         24    1    1    2    0    0  0.48073257669E+02 -0.70821022601E+02 -0.18274385711E+03  0.21723072667E+03  0.80419002446E+02 0. -1.
          1    1    1    2  501    0 -0.24512892304E+02  0.71927422874E+02 -0.16704146693E+03  0.18351372626E+03  0.00000000000E+00 0. -1.
         -2    1    1    2    0  502 -0.23560365365E+02 -0.11064002730E+01  0.42247088340E+02  0.48385239597E+02  0.00000000000E+00 0.  1.
<mgrwt>
<rscale>  2 0.10851168E+03</rscale>
<asrwt>0</asrwt>
<pdfrwt beam="1">  1       21 0.10891650E-01 0.10851168E+03</pdfrwt>
<pdfrwt beam="2">  1       21 0.58205226E-01 0.10851168E+03</pdfrwt>
<totfact> 0.19761464E+05</totfact>
</mgrwt>
</event>
<event>
 5    1  0.1624116E+000  0.6824549E+02  0.7546771E-02  0.1366163E+00
         21   -1    0    0  503  502  0.00000000000E+00  0.00000000000E+00  0.55283630636E+03  0.55283630636E+03  0.00000000000E+00 0. -1.
         21   -1    0    0  501  503 -0.00000000000E+00 -0.00000000000E+00 -0.10524293773E+02  0.10524293773E+02  0.00000000000E+00 0. -1.
         24    1    1    2    0    0  0.43006510364E+02  0.11342243202E+02  0.40441939971E+03  0.41472939759E+03  0.80419002446E+02 0. -1.
          1    1    1    2  501    0 -0.19862313886E+02 -0.35911548668E+01  0.20654495586E+02  0.28879336802E+02  0.00000000000E+00 0. -1.
         -2    1    1    2    0  502 -0.23144196478E+02 -0.77510883354E+01  0.11723811729E+03  0.11975186574E+03  0.00000000000E+00 0.  1.
<mgrwt>
<rscale>  2 0.68245487E+02</rscale>
<asrwt>0</asrwt>
<pdfrwt beam="1">  1       21 0.85051717E-01 0.68245487E+02</pdfrwt>
<pdfrwt beam="2">  1       21 0.16191226E-02 0.68245487E+02</pdfrwt>
<totfact> 0.20339412E+06</totfact>
</mgrwt>
</event>
<event>
 5    1  0.1624116E+000  0.8074805E+02  0.7546771E-02  0.1326942E+00
         21   -1    0    0  501  502  0.00000000000E+00  0.00000000000E+00  0.19794988901E+03  0.19794988901E+03  0.00000000000E+00 0. -1.
         21   -1    0    0  502  503 -0.00000000000E+00 -0.00000000000E+00 -0.53751905545E+02  0.53751905545E+02  0.00000000000E+00 0.  1.
         24    1    1    2    0    0  0.44011336037E+02  0.40165889809E+02  0.11425136233E+03  0.15189103381E+03  0.80419002446E+02 0. -1.
          1    1    1    2  501    0 -0.19336149984E+02 -0.27650965672E+02  0.53649996159E+02  0.63378108892E+02  0.00000000000E+00 0. -1.
         -2    1    1    2    0  503 -0.24675186053E+02 -0.12514924137E+02 -0.23703375028E+02  0.36432651848E+02  0.00000000000E+00 0.  1.
<mgrwt>
<rscale>  2 0.80748046E+02</rscale>
<asrwt>0</asrwt>
<pdfrwt beam="1">  1       21 0.30453829E-01 0.80748046E+02</pdfrwt>
<pdfrwt beam="2">  1       21 0.82695240E-02 0.80748046E+02</pdfrwt>
<totfact> 0.11613866E+06</totfact>
</mgrwt>
</event>
<event>
 5    1  0.1624116E+000  0.7852333E+02  0.7546771E-02  0.1333295E+00
         21   -1    0    0  501  502  0.00000000000E+00  0.00000000000E+00  0.57792619171E+02  0.57792619171E+02  0.00000000000E+00 0.  1.
         21   -1    0    0  502  503 -0.00000000000E+00 -0.00000000000E+00 -0.11470769300E+03  0.11470769300E+03  0.00000000000E+00 0. -1.
         24    1    1    2    0    0  0.30753115107E+02 -0.65283325447E+01 -0.95839973365E+01  0.86876016103E+02  0.80419002446E+02 0.  1.
          1    1    1    2  501    0  0.11846513882E+02  0.22319577728E+02 -0.11498492758E+02  0.27761822289E+02  0.00000000000E+00 0. -1.
         -2    1    1    2    0  503 -0.42599628989E+02 -0.15791245183E+02 -0.35832583731E+02  0.57862473774E+02  0.00000000000E+00 0.  1.
<mgrwt>
<rscale>  2 0.78523328E+02</rscale>
<asrwt>0</asrwt>
<pdfrwt beam="1">  1       21 0.88911723E-02 0.78523328E+02</pdfrwt>
<pdfrwt beam="2">  1       21 0.17647337E-01 0.78523328E+02</pdfrwt>
<totfact> 0.28147804E+06</totfact>
</mgrwt>
</event>
<event>
 5    1  0.1624116E+000  0.8487305E+02  0.7546771E-02  0.1315765E+00
         21   -1    0    0  501  502  0.00000000000E+00  0.00000000000E+00  0.73288362650E+03  0.73288362650E+03  0.00000000000E+00 0. -1.
         21   -1    0    0  502  503 -0.00000000000E+00 -0.00000000000E+00 -0.17229280155E+02  0.17229280155E+02  0.00000000000E+00 0. -1.
         24    1    1    2    0    0  0.53093173258E+02  0.13228675320E+02  0.45967743454E+03  0.46985576795E+03  0.80419002446E+02 0. -1.
          1    1    1    2  501    0 -0.42528203697E+02 -0.30428231407E+02  0.25472055076E+03  0.26003285246E+03  0.00000000000E+00 0. -1.
         -2    1    1    2    0  503 -0.10564969560E+02  0.17199556087E+02  0.12563610505E+01  0.20224286254E+02  0.00000000000E+00 0.  1.
<mgrwt>
<rscale>  2 0.84873047E+02</rscale>
<asrwt>0</asrwt>
<pdfrwt beam="1">  1       21 0.11275130E+00 0.84873047E+02</pdfrwt>
<pdfrwt beam="2">  1       21 0.26506590E-02 0.84873047E+02</pdfrwt>
<totfact> 0.48746583E+05</totfact>
</mgrwt>
</event>
<event>
 5    1  0.1624116E+000  0.6455724E+02  0.7546771E-02  0.1379645E+00
         21   -1    0    0  501  502  0.00000000000E+00  0.00000000000E+00  0.91424143512E+01  0.91424143512E+01  0.00000000000E+00 0.  1.
         21   -1    0    0  502  503 -0.00000000000E+00 -0.00000000000E+00 -0.62463034185E+03  0.62463034185E+03  0.00000000000E+00 0. -1.
         24    1    1    2    0    0 -0.28687276476E+02  0.17046320661E+02 -0.45889263938E+03  0.46707944433E+03  0.80419002446E+02 0. -1.
          1    1    1    2  501    0  0.20692763737E+02  0.25817965331E+01 -0.21522378551E+02  0.29967798099E+02  0.00000000000E+00 0. -1.
         -2    1    1    2    0  503  0.79945127393E+01 -0.19628117194E+02 -0.13507290957E+03  0.13672551378E+03  0.00000000000E+00 0.  1.
<mgrwt>
<rscale>  2 0.64557239E+02</rscale>
<asrwt>0</asrwt>
<pdfrwt beam="1">  1       21 0.14065253E-02 0.64557239E+02</pdfrwt>
<pdfrwt beam="2">  1       21 0.96096976E-01 0.64557239E+02</pdfrwt>
<totfact> 0.19265760E+06</totfact>
</mgrwt>
</event>
<event>
 5    1  0.1624116E+000  0.1009983E+03  0.7546771E-02  0.1278211E+00
         21   -1    0    0  503  502  0.00000000000E+00  0.00000000000E+00  0.28637416096E+03  0.28637416096E+03  0.00000000000E+00 0.  1.
         21   -1    0    0  501  503 -0.00000000000E+00 -0.00000000000E+00 -0.59213375190E+02  0.59213375190E+02  0.00000000000E+00 0. -1.
         24    1    1    2    0    0 -0.14921902722E+02  0.56146826867E+01  0.39713771432E+02  0.91096583022E+02  0.80419002446E+02 0. -1.
          1    1    1    2  501    0  0.67338863659E+02 -0.43645564541E+00  0.84060267197E+01  0.67862908408E+02  0.00000000000E+00 0. -1.
         -2    1    1    2    0  502 -0.52416960937E+02 -0.51782270413E+01  0.17904098762E+03  0.18662804472E+03  0.00000000000E+00 0.  1.
<mgrwt>
<rscale>  2 0.10099828E+03</rscale>
<asrwt>0</asrwt>
<pdfrwt beam="1">  1       21 0.44057563E-01 0.10099828E+03</pdfrwt>
<pdfrwt beam="2">  1       21 0.91097502E-02 0.10099828E+03</pdfrwt>
<totfact> 0.47857137E+05</totfact>
</mgrwt>
</event>
<event>
 5    1  0.1624116E+000  0.7916798E+02  0.7546771E-02  0.1331429E+00
         21   -1    0    0  501  502  0.00000000000E+00  0.00000000000E+00  0.25428596118E+03  0.25428596118E+03  0.00000000000E+00 0. -1.
         21   -1    0    0  502  503 -0.00000000000E+00 -0.00000000000E+00 -0.40113159002E+02  0.40113159002E+02  0.00000000000E+00 0.  1.
         24    1    1    2    0    0 -0.18702495458E+02 -0.15010725752E+02  0.15285290262E+03  0.17437411224E+03  0.80419002446E+02 0. -1.
          1    1    1    2  501    0  0.35393492126E+02 -0.16276318131E+02  0.72954655063E+02  0.82704289563E+02  0.00000000000E+00 0. -1.
         -2    1    1    2    0  503 -0.16690996667E+02  0.31287043883E+02 -0.11634755509E+02  0.37320718381E+02  0.00000000000E+00 0.  1.
<mgrwt>
<rscale>  2 0.79167978E+02</rscale>
<asrwt>0</asrwt>
<pdfrwt beam="1">  1       21 0.39120916E-01 0.79167978E+02</pdfrwt>
<pdfrwt beam="2">  1       21 0.61712554E-02 0.79167978E+02</pdfrwt>
<totfact> 0.11729639E+06</totfact>
</mgrwt>
</event>
<event>
 5    1  0.1624116E+000  0.6688160E+02  0.7546771E-02  0.1371030E+00
         21   -1    0    0  503  502  0.00000000000E+00  0.00000000000E+00  0.15040003184E+03  0.15040003184E+03  0.00000000000E+00 0. -1.
         21   -1    0    0  501  503 -0.00000000000E+00 -0.00000000000E+00 -0.57294145025E+02  0.57294145025E+02  0.00000000000E+00 0.  1.
         24    1    1    2    0    0  0.19527283709E+02  0.14025252600E+02  0.26531242703E+02  0.88029229880E+02  0.80419002446E+02 0.  1.
          1    1    1    2  501    0  0.64589990349E+01 -0.21772799978E+02 -0.19179343134E+02  0.29725758031E+02  0.00000000000E+00 0. -1.
         -2    1    1    2    0  502 -0.25986282744E+02  0.77475473786E+01  0.85753987251E+02  0.89939188959E+02  0.00000000000E+00 0.  1.
<mgrwt>
<rscale>  2 0.66881596E+02</rscale>
<asrwt>0</asrwt>
<pdfrwt beam="1">  1       21 0.23138466E-01 0.66881596E+02</pdfrwt>
<pdfrwt beam="2">  1       21 0.88144839E-02 0.66881596E+02</pdfrwt>
<totfact> 0.17301666E+06</totfact>
</mgrwt>
</event>
<event>
 5    1  0.1624116E+000  0.1282740E+03  0.7546771E-02  0.1230039E+00
         21   -1    0    0  503  502  0.00000000000E+00  0.00000000000E+00  0.57456673263E+02  0.57456673263E+02  0.00000000000E+00 0. -1.
         21   -1    0    0  501  503 -0.00000000000E+00 -0.00000000000E+00 -0.33386356830E+03  0.33386356830E+03  0.00000000000E+00 0.  1.
         24    1    1    2    0    0 -0.92228158947E+01 -0.47657881354E+02 -0.40100465408E+02  0.10213519114E+03  0.80419002446E+02 0. -1.
          1    1    1    2  501    0 -0.42701067947E+02 -0.41431736170E+02 -0.11868291369E+03  0.13276145513E+03  0.00000000000E+00 0. -1.
         -2    1    1    2    0  502  0.51923883842E+02  0.89089617524E+02 -0.11762351594E+03  0.15642359529E+03  0.00000000000E+00 0.  1.
<mgrwt>
<rscale>  2 0.12827404E+03</rscale>
<asrwt>0</asrwt>
<pdfrwt beam="1">  1       21 0.88394882E-02 0.12827404E+03</pdfrwt>
<pdfrwt beam="2">  1       21 0.51363626E-01 0.12827404E+03</pdfrwt>
<totfact> 0.36750280E+05</totfact>
</mgrwt>
</event>
<event>
 5    1  0.1624116E+000  0.7284191E+02  0.7546771E-02  0.1350687E+00
         21   -1    0    0  503  502  0.00000000000E+00  0.00000000000E+00  0.22781809343E+03  0.22781809343E+03  0.00000000000E+00 0.  1.
         21   -1    0    0  501  503 -0.00000000000E+00 -0.00000000000E+00 -0.89025109172E+02  0.89025109172E+02  0.00000000000E+00 0.  1.
         24    1    1    2    0    0  0.32341639314E+02 -0.32735273711E+02  0.14185585635E+02  0.93733806989E+02  0.80419002446E+02 0.  1.
          1    1    1    2  501    0 -0.52977891591E+01  0.24048154836E+02 -0.44915700621E+02  0.51223046408E+02  0.00000000000E+00 0. -1.
         -2    1    1    2    0  502 -0.27043850155E+02  0.86871188747E+01  0.16952309925E+03  0.17188634921E+03  0.00000000000E+00 0.  1.
<mgrwt>
<rscale>  2 0.72841910E+02</rscale>
<asrwt>0</asrwt>
<pdfrwt beam="1">  1       21 0.35048937E-01 0.72841910E+02</pdfrwt>
<pdfrwt beam="2">  1       21 0.13696171E-01 0.72841910E+02</pdfrwt>
<totfact> 0.36956476E+05</totfact>
</mgrwt>
</event>
<event>
 5    1  0.1624116E+000  0.1081502E+03  0.7546771E-02  0.1264034E+00
         21   -1    0    0  501  502  0.00000000000E+00  0.00000000000E+00  0.18970016932E+03  0.18970016932E+03  0.00000000000E+00 0.  1.
         21   -1    0    0  502  503 -0.00000000000E+00 -0.00000000000E+00 -0.73602351713E+02  0.73602351713E+02  0.00000000000E+00 0.  1.
         24    1    1    2    0    0 -0.27612298975E+02  0.36608909734E+02  0.56065612341E+02  0.10822763126E+03  0.80419002446E+02 0.  1.
          1    1    1    2  501    0 -0.40158456076E+02 -0.38910147967E+02  0.66584328678E+02  0.86949261266E+02  0.00000000000E+00 0. -1.
         -2    1    1    2    0  503  0.67770755051E+02  0.23012382328E+01 -0.65521234170E+01  0.68125628503E+02  0.00000000000E+00 0.  1.
<mgrwt>
<rscale>  2 0.10815015E+03</rscale>
<asrwt>0</asrwt>
<pdfrwt beam="1">  1       21 0.29184641E-01 0.10815015E+03</pdfrwt>
<pdfrwt beam="2">  1       21 0.11323439E-01 0.10815015E+03</pdfrwt>
<totfact> 0.73460028E+05</totfact>
</mgrwt>
</event>
<event>
 5    1  0.1624116E+000  0.7988860E+02  0.7546771E-02  0.1329368E+00
         21   -1    0    0  503  502  0.00000000000E+00  0.00000000000E+00  0.19613201204E+02  0.19613201204E+02  0.00000000000E+00 0. -1.
         21   -1    0    0  501  503 -0.00000000000E+00 -0.00000000000E+00 -0.10090442825E+04  0.10090442825E+04  0.00000000000E+00 0. -1.
         24    1    1    2    0    0 -0.16637246428E+02 -0.29798153256E+02 -0.11139476000E+03  0.14156530795E+03  0.80419002446E+02 0. -1.
          1    1    1    2  501    0 -0.18661308295E+02  0.32005635462E+02 -0.80591052431E+03  0.80676166141E+03  0.00000000000E+00 0. -1.
         -2    1    1    2    0  502  0.35298554723E+02 -0.22074822056E+01 -0.72125796992E+02  0.80330514346E+02  0.00000000000E+00 0.  1.
<mgrwt>
<rscale>  2 0.79888598E+02</rscale>
<asrwt>0</asrwt>
<pdfrwt beam="1">  1       21 0.30174153E-02 0.79888598E+02</pdfrwt>
<pdfrwt beam="2">  1       21 0.15523759E+00 0.79888598E+02</pdfrwt>
<totfact> 0.18046096E+05</totfact>
</mgrwt>
</event>
<event>
 5    1  0.1624116E+000  0.8275783E+02  0.7546771E-02  0.1321402E+00
         21   -1    0    0  501  502  0.00000000000E+00  0.00000000000E+00  0.36994670943E+03  0.36994670943E+03  0.00000000000E+00 0. -1.
         21   -1    0    0  502  503 -0.00000000000E+00 -0.00000000000E+00 -0.61553548064E+02  0.61553548064E+02  0.00000000000E+00 0. -1.
         24    1    1    2    0    0  0.40367256505E+01 -0.20444807239E+02  0.32360249512E+02  0.89155409258E+02  0.80419002446E+02 0. -1.
          1    1    1    2  501    0 -0.38548549907E+02  0.27323117533E+02  0.29743004955E+03  0.30115972146E+03  0.00000000000E+00 0. -1.
         -2    1    1    2    0  503  0.34511824256E+02 -0.68783102944E+01 -0.21397137700E+02  0.41185126779E+02  0.00000000000E+00 0.  1.
<mgrwt>
<rscale>  2 0.82757828E+02</rscale>
<asrwt>0</asrwt>
<pdfrwt beam="1">  1       21 0.56914877E-01 0.82757828E+02</pdfrwt>
<pdfrwt beam="2">  1       21 0.94697768E-02 0.82757828E+02</pdfrwt>
<totfact> 0.26589241E+05</totfact>
</mgrwt>
</event>
<event>
 5    1  0.1624116E+000  0.1025275E+03  0.7546771E-02  0.1275069E+00
         21   -1    0    0  501  502  0.00000000000E+00  0.00000000000E+00  0.85233003436E+02  0.85233003436E+02  0.00000000000E+00 0. -1.
         21   -1    0    0  502  503 -0.00000000000E+00 -0.00000000000E+00 -0.36924084363E+03  0.36924084363E+03  0.00000000000E+00 0.  1.
         24    1    1    2    0    0 -0.64858467563E+02  0.57552043837E+02 -0.54396261609E+02  0.13017306863E+03  0.80419002446E+02 0.  0.
          1    1    1    2  501    0  0.48397196481E+02 -0.45078470974E+02  0.23618720355E+02  0.70229631381E+02  0.00000000000E+00 0. -1.
         -2    1    1    2    0  503  0.16461271081E+02 -0.12473572863E+02 -0.25323029894E+03  0.25407114706E+03  0.00000000000E+00 0.  1.
<mgrwt>
<rscale>  2 0.10252754E+03</rscale>
<asrwt>0</asrwt>
<pdfrwt beam="1">  1       21 0.13112770E-01 0.10252754E+03</pdfrwt>
<pdfrwt beam="2">  1       21 0.56806284E-01 0.10252754E+03</pdfrwt>
<totfact> 0.15025755E+05</totfact>
</mgrwt>
</event>
<event>
 5    1  0.1624116E+000  0.9647709E+02  0.7546771E-02  0.1287884E+00
         21   -1    0    0  503  502  0.00000000000E+00  0.00000000000E+00  0.48224234332E+03  0.48224234332E+03  0.00000000000E+00 0. -1.
         21   -1    0    0  501  503 -0.00000000000E+00 -0.00000000000E+00 -0.26371093050E+02  0.26371093050E+02  0.00000000000E+00 0. -1.
         24    1    1    2    0    0  0.56429678644E+02  0.19629610540E+02  0.20179962231E+03  0.22529965326E+03  0.80419002446E+02 0.  0.
          1    1    1    2  501    0  0.49342084038E+01 -0.30115256876E+02  0.11066658233E+02  0.32461454584E+02  0.00000000000E+00 0. -1.
         -2    1    1    2    0  502 -0.61363887048E+02  0.10485646336E+02  0.24300496973E+03  0.25085232853E+03  0.00000000000E+00 0.  1.
<mgrwt>
<rscale>  2 0.96477089E+02</rscale>
<asrwt>0</asrwt>
<pdfrwt beam="1">  1       21 0.74191123E-01 0.96477089E+02</pdfrwt>
<pdfrwt beam="2">  1       21 0.40570916E-02 0.96477089E+02</pdfrwt>
<totfact> 0.62919329E+05</totfact>
</mgrwt>
</event>
<event>
 5    1  0.1624116E+000  0.8959652E+02  0.7546771E-02  0.1303832E+00
         21   -1    0    0  501  502  0.00000000000E+00  0.00000000000E+00  0.96710275606E+02  0.96710275606E+02  0.00000000000E+00 0. -1.
         21   -1    0    0  502  503 -0.00000000000E+00 -0.00000000000E+00 -0.14390354950E+03  0.14390354950E+03  0.00000000000E+00 0. -1.
         24    1    1    2    0    0 -0.17016654215E+02 -0.20083784509E+02 -0.80491343603E+02  0.11678611763E+03  0.80419002446E+02 0. -1.
          1    1    1    2  501    0  0.52508052386E+02  0.26002759232E+02  0.56189258816E+02  0.81181721214E+02  0.00000000000E+00 0. -1.
         -2    1    1    2    0  503 -0.35491398170E+02 -0.59189747231E+01 -0.22891189110E+02  0.42645986268E+02  0.00000000000E+00 0.  1.
<mgrwt>
<rscale>  2 0.89596519E+02</rscale>
<asrwt>0</asrwt>
<pdfrwt beam="1">  1       21 0.14878504E-01 0.89596519E+02</pdfrwt>
<pdfrwt beam="2">  1       21 0.22139008E-01 0.89596519E+02</pdfrwt>
<totfact> 0.76048774E+05</totfact>
</mgrwt>
</event>
<event>
 5    1  0.1624116E+000  0.8707237E+02  0.7546771E-02  0.1310100E+00
         21   -1    0    0  501  502  0.00000000000E+00  0.00000000000E+00  0.78218092952E+03  0.78218092952E+03  0.00000000000E+00 0.  1.
         21   -1    0    0  502  503 -0.00000000000E+00 -0.00000000000E+00 -0.26851973190E+02  0.26851973190E+02  0.00000000000E+00 0. -1.
         24    1    1    2    0    0  0.23667355701E+02  0.60949731709E+02  0.66509039228E+03  0.67311771584E+03  0.80419002446E+02 0. -1.
          1    1    1    2  501    0 -0.18016596762E+02 -0.12996549014E+02  0.84404517373E+02  0.87279038710E+02  0.00000000000E+00 0. -1.
         -2    1    1    2    0  503 -0.56507589390E+01 -0.47953182695E+02  0.58340466777E+01  0.48636148159E+02  0.00000000000E+00 0.  1.
<mgrwt>
<rscale>  2 0.87072372E+02</rscale>
<asrwt>0</asrwt>
<pdfrwt beam="1">  1       21 0.12033551E+00 0.87072372E+02</pdfrwt>
<pdfrwt beam="2">  1       21 0.41310734E-02 0.87072372E+02</pdfrwt>
<totfact> 0.20236663E+05</totfact>
</mgrwt>
</event>
<event>
 5    1  0.1624116E+000  0.9141350E+02  0.7546771E-02  0.1299464E+00
         21   -1    0    0  501  502  0.00000000000E+00  0.00000000000E+00  0.48387710301E+03  0.48387710301E+03  0.00000000000E+00 0. -1.
         21   -1    0    0  502  503 -0.00000000000E+00 -0.00000000000E+00 -0.37443343792E+02  0.37443343792E+02  0.00000000000E+00 0. -1.
         24    1    1    2    0    0 -0.10819333866E+02  0.44506636133E+02  0.34190371486E+02  0.98661522905E+02  0.80419002446E+02 0.  0.
          1    1    1    2  501    0 -0.31797600003E+02 -0.50400820166E+01  0.20157515862E+03  0.20412994480E+03  0.00000000000E+00 0. -1.
         -2    1    1    2    0  503  0.42616933869E+02 -0.39466554117E+02  0.21066822912E+03  0.21852897910E+03  0.00000000000E+00 0.  1.
<mgrwt>
<rscale>  2 0.91413495E+02</rscale>
<asrwt>0</asrwt>
<pdfrwt beam="1">  1       21 0.74442627E-01 0.91413495E+02</pdfrwt>
<pdfrwt beam="2">  1       21 0.57605148E-02 0.91413495E+02</pdfrwt>
<totfact> 0.34878539E+05</totfact>
</mgrwt>
</event>
<event>
 5    1  0.1624116E+000  0.7028106E+02  0.7546771E-02  0.1359140E+00
         21   -1    0    0  501  502  0.00000000000E+00  0.00000000000E+00  0.52209589715E+02  0.52209589715E+02  0.00000000000E+00 0.  1.
         21   -1    0    0  502  503 -0.00000000000E+00 -0.00000000000E+00 -0.10621698983E+03  0.10621698983E+03  0.00000000000E+00 0.  1.
         24    1    1    2    0    0 -0.53881975178E+00  0.17946847941E+02 -0.95454342442E+01  0.82950050916E+02  0.80419002446E+02 0.  1.
          1    1    1    2  501    0  0.14855836026E+02  0.15689330731E+02 -0.60238844552E+01  0.22430741110E+02  0.00000000000E+00 0. -1.
         -2    1    1    2    0  503 -0.14317016274E+02 -0.33636178671E+02 -0.38438081412E+02  0.53045787516E+02  0.00000000000E+00 0.  1.
<mgrwt>
<rscale>  2 0.70281062E+02</rscale>
<asrwt>0</asrwt>
<pdfrwt beam="1">  1       21 0.80322445E-02 0.70281062E+02</pdfrwt>
<pdfrwt beam="2">  1       21 0.16341075E-01 0.70281062E+02</pdfrwt>
<totfact> 0.38153932E+06</totfact>
</mgrwt>
</event>
<event>
 5    1  0.1624116E+000  0.7695096E+02  0.7546771E-02  0.1337934E+00
         21   -1    0    0  503  502  0.00000000000E+00  0.00000000000E+00  0.16497481578E+03  0.16497481578E+03  0.00000000000E+00 0.  1.
         21   -1    0    0  501  503 -0.00000000000E+00 -0.00000000000E+00 -0.22641155773E+03  0.22641155773E+03  0.00000000000E+00 0. -1.
         24    1    1    2    0    0  0.40549488943E+01  0.11787044912E+02 -0.87792662060E+02  0.11970858158E+03  0.80419002446E+02 0.  1.
          1    1    1    2  501    0 -0.26316530794E+02  0.20462470193E+02 -0.11772975921E+03  0.12235836172E+03  0.00000000000E+00 0. -1.
         -2    1    1    2    0  502  0.22261581900E+02 -0.32249515105E+02  0.14408567932E+03  0.14931943021E+03  0.00000000000E+00 0.  1.
<mgrwt>
<rscale>  2 0.76950960E+02</rscale>
<asrwt>0</asrwt>
<pdfrwt beam="1">  1       21 0.25380741E-01 0.76950960E+02</pdfrwt>
<pdfrwt beam="2">  1       21 0.34832547E-01 0.76950960E+02</pdfrwt>
<totfact> 0.12229817E+05</totfact>
</mgrwt>
</event>
<event>
 5    1  0.1624116E+000  0.1163641E+03  0.7546771E-02  0.1249219E+00
         21   -1    0    0  501  502  0.00000000000E+00  0.00000000000E+00  0.12658541453E+03  0.12658541453E+03  0.00000000000E+00 0.  1.
         21   -1    0    0  502  503 -0.00000000000E+00 -0.00000000000E+00 -0.38856449970E+03  0.38856449970E+03  0.00000000000E+00 0.  1.
         24    1    1    2    0    0 -0.42543931228E+02  0.83341359737E+02 -0.67030908437E+02  0.14041412667E+03  0.80419002446E+02 0.  1.
          1    1    1    2  501    0 -0.81812165131E+01 -0.45061974665E+02  0.80193954532E+02  0.92350334097E+02  0.00000000000E+00 0. -1.
         -2    1    1    2    0  503  0.50725147741E+02 -0.38279385072E+02 -0.27514213126E+03  0.28238545346E+03  0.00000000000E+00 0.  1.
<mgrwt>
<rscale>  2 0.11636405E+03</rscale>
<asrwt>0</asrwt>
<pdfrwt beam="1">  1       21 0.19474679E-01 0.11636405E+03</pdfrwt>
<pdfrwt beam="2">  1       21 0.59779154E-01 0.11636405E+03</pdfrwt>
<totfact> 0.65678139E+04</totfact>
</mgrwt>
</event>
<event>
 5    1  0.1624116E+000  0.7802128E+02  0.7546771E-02  0.1334762E+00
         21   -1    0    0  503  502  0.00000000000E+00  0.00000000000E+00  0.27777062588E+03  0.27777062588E+03  0.00000000000E+00 0. -1.
         21   -1    0    0  501  503 -0.00000000000E+00 -0.00000000000E+00 -0.27605696354E+02  0.27605696354E+02  0.00000000000E+00 0. -1.
         24    1    1    2    0    0  0.35388211578E+01  0.51422664822E+01  0.80147538316E+02  0.11370932245E+03  0.80419002446E+02 0.  0.
          1    1    1    2  501    0 -0.38794611428E+02  0.38845339058E+01  0.36962051065E+02  0.53724339907E+02  0.00000000000E+00 0. -1.
         -2    1    1    2    0  502  0.35255790270E+02 -0.90268003879E+01  0.13305534015E+03  0.13794265988E+03  0.00000000000E+00 0.  1.
<mgrwt>
<rscale>  2 0.78021281E+02</rscale>
<asrwt>0</asrwt>
<pdfrwt beam="1">  1       21 0.42733941E-01 0.78021281E+02</pdfrwt>
<pdfrwt beam="2">  1       21 0.42470304E-02 0.78021281E+02</pdfrwt>
<totfact> 0.18309656E+06</totfact>
</mgrwt>
</event>
<event>
 5    1  0.1624116E+000  0.1078314E+03  0.7546771E-02  0.1264639E+00
         21   -1    0    0  501  502  0.00000000000E+00  0.00000000000E+00  0.18697132743E+03  0.18697132743E+03  0.00000000000E+00 0. -1.
         21   -1    0    0  502  503 -0.00000000000E+00 -0.00000000000E+00 -0.20613863976E+03  0.20613863976E+03  0.00000000000E+00 0.  1.
         24    1    1    2    0    0  0.34924588390E+02  0.34296324351E+02  0.17584214446E+02  0.95772570657E+02  0.80419002446E+02 0.  0.
          1    1    1    2  501    0 -0.81629313867E+01  0.40897533264E+02  0.11694176049E+03  0.12415561615E+03  0.00000000000E+00 0. -1.
         -2    1    1    2    0  503 -0.26761657003E+02 -0.75193857614E+02 -0.15369328726E+03  0.17318178038E+03  0.00000000000E+00 0.  1.
<mgrwt>
<rscale>  2 0.10783143E+03</rscale>
<asrwt>0</asrwt>
<pdfrwt beam="1">  1       21 0.28764820E-01 0.10783143E+03</pdfrwt>
<pdfrwt beam="2">  1       21 0.31713637E-01 0.10783143E+03</pdfrwt>
<totfact> 0.11411825E+05</totfact>
</mgrwt>
</event>
<event>
 5    1  0.1624116E+000  0.8343066E+02  0.7546771E-02  0.1319588E+00
         21   -1    0    0  501  502  0.00000000000E+00  0.00000000000E+00  0.11954098760E+03  0.11954098760E+03  0.00000000000E+00 0. -1.
         21   -1    0    0  502  503 -0.00000000000E+00 -0.00000000000E+00 -0.11732822385E+03  0.11732822385E+03  0.00000000000E+00 0.  1.
         24    1    1    2    0    0 -0.25693983558E+02  0.21777645012E+02 -0.57042409118E+01  0.87373914483E+02  0.80419002446E+02 0.  1.
          1    1    1    2  501    0 -0.25326766768E+02 -0.39778754100E+01  0.65614357129E+02  0.70445102520E+02  0.00000000000E+00 0. -1.
         -2    1    1    2    0  503  0.51020750326E+02 -0.17799769602E+02 -0.57697352465E+02  0.79050194454E+02  0.00000000000E+00 0.  1.
<mgrwt>
<rscale>  2 0.83430657E+02</rscale>
<asrwt>0</asrwt>
<pdfrwt beam="1">  1       21 0.18390921E-01 0.83430657E+02</pdfrwt>
<pdfrwt beam="2">  1       21 0.18050496E-01 0.83430657E+02</pdfrwt>
<totfact> 0.75392523E+05</totfact>
</mgrwt>
</event>
<event>
 5    1  0.1624116E+000  0.1052885E+03  0.7546771E-02  0.1269552E+00
         21   -1    0    0  503  502  0.00000000000E+00  0.00000000000E+00  0.29396745041E+02  0.29396745041E+02  0.00000000000E+00 0. -1.
         21   -1    0    0  501  503 -0.00000000000E+00 -0.00000000000E+00 -0.14919138945E+04  0.14919138945E+04  0.00000000000E+00 0. -1.
         24    1    1    2    0    0 -0.60045790595E+02  0.49958481373E+02 -0.81917710788E+03  0.82681297575E+03  0.80419002446E+02 0. -1.
          1    1    1    2  501    0  0.69663174684E+02 -0.29096600681E+02 -0.66114003704E+03  0.66543648732E+03  0.00000000000E+00 0. -1.
         -2    1    1    2    0  502 -0.96173840893E+01 -0.20861880692E+02  0.17799995430E+02  0.29061176508E+02  0.00000000000E+00 0.  1.
<mgrwt>
<rscale>  2 0.10528854E+03</rscale>
<asrwt>0</asrwt>
<pdfrwt beam="1">  1       21 0.45225778E-02 0.10528854E+03</pdfrwt>
<pdfrwt beam="2">  1       21 0.22952513E+00 0.10528854E+03</pdfrwt>
<totfact> 0.30486520E+04</totfact>
</mgrwt>
</event>
<event>
 5    1  0.1624116E+000  0.9480861E+02  0.7546771E-02  0.1291608E+00
         21   -1    0    0  503  502  0.00000000000E+00  0.00000000000E+00  0.62338886582E+03  0.62338886582E+03  0.00000000000E+00 0. -1.
         21   -1    0    0  501  503 -0.00000000000E+00 -0.00000000000E+00 -0.21241397218E+02  0.21241397218E+02  0.00000000000E+00 0. -1.
         24    1    1    2    0    0 -0.56756114903E+02 -0.52831982338E+02  0.50016097740E+03  0.51248482339E+03  0.80419002446E+02 0. -1.
          1    1    1    2  501    0  0.23309893478E+02  0.26820286813E+02  0.22463748963E+02  0.42039254705E+02  0.00000000000E+00 0. -1.
         -2    1    1    2    0  502  0.33446221424E+02  0.26011695525E+02  0.79522742241E+02  0.90106184944E+02  0.00000000000E+00 0.  1.
<mgrwt>
<rscale>  2 0.94808608E+02</rscale>
<asrwt>0</asrwt>
<pdfrwt beam="1">  1       21 0.95905966E-01 0.94808608E+02</pdfrwt>
<pdfrwt beam="2">  1       21 0.32679077E-02 0.94808608E+02</pdfrwt>
<totfact> 0.50545063E+05</totfact>
</mgrwt>
</event>
<event>
 5    1  0.1624116E+000  0.8459475E+02  0.7546771E-02  0.1316496E+00
         21   -1    0    0  501  502  0.00000000000E+00  0.00000000000E+00  0.14946688013E+03  0.14946688013E+03  0.00000000000E+00 0. -1.
         21   -1    0    0  502  503 -0.00000000000E+00 -0.00000000000E+00 -0.13822373228E+03  0.13822373228E+03  0.00000000000E+00 0.  1.
         24    1    1    2    0    0  0.84635339786E+01 -0.23706316621E+01  0.20524529234E+01  0.80923913766E+02  0.80419002446E+02 0. -1.
          1    1    1    2  501    0 -0.46354037473E+02  0.14397003358E+02  0.98057712405E+02  0.10941336965E+03  0.00000000000E+00 0. -1.
         -2    1    1    2    0  503  0.37890503495E+02 -0.12026371696E+02 -0.88867017481E+02  0.97353328999E+02  0.00000000000E+00 0.  1.
<mgrwt>
<rscale>  2 0.84594755E+02</rscale>
<asrwt>0</asrwt>
<pdfrwt beam="1">  1       21 0.22994905E-01 0.84594755E+02</pdfrwt>
<pdfrwt beam="2">  1       21 0.21265190E-01 0.84594755E+02</pdfrwt>
<totfact> 0.37138068E+05</totfact>
</mgrwt>
</event>
<event>
 5    1  0.1624116E+000  0.9743707E+02  0.7546771E-02  0.1285780E+00
         21   -1    0    0  501  502  0.00000000000E+00  0.00000000000E+00  0.55233279551E+02  0.55233279551E+02  0.00000000000E+00 0.  1.
         21   -1    0    0  502  503 -0.00000000000E+00 -0.00000000000E+00 -0.24050213873E+03  0.24050213873E+03  0.00000000000E+00 0. -1.
         24    1    1    2    0    0 -0.49104056773E+02 -0.17864641977E+02 -0.76343758894E+02  0.12258033815E+03  0.80419002446E+02 0.  1.
          1    1    1    2  501    0  0.72383938530E+02  0.21265837330E+02 -0.15768450133E+02  0.77073435203E+02  0.00000000000E+00 0. -1.
         -2    1    1    2    0  503 -0.23279881757E+02 -0.34011953534E+01 -0.93156650154E+02  0.96081644930E+02  0.00000000000E+00 0.  1.
<mgrwt>
<rscale>  2 0.97437074E+02</rscale>
<asrwt>0</asrwt>
<pdfrwt beam="1">  1       21 0.84974275E-02 0.97437074E+02</pdfrwt>
<pdfrwt beam="2">  1       21 0.37000330E-01 0.97437074E+02</pdfrwt>
<totfact> 0.76318171E+05</totfact>
</mgrwt>
</event>
<event>
 5    1  0.1624116E+000  0.1281183E+03  0.7546771E-02  0.1230275E+00
         21   -1    0    0  501  502  0.00000000000E+00  0.00000000000E+00  0.10245290099E+03  0.10245290099E+03  0.00000000000E+00 0. -1.
         21   -1    0    0  502  503 -0.00000000000E+00 -0.00000000000E+00 -0.51466321005E+03  0.51466321005E+03  0.00000000000E+00 0. -1.
         24    1    1    2    0    0 -0.21560939649E+02 -0.82905449668E+02 -0.33467252013E+03  0.35469860358E+03  0.80419002446E+02 0. -1.
          1    1    1    2  501    0  0.20833139250E+02  0.10983873580E+03  0.56804096898E+02  0.12540045055E+03  0.00000000000E+00 0. -1.
         -2    1    1    2    0  503  0.72780039927E+00 -0.26933286134E+02 -0.13434188583E+03  0.13701705691E+03  0.00000000000E+00 0.  1.
<mgrwt>
<rscale>  2 0.12811825E+03</rscale>
<asrwt>0</asrwt>
<pdfrwt beam="1">  1       21 0.15761985E-01 0.12811825E+03</pdfrwt>
<pdfrwt beam="2">  1       21 0.79178955E-01 0.12811825E+03</pdfrwt>
<totfact> 0.52133753E+04</totfact>
</mgrwt>
</event>
<event>
 5    1  0.1624116E+000  0.8012792E+02  0.7546771E-02  0.1328689E+00
         21   -1    0    0  501  502  0.00000000000E+00  0.00000000000E+00  0.37470349315E+02  0.37470349315E+02  0.00000000000E+00 0. -1.
         21   -1    0    0  502  503 -0.00000000000E+00 -0.00000000000E+00 -0.27725924031E+03  0.27725924031E+03  0.00000000000E+00 0. -1.
         24    1    1    2    0    0 -0.54069883088E+02  0.14610022069E+02 -0.19505717922E+03  0.21829229057E+03  0.80419002446E+02 0. -1.
          1    1    1    2  501    0  0.18856935545E+02 -0.19000102760E+02  0.12147558291E+02  0.29396446987E+02  0.00000000000E+00 0. -1.
         -2    1    1    2    0  503  0.35212947543E+02  0.43900806907E+01 -0.56879270071E+02  0.67040852075E+02  0.00000000000E+00 0.  1.
<mgrwt>
<rscale>  2 0.80127920E+02</rscale>
<asrwt>0</asrwt>
<pdfrwt beam="1">  1       21 0.57646689E-02 0.80127920E+02</pdfrwt>
<pdfrwt beam="2">  1       21 0.42655269E-01 0.80127920E+02</pdfrwt>
<totfact> 0.11083534E+06</totfact>
</mgrwt>
</event>
<event>
 5    1  0.1624116E+000  0.6664871E+02  0.7546771E-02  0.1371875E+00
         21   -1    0    0  501  502  0.00000000000E+00  0.00000000000E+00  0.48359783178E+02  0.48359783178E+02  0.00000000000E+00 0.  1.
         21   -1    0    0  502  503 -0.00000000000E+00 -0.00000000000E+00 -0.10651834088E+03  0.10651834088E+03  0.00000000000E+00 0. -1.
         24    1    1    2    0    0  0.62942288437E+01  0.60725529496E+01 -0.13646664258E+02  0.82036215270E+02  0.80419002446E+02 0.  1.
          1    1    1    2  501    0 -0.54164535482E+01 -0.28979055853E+02 -0.94632804184E+01  0.30962514811E+02  0.00000000000E+00 0. -1.
         -2    1    1    2    0  503 -0.87777529546E+00  0.22906502903E+02 -0.35048613024E+02  0.41879393974E+02  0.00000000000E+00 0.  1.
<mgrwt>
<rscale>  2 0.66648707E+02</rscale>
<asrwt>0</asrwt>
<pdfrwt beam="1">  1       21 0.74399668E-02 0.66648707E+02</pdfrwt>
<pdfrwt beam="2">  1       21 0.16387437E-01 0.66648707E+02</pdfrwt>
<totfact> 0.43047667E+06</totfact>
</mgrwt>
</event>
<event>
 5    1  0.1624116E+000  0.6645749E+02  0.7546771E-02  0.1372571E+00
         21   -1    0    0  501  502  0.00000000000E+00  0.00000000000E+00  0.47134136814E+02  0.47134136814E+02  0.00000000000E+00 0. -1.
         21   -1    0    0  502  503 -0.00000000000E+00 -0.00000000000E+00 -0.14525417146E+03  0.14525417146E+03  0.00000000000E+00 0.  1.
         24    1    1    2    0    0 -0.57821810845E+01  0.31166084648E+02 -0.11416728897E+03  0.14319966576E+03  0.80419002446E+02 0.  1.
          1    1    1    2  501    0  0.20074859805E+02 -0.16378899528E+02  0.81766809156E+01  0.27168482783E+02  0.00000000000E+00 0. -1.
         -2    1    1    2    0  503 -0.14292678720E+02 -0.14787185120E+02  0.78705734037E+01  0.22020159729E+02  0.00000000000E+00 0.  1.
<mgrwt>
<rscale>  2 0.66457486E+02</rscale>
<asrwt>0</asrwt>
<pdfrwt beam="1">  1       21 0.72514058E-02 0.66457486E+02</pdfrwt>
<pdfrwt beam="2">  1       21 0.22346795E-01 0.66457486E+02</pdfrwt>
<totfact> 0.25660023E+06</totfact>
</mgrwt>
</event>
<event>
 5    1  0.1624116E+000  0.8223694E+02  0.7546771E-02  0.1322821E+00
         21   -1    0    0  501  502  0.00000000000E+00  0.00000000000E+00  0.80634766624E+02  0.80634766624E+02  0.00000000000E+00 0.  1.
         21   -1    0    0  502  503 -0.00000000000E+00 -0.00000000000E+00 -0.14395190143E+03  0.14395190143E+03  0.00000000000E+00 0.  1.
         24    1    1    2    0    0  0.59679529314E+02 -0.15340833965E+02  0.18090094448E+01  0.10132855410E+03  0.80419002446E+02 0.  1.
          1    1    1    2  501    0 -0.39184109405E+02  0.31407851380E+01  0.13132503229E+02  0.41445405079E+02  0.00000000000E+00 0. -1.
         -2    1    1    2    0  503 -0.20495419909E+02  0.12200048827E+02 -0.78258647483E+02  0.81812708882E+02  0.00000000000E+00 0.  1.
<mgrwt>
<rscale>  2 0.82236942E+02</rscale>
<asrwt>0</asrwt>
<pdfrwt beam="1">  1       21 0.12405349E-01 0.82236942E+02</pdfrwt>
<pdfrwt beam="2">  1       21 0.22146446E-01 0.82236942E+02</pdfrwt>
<totfact> 0.10465884E+06</totfact>
</mgrwt>
</event>
<event>
 5    1  0.1624116E+000  0.8850730E+02  0.7546771E-02  0.1306507E+00
         21   -1    0    0  503  502  0.00000000000E+00  0.00000000000E+00  0.13409856360E+03  0.13409856360E+03  0.00000000000E+00 0.  1.
         21   -1    0    0  501  503 -0.00000000000E+00 -0.00000000000E+00 -0.16126801736E+03  0.16126801736E+03  0.00000000000E+00 0.  1.
         24    1    1    2    0    0 -0.56471430415E+02  0.41515505624E+02 -0.81662796199E+02  0.13434503302E+03  0.80419002446E+02 0.  1.
          1    1    1    2  501    0  0.24962644414E+02 -0.14739970823E+02 -0.44857467996E+02  0.53409669453E+02  0.00000000000E+00 0. -1.
         -2    1    1    2    0  502  0.31508786000E+02 -0.26775534801E+02  0.99350810430E+02  0.10761187849E+03  0.00000000000E+00 0.  1.
<mgrwt>
<rscale>  2 0.88507303E+02</rscale>
<asrwt>0</asrwt>
<pdfrwt beam="1">  1       21 0.20630548E-01 0.88507303E+02</pdfrwt>
<pdfrwt beam="2">  1       21 0.24810464E-01 0.88507303E+02</pdfrwt>
<totfact> 0.34075265E+05</totfact>
</mgrwt>
</event>
<event>
 5    1  0.1624116E+000  0.7241125E+02  0.7546771E-02  0.1352080E+00
         21   -1    0    0  503  502  0.00000000000E+00  0.00000000000E+00  0.15040217293E+03  0.15040217293E+03  0.00000000000E+00 0.  1.
         21   -1    0    0  501  503 -0.00000000000E+00 -0.00000000000E+00 -0.83852932579E+02  0.83852932579E+02  0.00000000000E+00 0. -1.
         24    1    1    2    0    0 -0.38515368894E+02  0.26720202832E+02  0.27918531531E+02  0.97180570268E+02  0.80419002446E+02 0.  1.
          1    1    1    2  501    0  0.24958965926E+02 -0.39944179379E+01 -0.43761677241E+02  0.50537013660E+02  0.00000000000E+00 0. -1.
         -2    1    1    2    0  502  0.13556402968E+02 -0.22725784894E+02  0.82392386062E+02  0.86537521581E+02  0.00000000000E+00 0.  1.
<mgrwt>
<rscale>  2 0.72411255E+02</rscale>
<asrwt>0</asrwt>
<pdfrwt beam="1">  1       21 0.23138796E-01 0.72411255E+02</pdfrwt>
<pdfrwt beam="2">  1       21 0.12900451E-01 0.72411255E+02</pdfrwt>
<totfact> 0.89860143E+05</totfact>
</mgrwt>
</event>
<event>
 5    1  0.1624116E+000  0.7024944E+02  0.7546771E-02  0.1359247E+00
         21   -1    0    0  501  502  0.00000000000E+00  0.00000000000E+00  0.51339420045E+02  0.51339420045E+02  0.00000000000E+00 0.  1.
         21   -1    0    0  502  503 -0.00000000000E+00 -0.00000000000E+00 -0.12728808593E+03  0.12728808593E+03  0.00000000000E+00 0. -1.
         24    1    1    2    0    0 -0.20765035123E+02 -0.79297726867E+01 -0.97223363017E+00  0.83439973461E+02  0.80419002446E+02 0.  1.
          1    1    1    2  501    0  0.14734852530E+02 -0.22030244127E+02 -0.24017259087E+02  0.35766971768E+02  0.00000000000E+00 0. -1.
         -2    1    1    2    0  503  0.60301825931E+01  0.29960016814E+02 -0.50959173168E+02  0.59420560747E+02  0.00000000000E+00 0.  1.
<mgrwt>
<rscale>  2 0.70249444E+02</rscale>
<asrwt>0</asrwt>
<pdfrwt beam="1">  1       21 0.78983723E-02 0.70249444E+02</pdfrwt>
<pdfrwt beam="2">  1       21 0.19582782E-01 0.70249444E+02</pdfrwt>
<totfact> 0.28349495E+06</totfact>
</mgrwt>
</event>
<event>
 5    1  0.1624116E+000  0.1454971E+03  0.7546771E-02  0.1206118E+00
         21   -1    0    0  503  502  0.00000000000E+00  0.00000000000E+00  0.45611694269E+03  0.45611694269E+03  0.00000000000E+00 0.  1.
         21   -1    0    0  501  503 -0.00000000000E+00 -0.00000000000E+00 -0.65083744547E+02  0.65083744547E+02  0.00000000000E+00 0.  1.
         24    1    1    2    0    0  0.86296693188E+02  0.10297570384E+03  0.83032189147E+02  0.17723621307E+03  0.80419002446E+02 0.  1.
          1    1    1    2  501    0 -0.13474991051E+02 -0.18354886386E+02  0.84528777208E+01  0.24288441281E+02  0.00000000000E+00 0. -1.
         -2    1    1    2    0  502 -0.72821702137E+02 -0.84620817452E+02  0.29954813128E+03  0.31967603289E+03  0.00000000000E+00 0.  1.
<mgrwt>
<rscale>  2 0.14549713E+03</rscale>
<asrwt>0</asrwt>
<pdfrwt beam="1">  1       21 0.70171835E-01 0.14549713E+03</pdfrwt>
<pdfrwt beam="2">  1       21 0.10012884E-01 0.14549713E+03</pdfrwt>
<totfact> 0.15158475E+05</totfact>
</mgrwt>
</event>
<event>
 5    1  0.1624116E+000  0.9263428E+02  0.7546771E-02  0.1296595E+00
         21   -1    0    0  501  502  0.00000000000E+00  0.00000000000E+00  0.34209048418E+03  0.34209048418E+03  0.00000000000E+00 0. -1.
         21   -1    0    0  502  503 -0.00000000000E+00 -0.00000000000E+00 -0.63760880455E+02  0.63760880455E+02  0.00000000000E+00 0.  1.
         24    1    1    2    0    0 -0.27059626462E+01  0.44936925190E+02  0.13211462688E+03  0.16108426387E+03  0.80419002446E+02 0. -1.
          1    1    1    2  501    0 -0.39387302162E+02 -0.19884345101E+02  0.17995637034E+03  0.18528637828E+03  0.00000000000E+00 0. -1.
         -2    1    1    2    0  503  0.42093264808E+02 -0.25052580089E+02 -0.33741393492E+02  0.59480722475E+02  0.00000000000E+00 0.  1.
<mgrwt>
<rscale>  2 0.92634278E+02</rscale>
<asrwt>0</asrwt>
<pdfrwt beam="1">  1       21 0.52629304E-01 0.92634278E+02</pdfrwt>
<pdfrwt beam="2">  1       21 0.98093665E-02 0.92634278E+02</pdfrwt>
<totfact> 0.29357458E+05</totfact>
</mgrwt>
</event>
<event>
 5    1  0.1624116E+000  0.7819595E+02  0.7546771E-02  0.1334250E+00
         21   -1    0    0  501  502  0.00000000000E+00  0.00000000000E+00  0.10384328711E+03  0.10384328711E+03  0.00000000000E+00 0. -1.
         21   -1    0    0  502  503 -0.00000000000E+00 -0.00000000000E+00 -0.13808314374E+03  0.13808314374E+03  0.00000000000E+00 0.  1.
         24    1    1    2    0    0  0.47718738898E+01  0.13048237772E+02  0.72005418355E+02  0.10883484514E+03  0.80419002446E+02 0. -1.
          1    1    1    2  501    0 -0.47535725626E+00  0.30759744004E+02 -0.21296558281E+02  0.37415654616E+02  0.00000000000E+00 0. -1.
         -2    1    1    2    0  503 -0.42965166335E+01 -0.43807981776E+02 -0.84948716704E+02  0.95675931101E+02  0.00000000000E+00 0.  1.
<mgrwt>
<rscale>  2 0.78195950E+02</rscale>
<asrwt>0</asrwt>
<pdfrwt beam="1">  1       21 0.15975890E-01 0.78195950E+02</pdfrwt>
<pdfrwt beam="2">  1       21 0.21243560E-01 0.78195950E+02</pdfrwt>
<totfact> 0.72130332E+05</totfact>
</mgrwt>
</event>
<event>
 5    1  0.1624116E+000  0.1247091E+03  0.7546771E-02  0.1235525E+00
         21   -1    0    0  503  502  0.00000000000E+00  0.00000000000E+00  0.22827743760E+03  0.22827743760E+03  0.00000000000E+00 0.  1.
         21   -1    0    0  501  503 -0.00000000000E+00 -0.00000000000E+00 -0.13736442751E+03  0.13736442751E+03  0.00000000000E+00 0. -1.
         24    1    1    2    0    0  0.10686456879E+02  0.53975871752E+02  0.65023734363E+02  0.11714476974E+03  0.80419002446E+02 0.  1.
          1    1    1    2  501    0 -0.44714093448E+02  0.34956693605E+02 -0.85080419755E+02  0.10227413361E+03  0.00000000000E+00 0. -1.
         -2    1    1    2    0  502  0.34027636569E+02 -0.88932565357E+02  0.11096969548E+03  0.14622296176E+03  0.00000000000E+00 0.  1.
<mgrwt>
<rscale>  2 0.12470909E+03</rscale>
<asrwt>0</asrwt>
<pdfrwt beam="1">  1       21 0.35119606E-01 0.12470909E+03</pdfrwt>
<pdfrwt beam="2">  1       21 0.21132989E-01 0.12470909E+03</pdfrwt>
<totfact> 0.16612360E+05</totfact>
</mgrwt>
</event>
<event>
 5    1  0.1624116E+000  0.1097129E+03  0.7546771E-02  0.1261103E+00
         21   -1    0    0  501  502  0.00000000000E+00  0.00000000000E+00  0.34370560607E+02  0.34370560607E+02  0.00000000000E+00 0.  1.
         21   -1    0    0  502  503 -0.00000000000E+00 -0.00000000000E+00 -0.49792287721E+03  0.49792287721E+03  0.00000000000E+00 0. -1.
         24    1    1    2    0    0  0.35884781417E+02  0.59175824667E+02 -0.12820978716E+03  0.16641652935E+03  0.80419002446E+02 0.  1.
          1    1    1    2  501    0 -0.65594932471E+02 -0.49171245561E+02 -0.10402687184E+03  0.13244658026E+03  0.00000000000E+00 0. -1.
         -2    1    1    2    0  503  0.29710151054E+02 -0.10004579106E+02 -0.23131565760E+03  0.23343032822E+03  0.00000000000E+00 0.  1.
<mgrwt>
<rscale>  2 0.10971287E+03</rscale>
<asrwt>0</asrwt>
<pdfrwt beam="1">  1       21 0.52877789E-02 0.10971287E+03</pdfrwt>
<pdfrwt beam="2">  1       21 0.76603514E-01 0.10971287E+03</pdfrwt>
<totfact> 0.37698231E+05</totfact>
</mgrwt>
</event>
<event>
 5    1  0.1624116E+000  0.7153372E+02  0.7546771E-02  0.1354954E+00
         21   -1    0    0  501  502  0.00000000000E+00  0.00000000000E+00  0.59505197826E+03  0.59505197826E+03  0.00000000000E+00 0.  1.
         21   -1    0    0  502  503 -0.00000000000E+00 -0.00000000000E+00 -0.36329350814E+02  0.36329350814E+02  0.00000000000E+00 0. -1.
         24    1    1    2    0    0 -0.22459004124E+02 -0.13433345080E+02  0.17666377202E+02  0.86395477105E+02  0.80419002446E+02 0. -1.
          1    1    1    2  501    0  0.59974554414E+01 -0.20189339353E+02  0.32724093411E+03  0.32791798952E+03  0.00000000000E+00 0. -1.
         -2    1    1    2    0  503  0.16461548683E+02  0.33622684434E+02  0.21381531614E+03  0.21706786245E+03  0.00000000000E+00 0.  1.
<mgrwt>
<rscale>  2 0.71533724E+02</rscale>
<asrwt>0</asrwt>
<pdfrwt beam="1">  1       21 0.91546451E-01 0.71533724E+02</pdfrwt>
<pdfrwt beam="2">  1       21 0.55891313E-02 0.71533724E+02</pdfrwt>
<totfact> 0.23309702E+05</totfact>
</mgrwt>
</event>
<event>
 5    1  0.1624116E+000  0.7080544E+02  0.7546771E-02  0.1357375E+00
         21   -1    0    0  503  502  0.00000000000E+00  0.00000000000E+00  0.29114055960E+03  0.29114055960E+03  0.00000000000E+00 0.  1.
         21   -1    0    0  501  503 -0.00000000000E+00 -0.00000000000E+00 -0.17577765313E+02  0.17577765313E+02  0.00000000000E+00 0. -1.
         24    1    1    2    0    0  0.18550920368E+01 -0.19621687294E+02  0.17956584755E+03  0.19773609064E+03  0.80419002446E+02 0.  1.
          1    1    1    2  501    0  0.10085433965E+02 -0.17290252068E+02  0.36346295686E+02  0.41493638126E+02  0.00000000000E+00 0. -1.
         -2    1    1    2    0  502 -0.11940526002E+02  0.36911939362E+02  0.57650651047E+02  0.69488596149E+02  0.00000000000E+00 0.  1.
<mgrwt>
<rscale>  2 0.70805436E+02</rscale>
<asrwt>0</asrwt>
<pdfrwt beam="1">  1       21 0.44790852E-01 0.70805436E+02</pdfrwt>
<pdfrwt beam="2">  1       21 0.27042718E-02 0.70805436E+02</pdfrwt>
<totfact> 0.34563752E+06</totfact>
</mgrwt>
</event>
<event>
 5    1  0.1624116E+000  0.7203503E+02  0.7546771E-02  0.1353306E+00
         21   -1    0    0  501  502  0.00000000000E+00  0.00000000000E+00  0.20177524838E+04  0.20177524838E+04  0.00000000000E+00 0.  1.
         21   -1    0    0  502  503 -0.00000000000E+00 -0.00000000000E+00 -0.39005471353E+01  0.39005471353E+01  0.00000000000E+00 0. -1.
         24    1    1    2    0    0 -0.36872581982E+02 -0.98195609332E+00  0.83177465532E+03  0.83646688203E+03  0.80419002446E+02 0. -1.
          1    1    1    2  501    0  0.94267133062E+01  0.20063796385E+02  0.98817613002E+03  0.98842474817E+03  0.00000000000E+00 0. -1.
         -2    1    1    2    0  503  0.27445868676E+02 -0.19081840291E+02  0.19390115127E+03  0.19676140069E+03  0.00000000000E+00 0.  1.
<mgrwt>
<rscale>  2 0.72035030E+02</rscale>
<asrwt>0</asrwt>
<pdfrwt beam="1">  1       21 0.31042263E+00 0.72035030E+02</pdfrwt>
<pdfrwt beam="2">  1       21 0.60008579E-03 0.72035030E+02</pdfrwt>
<totfact> 0.28318611E+05</totfact>
</mgrwt>
</event>
<event>
 5    1  0.1624116E+000  0.1451216E+03  0.7546771E-02  0.1206599E+00
         21   -1    0    0  503  502  0.00000000000E+00  0.00000000000E+00  0.77595428620E+02  0.77595428620E+02  0.00000000000E+00 0.  1.
         21   -1    0    0  501  503 -0.00000000000E+00 -0.00000000000E+00 -0.54009684315E+03  0.54009684315E+03  0.00000000000E+00 0. -1.
         24    1    1    2    0    0 -0.81017547982E+02 -0.24876045063E+02 -0.29965690720E+03  0.32162732889E+03  0.80419002446E+02 0.  0.
          1    1    1    2  501    0  0.12043822412E+03  0.45712881052E+02 -0.20008599169E+03  0.23796940433E+03  0.00000000000E+00 0. -1.
         -2    1    1    2    0  502 -0.39420676141E+02 -0.20836835988E+02  0.37241484370E+02  0.58095538550E+02  0.00000000000E+00 0.  1.
<mgrwt>
<rscale>  2 0.14512161E+03</rscale>
<asrwt>0</asrwt>
<pdfrwt beam="1">  1       21 0.11937759E-01 0.14512161E+03</pdfrwt>
<pdfrwt beam="2">  1       21 0.83091820E-01 0.14512161E+03</pdfrwt>
<totfact> 0.76342654E+04</totfact>
</mgrwt>
</event>
<event>
 5    1  0.1624116E+000  0.9778863E+02  0.7546771E-02  0.1285016E+00
         21   -1    0    0  503  502  0.00000000000E+00  0.00000000000E+00  0.59662416181E+02  0.59662416181E+02  0.00000000000E+00 0. -1.
         21   -1    0    0  501  503 -0.00000000000E+00 -0.00000000000E+00 -0.27862178324E+03  0.27862178324E+03  0.00000000000E+00 0. -1.
         24    1    1    2    0    0  0.77930217916E+02  0.63468128395E+01 -0.15504196210E+03  0.19135994059E+03  0.80419002446E+02 0. -1.
          1    1    1    2  501    0 -0.27697010908E+02 -0.16394806404E+02 -0.85483260782E+02  0.91341677038E+02  0.00000000000E+00 0. -1.
         -2    1    1    2    0  502 -0.50233207009E+02  0.10047993565E+02  0.21565855823E+02  0.55582581790E+02  0.00000000000E+00 0.  1.
<mgrwt>
<rscale>  2 0.97788627E+02</rscale>
<asrwt>0</asrwt>
<pdfrwt beam="1">  1       21 0.91788334E-02 0.97788627E+02</pdfrwt>
<pdfrwt beam="2">  1       21 0.42864889E-01 0.97788627E+02</pdfrwt>
<totfact> 0.49920278E+05</totfact>
</mgrwt>
</event>
<event>
 5    1  0.1624116E+000  0.7224575E+02  0.7546771E-02  0.1352619E+00
         21   -1    0    0  503  502  0.00000000000E+00  0.00000000000E+00  0.83139022298E+03  0.83139022298E+03  0.00000000000E+00 0. -1.
         21   -1    0    0  501  503 -0.00000000000E+00 -0.00000000000E+00 -0.76621914461E+01  0.76621914461E+01  0.00000000000E+00 0.  1.
         24    1    1    2    0    0  0.27858104497E+02  0.36057060029E+01  0.39739048774E+03  0.40641787707E+03  0.80419002446E+02 0.  1.
          1    1    1    2  501    0 -0.28024868774E+02 -0.25214419254E+02  0.12595103175E+03  0.13147175593E+03  0.00000000000E+00 0. -1.
         -2    1    1    2    0  502  0.16676427663E+00  0.21608713251E+02  0.30038651205E+03  0.30116278143E+03  0.00000000000E+00 0.  1.
<mgrwt>
<rscale>  2 0.72245751E+02</rscale>
<asrwt>0</asrwt>
<pdfrwt beam="1">  1       21 0.12790612E+00 0.72245751E+02</pdfrwt>
<pdfrwt beam="2">  1       21 0.11787993E-02 0.72245751E+02</pdfrwt>
<totfact> 0.13042473E+06</totfact>
</mgrwt>
</event>
<event>
 5    1  0.2097760E+000  0.1612702E+03  0.7546771E-02  0.1187270E+00
         21   -1    0    0  501  502  0.00000000000E+00  0.00000000000E+00  0.30717529754E+03  0.30717529754E+03  0.00000000000E+00 0. -1.
         21   -1    0    0  502  503 -0.00000000000E+00 -0.00000000000E+00 -0.25576265603E+03  0.25576265603E+03  0.00000000000E+00 0.  1.
         24    1    1    2    0    0 -0.68578120752E+02  0.29884200605E+02  0.20999892064E+02  0.11182233906E+03  0.80419002446E+02 0. -1.
          1    1    1    2  501    0  0.15021814145E+02 -0.11291110669E+03  0.21411575051E+03  0.24252861177E+03  0.00000000000E+00 0. -1.
         -2    1    1    2    0  503  0.53556306607E+02  0.83026906084E+02 -0.18370300106E+03  0.20858700273E+03  0.00000000000E+00 0.  1.
<mgrwt>
<rscale>  2 0.16127015E+03</rscale>
<asrwt>0</asrwt>
<pdfrwt beam="1">  1       21 0.47257738E-01 0.16127015E+03</pdfrwt>
<pdfrwt beam="2">  1       21 0.39348101E-01 0.16127015E+03</pdfrwt>
<totfact> 0.27165154E+04</totfact>
</mgrwt>
</event>
<event>
 5    1  0.1624116E+000  0.9912268E+02  0.7546771E-02  0.1282152E+00
         21   -1    0    0  501  502  0.00000000000E+00  0.00000000000E+00  0.92552679718E+02  0.92552679718E+02  0.00000000000E+00 0. -1.
         21   -1    0    0  502  503 -0.00000000000E+00 -0.00000000000E+00 -0.10907463775E+03  0.10907463775E+03  0.00000000000E+00 0.  1.
         24    1    1    2    0    0  0.26330475160E+02 -0.11816128158E+02  0.85869272364E+01  0.85871217998E+02  0.80419002446E+02 0. -1.
          1    1    1    2  501    0 -0.60425534366E+02  0.36607099812E+02 -0.19007982478E+02  0.73161659070E+02  0.00000000000E+00 0. -1.
         -2    1    1    2    0  503  0.34095059206E+02 -0.24790971654E+02 -0.61009027857E+01  0.42594440395E+02  0.00000000000E+00 0.  1.
<mgrwt>
<rscale>  2 0.99122683E+02</rscale>
<asrwt>0</asrwt>
<pdfrwt beam="1">  1       21 0.14238874E-01 0.99122683E+02</pdfrwt>
<pdfrwt beam="2">  1       21 0.16780714E-01 0.99122683E+02</pdfrwt>
<totfact> 0.13669365E+06</totfact>
</mgrwt>
</event>
<event>
 5    1  0.1624116E+000  0.8431521E+02  0.7546771E-02  0.1317233E+00
         21   -1    0    0  501  502  0.00000000000E+00  0.00000000000E+00  0.28813681582E+03  0.28813681582E+03  0.00000000000E+00 0. -1.
         21   -1    0    0  502  503 -0.00000000000E+00 -0.00000000000E+00 -0.17308890584E+03  0.17308890584E+03  0.00000000000E+00 0.  1.
         24    1    1    2    0    0  0.45195552213E+02  0.44519970124E+02  0.61472648241E+02  0.11946032026E+03  0.80419002446E+02 0.  1.
          1    1    1    2  501    0 -0.10476643911E+02 -0.23205878585E+02  0.19394201358E+03  0.19560617961E+03  0.00000000000E+00 0. -1.
         -2    1    1    2    0  503 -0.34718908302E+02 -0.21314091539E+02 -0.14036675185E+03  0.14615922180E+03  0.00000000000E+00 0.  1.
<mgrwt>
<rscale>  2 0.84315210E+02</rscale>
<asrwt>0</asrwt>
<pdfrwt beam="1">  1       21 0.44328741E-01 0.84315210E+02</pdfrwt>
<pdfrwt beam="2">  1       21 0.26629062E-01 0.84315210E+02</pdfrwt>
<totfact> 0.69254465E+04</totfact>
</mgrwt>
</event>
<event>
 5    1  0.1624116E+000  0.8077834E+02  0.7546771E-02  0.1326857E+00
         21   -1    0    0  501  502  0.00000000000E+00  0.00000000000E+00  0.17241529375E+02  0.17241529375E+02  0.00000000000E+00 0. -1.
         21   -1    0    0  502  503 -0.00000000000E+00 -0.00000000000E+00 -0.45180342564E+03  0.45180342564E+03  0.00000000000E+00 0.  1.
         24    1    1    2    0    0  0.14173573666E+02 -0.86342896914E+01 -0.25945829300E+03  0.27214199034E+03  0.80419002446E+02 0.  1.
          1    1    1    2  501    0 -0.45839472707E+02 -0.24193929700E+01 -0.52233259010E+02  0.69537213542E+02  0.00000000000E+00 0. -1.
         -2    1    1    2    0  503  0.31665899041E+02  0.11053682661E+02 -0.12287034426E+03  0.12736575113E+03  0.00000000000E+00 0.  1.
<mgrwt>
<rscale>  2 0.80778342E+02</rscale>
<asrwt>0</asrwt>
<pdfrwt beam="1">  1       21 0.26525435E-02 0.80778342E+02</pdfrwt>
<pdfrwt beam="2">  1       21 0.69508207E-01 0.80778342E+02</pdfrwt>
<totfact> 0.14458432E+06</totfact>
</mgrwt>
</event>
<event>
 5    1  0.1624116E+000  0.7013070E+02  0.7546771E-02  0.1359649E+00
         21   -1    0    0  501  502  0.00000000000E+00  0.00000000000E+00  0.78392049246E+02  0.78392049246E+02  0.00000000000E+00 0. -1.
         21   -1    0    0  502  503 -0.00000000000E+00 -0.00000000000E+00 -0.12262355441E+03  0.12262355441E+03  0.00000000000E+00 0. -1.
         24    1    1    2    0    0 -0.28080113484E+02  0.26020139348E+02 -0.83960322414E+02  0.12240135669E+03  0.80419002446E+02 0. -1.
          1    1    1    2  501    0  0.29521932291E+02 -0.47800533768E+01  0.47348760467E+02  0.56002665242E+02  0.00000000000E+00 0. -1.
         -2    1    1    2    0  503 -0.14418188068E+01 -0.21240085971E+02 -0.76199432175E+01  0.22611581726E+02  0.00000000000E+00 0.  1.
<mgrwt>
<rscale>  2 0.70130700E+02</rscale>
<asrwt>0</asrwt>
<pdfrwt beam="1">  1       21 0.12060315E-01 0.70130700E+02</pdfrwt>
<pdfrwt beam="2">  1       21 0.18865162E-01 0.70130700E+02</pdfrwt>
<totfact> 0.14658842E+06</totfact>
</mgrwt>
</event>
<event>
 5    1  0.1624116E+000  0.7248978E+02  0.7546771E-02  0.1351825E+00
         21   -1    0    0  503  502  0.00000000000E+00  0.00000000000E+00  0.12476120568E+03  0.12476120568E+03  0.00000000000E+00 0.  1.
         21   -1    0    0  501  503 -0.00000000000E+00 -0.00000000000E+00 -0.67418067527E+02  0.67418067527E+02  0.00000000000E+00 0.  1.
         24    1    1    2    0    0  0.12187066972E+02  0.60337584332E+01  0.74833911252E+02  0.11068993211E+03  0.80419002446E+02 0.  1.
          1    1    1    2  501    0  0.17400162960E+02 -0.23362714751E+02 -0.32860720824E+02  0.43913654877E+02  0.00000000000E+00 0. -1.
         -2    1    1    2    0  502 -0.29587229933E+02  0.17328956318E+02  0.15369947727E+02  0.37575686225E+02  0.00000000000E+00 0.  1.
<mgrwt>
<rscale>  2 0.72489782E+02</rscale>
<asrwt>0</asrwt>
<pdfrwt beam="1">  1       21 0.19194032E-01 0.72489782E+02</pdfrwt>
<pdfrwt beam="2">  1       21 0.10372010E-01 0.72489782E+02</pdfrwt>
<totfact> 0.18481375E+06</totfact>
</mgrwt>
</event>
<event>
 5    1  0.1624116E+000  0.6608094E+02  0.7546771E-02  0.1373951E+00
         21   -1    0    0  501  502  0.00000000000E+00  0.00000000000E+00  0.16216504595E+02  0.16216504595E+02  0.00000000000E+00 0.  1.
         21   -1    0    0  502  503 -0.00000000000E+00 -0.00000000000E+00 -0.64084052733E+03  0.64084052733E+03  0.00000000000E+00 0.  1.
         24    1    1    2    0    0  0.22716698073E+02  0.13688484638E+02 -0.50718383333E+03  0.51420431711E+03  0.80419002446E+02 0.  1.
          1    1    1    2  501    0 -0.24055368832E+01 -0.24400948224E+02 -0.13966296673E+01  0.24558979139E+02  0.00000000000E+00 0. -1.
         -2    1    1    2    0  503 -0.20311161190E+02  0.10712463586E+02 -0.11604355974E+03  0.11829373568E+03  0.00000000000E+00 0.  1.
<mgrwt>
<rscale>  2 0.66080939E+02</rscale>
<asrwt>0</asrwt>
<pdfrwt beam="1">  1       21 0.24948472E-02 0.66080939E+02</pdfrwt>
<pdfrwt beam="2">  1       21 0.98590838E-01 0.66080939E+02</pdfrwt>
<totfact> 0.73421755E+05</totfact>
</mgrwt>
</event>
<event>
 5    1  0.1624116E+000  0.9596605E+02  0.7546771E-02  0.1289015E+00
         21   -1    0    0  501  502  0.00000000000E+00  0.00000000000E+00  0.59744832497E+02  0.59744832497E+02  0.00000000000E+00 0.  1.
         21   -1    0    0  502  503 -0.00000000000E+00 -0.00000000000E+00 -0.17481374628E+03  0.17481374628E+03  0.00000000000E+00 0.  1.
         24    1    1    2    0    0  0.76403415161E+01 -0.59475071977E+02 -0.77673038100E+02  0.12686991687E+03  0.80419002446E+02 0.  1.
          1    1    1    2  501    0  0.29697317247E+02  0.14154368928E+02  0.75357810979E+01  0.33750034195E+02  0.00000000000E+00 0. -1.
         -2    1    1    2    0  503 -0.37337658763E+02  0.45320703049E+02 -0.44931656785E+02  0.73938627713E+02  0.00000000000E+00 0.  1.
<mgrwt>
<rscale>  2 0.95966050E+02</rscale>
<asrwt>0</asrwt>
<pdfrwt beam="1">  1       21 0.91915127E-02 0.95966050E+02</pdfrwt>
<pdfrwt beam="2">  1       21 0.26894422E-01 0.95966050E+02</pdfrwt>
<totfact> 0.12317502E+06</totfact>
</mgrwt>
</event>
<event>
 5    1  0.1624116E+000  0.6932837E+02  0.7546771E-02  0.1362392E+00
         21   -1    0    0  501  502  0.00000000000E+00  0.00000000000E+00  0.88352095697E+02  0.88352095697E+02  0.00000000000E+00 0.  1.
         21   -1    0    0  502  503 -0.00000000000E+00 -0.00000000000E+00 -0.89961116317E+02  0.89961116317E+02  0.00000000000E+00 0. -1.
         24    1    1    2    0    0 -0.41557237992E+02  0.15211475332E+02  0.36955866064E+02  0.98951225370E+02  0.80419002446E+02 0.  1.
          1    1    1    2  501    0  0.24673534432E+02 -0.83062005609E+00  0.94801244282E+01  0.26445150599E+02  0.00000000000E+00 0. -1.
         -2    1    1    2    0  503  0.16883703560E+02 -0.14380855276E+02 -0.48045011111E+02  0.52916836045E+02  0.00000000000E+00 0.  1.
<mgrwt>
<rscale>  2 0.69328367E+02</rscale>
<asrwt>0</asrwt>
<pdfrwt beam="1">  1       21 0.13592630E-01 0.69328367E+02</pdfrwt>
<pdfrwt beam="2">  1       21 0.13840172E-01 0.69328367E+02</pdfrwt>
<totfact> 0.20643478E+06</totfact>
</mgrwt>
</event>
<event>
 5    1  0.1624116E+000  0.1251266E+03  0.7546771E-02  0.1234872E+00
         21   -1    0    0  503  502  0.00000000000E+00  0.00000000000E+00  0.47990569520E+03  0.47990569520E+03  0.00000000000E+00 0.  1.
         21   -1    0    0  501  503 -0.00000000000E+00 -0.00000000000E+00 -0.93015298658E+02  0.93015298658E+02  0.00000000000E+00 0.  1.
         24    1    1    2    0    0 -0.48995983522E+00  0.91766658998E+02  0.99901468704E+01  0.12242703440E+03  0.80419002446E+02 0.  1.
          1    1    1    2  501    0  0.19246769855E+02 -0.10404890293E+03  0.40425810767E+02  0.11327337960E+03  0.00000000000E+00 0. -1.
         -2    1    1    2    0  502 -0.18756810020E+02  0.12282243931E+02  0.33647443891E+03  0.33722057985E+03  0.00000000000E+00 0.  1.
<mgrwt>
<rscale>  2 0.12512657E+03</rscale>
<asrwt>0</asrwt>
<pdfrwt beam="1">  1       21 0.73831644E-01 0.12512657E+03</pdfrwt>
<pdfrwt beam="2">  1       21 0.14310046E-01 0.12512657E+03</pdfrwt>
<totfact> 0.72557154E+04</totfact>
</mgrwt>
</event>
<event>
 5    1  0.1624116E+000  0.9862097E+02  0.7546771E-02  0.1283223E+00
         21   -1    0    0  501  502  0.00000000000E+00  0.00000000000E+00  0.48367892197E+01  0.48367892197E+01  0.00000000000E+00 0.  1.
         21   -1    0    0  502  503 -0.00000000000E+00 -0.00000000000E+00 -0.31200434568E+04  0.31200434568E+04  0.00000000000E+00 0. -1.
         24    1    1    2    0    0 -0.46273163271E+02 -0.64548249209E+02 -0.83683416404E+03  0.84443254092E+03  0.80419002446E+02 0.  1.
          1    1    1    2  501    0  0.25728632310E+01  0.25444963416E+02 -0.26736302685E+03  0.26858342078E+03  0.00000000000E+00 0. -1.
         -2    1    1    2    0  503  0.43700300040E+02  0.39103285792E+02 -0.20110094767E+04  0.20118642843E+04  0.00000000000E+00 0.  1.
<mgrwt>
<rscale>  2 0.98620972E+02</rscale>
<asrwt>0</asrwt>
<pdfrwt beam="1">  1       21 0.74412351E-03 0.98620972E+02</pdfrwt>
<pdfrwt beam="2">  1       21 0.48000534E+00 0.98620972E+02</pdfrwt>
<totfact> 0.18466559E+04</totfact>
</mgrwt>
</event>
<event>
 5    1  0.1624116E+000  0.1166841E+03  0.7546771E-02  0.1248670E+00
         21   -1    0    0  503  502  0.00000000000E+00  0.00000000000E+00  0.15531149177E+03  0.15531149177E+03  0.00000000000E+00 0.  1.
         21   -1    0    0  501  503 -0.00000000000E+00 -0.00000000000E+00 -0.16957332959E+03  0.16957332959E+03  0.00000000000E+00 0.  1.
         24    1    1    2    0    0 -0.89541817736E+02 -0.45967854160E+02 -0.10164514735E+03  0.16410281129E+03  0.80419002446E+02 0.  1.
          1    1    1    2  501    0  0.18905441957E+02  0.24019525751E+02 -0.15338724397E+02  0.34199851155E+02  0.00000000000E+00 0. -1.
         -2    1    1    2    0  502  0.70636375779E+02  0.21948328409E+02  0.10272203392E+03  0.12658215891E+03  0.00000000000E+00 0.  1.
<mgrwt>
<rscale>  2 0.11668407E+03</rscale>
<asrwt>0</asrwt>
<pdfrwt beam="1">  1       21 0.23894076E-01 0.11668407E+03</pdfrwt>
<pdfrwt beam="2">  1       21 0.26088204E-01 0.11668407E+03</pdfrwt>
<totfact> 0.23481597E+05</totfact>
</mgrwt>
</event>
<event>
 5    1  0.1624116E+000  0.7691225E+02  0.7546771E-02  0.1338050E+00
         21   -1    0    0  503  502  0.00000000000E+00  0.00000000000E+00  0.38103347177E+02  0.38103347177E+02  0.00000000000E+00 0.  1.
         21   -1    0    0  501  503 -0.00000000000E+00 -0.00000000000E+00 -0.15570769658E+03  0.15570769658E+03  0.00000000000E+00 0. -1.
         24    1    1    2    0    0 -0.45513808887E+02  0.24404641519E+02 -0.71783839043E+02  0.11952919656E+03  0.80419002446E+02 0.  1.
          1    1    1    2  501    0  0.19363324568E+02 -0.25570167286E+02 -0.22046268966E+02  0.38920557147E+02  0.00000000000E+00 0. -1.
         -2    1    1    2    0  502  0.26150484319E+02  0.11655257675E+01 -0.23774241395E+02  0.35361290055E+02  0.00000000000E+00 0.  1.
<mgrwt>
<rscale>  2 0.76912249E+02</rscale>
<asrwt>0</asrwt>
<pdfrwt beam="1">  1       21 0.58620534E-02 0.76912249E+02</pdfrwt>
<pdfrwt beam="2">  1       21 0.23955030E-01 0.76912249E+02</pdfrwt>
<totfact> 0.32531416E+06</totfact>
</mgrwt>
</event>
<event>
 5    1  0.1624116E+000  0.1190729E+03  0.7546771E-02  0.1244634E+00
         21   -1    0    0  503  502  0.00000000000E+00  0.00000000000E+00  0.52572531977E+03  0.52572531977E+03  0.00000000000E+00 0.  1.
         21   -1    0    0  501  503 -0.00000000000E+00 -0.00000000000E+00 -0.54960015195E+02  0.54960015195E+02  0.00000000000E+00 0. -1.
         24    1    1    2    0    0 -0.68750033919E+02  0.93040428327E+01  0.83643651787E+02  0.13519100863E+03  0.80419002446E+02 0. -1.
          1    1    1    2  501    0  0.91066675273E+02 -0.35305969799E+02  0.55963332007E+02  0.11256795893E+03  0.00000000000E+00 0. -1.
         -2    1    1    2    0  502 -0.22316641354E+02  0.26001926966E+02  0.33115832078E+03  0.33292636739E+03  0.00000000000E+00 0.  1.
<mgrwt>
<rscale>  2 0.11907287E+03</rscale>
<asrwt>0</asrwt>
<pdfrwt beam="1">  1       21 0.80880815E-01 0.11907287E+03</pdfrwt>
<pdfrwt beam="2">  1       21 0.84553873E-02 0.11907287E+03</pdfrwt>
<totfact> 0.14997203E+05</totfact>
</mgrwt>
</event>
<event>
 5    1  0.1624116E+000  0.1292659E+03  0.7546771E-02  0.1228549E+00
         21   -1    0    0  503  502  0.00000000000E+00  0.00000000000E+00  0.16082708023E+03  0.16082708023E+03  0.00000000000E+00 0.  1.
         21   -1    0    0  501  503 -0.00000000000E+00 -0.00000000000E+00 -0.27310387422E+03  0.27310387422E+03  0.00000000000E+00 0. -1.
         24    1    1    2    0    0 -0.63102367244E+02  0.92095892414E+02  0.54653625397E+02  0.14804660373E+03  0.80419002446E+02 0. -1.
          1    1    1    2  501    0  0.64929708975E+02 -0.58802140196E+02 -0.21225216729E+03  0.22961825128E+03  0.00000000000E+00 0. -1.
         -2    1    1    2    0  502 -0.18273417301E+01 -0.33293752219E+02  0.45321747898E+02  0.56266099448E+02  0.00000000000E+00 0.  1.
<mgrwt>
<rscale>  2 0.12926594E+03</rscale>
<asrwt>0</asrwt>
<pdfrwt beam="1">  1       21 0.24742628E-01 0.12926594E+03</pdfrwt>
<pdfrwt beam="2">  1       21 0.42015980E-01 0.12926594E+03</pdfrwt>
<totfact> 0.86445165E+04</totfact>
</mgrwt>
</event>
<event>
 5    1  0.1624116E+000  0.7150196E+02  0.7546771E-02  0.1355059E+00
         21   -1    0    0  503  502  0.00000000000E+00  0.00000000000E+00  0.73149689779E+02  0.73149689779E+02  0.00000000000E+00 0. -1.
         21   -1    0    0  501  503 -0.00000000000E+00 -0.00000000000E+00 -0.21080446972E+03  0.21080446972E+03  0.00000000000E+00 0. -1.
         24    1    1    2    0    0  0.44607371348E+02  0.17440910376E+02 -0.50153721919E+02  0.10619140601E+03  0.80419002446E+02 0. -1.
          1    1    1    2  501    0 -0.26062563566E+02 -0.37047175964E+01 -0.12825471678E+03  0.13092843285E+03  0.00000000000E+00 0. -1.
         -2    1    1    2    0  502 -0.18544807782E+02 -0.13736192780E+02  0.40753658758E+02  0.46834320641E+02  0.00000000000E+00 0.  1.
<mgrwt>
<rscale>  2 0.71501956E+02</rscale>
<asrwt>0</asrwt>
<pdfrwt beam="1">  1       21 0.11253798E-01 0.71501956E+02</pdfrwt>
<pdfrwt beam="2">  1       21 0.32431457E-01 0.71501956E+02</pdfrwt>
<totfact> 0.60471956E+05</totfact>
</mgrwt>
</event>
<event>
 5    1  0.1624116E+000  0.9166204E+02  0.7546771E-02  0.1298876E+00
         21   -1    0    0  501  502  0.00000000000E+00  0.00000000000E+00  0.14342986965E+02  0.14342986965E+02  0.00000000000E+00 0. -1.
         21   -1    0    0  502  503 -0.00000000000E+00 -0.00000000000E+00 -0.12958748195E+04  0.12958748195E+04  0.00000000000E+00 0.  1.
         24    1    1    2    0    0  0.18982090031E+02 -0.36386834159E+02 -0.54583445233E+03  0.55325110641E+03  0.80419002446E+02 0.  1.
          1    1    1    2  501    0 -0.51214606005E+00 -0.27005309354E+02 -0.10833510382E+02  0.29101786442E+02  0.00000000000E+00 0. -1.
         -2    1    1    2    0  503 -0.18469943971E+02  0.63392143514E+02 -0.72486386981E+03  0.72786491360E+03  0.00000000000E+00 0.  1.
<mgrwt>
<rscale>  2 0.91662037E+02</rscale>
<asrwt>0</asrwt>
<pdfrwt beam="1">  1       21 0.22066131E-02 0.91662037E+02</pdfrwt>
<pdfrwt beam="2">  1       21 0.19936538E+00 0.91662037E+02</pdfrwt>
<totfact> 0.15125651E+05</totfact>
</mgrwt>
</event>
<event>
 5    1  0.1624116E+000  0.8459181E+02  0.7546771E-02  0.1316503E+00
         21   -1    0    0  501  502  0.00000000000E+00  0.00000000000E+00  0.12097150194E+04  0.12097150194E+04  0.00000000000E+00 0. -1.
         21   -1    0    0  502  503 -0.00000000000E+00 -0.00000000000E+00 -0.79998260137E+01  0.79998260137E+01  0.00000000000E+00 0.  1.
         24    1    1    2    0    0 -0.51749913710E+02 -0.38995564192E+02  0.54165990672E+03  0.55141760771E+03  0.80419002446E+02 0.  0.
          1    1    1    2  501    0  0.26314349495E+02  0.27282015399E+02  0.58436222815E+03  0.58559027233E+03  0.00000000000E+00 0. -1.
         -2    1    1    2    0  503  0.25435564215E+02  0.11713548793E+02  0.75693058516E+02  0.80706965373E+02  0.00000000000E+00 0.  1.
<mgrwt>
<rscale>  2 0.84591808E+02</rscale>
<asrwt>0</asrwt>
<pdfrwt beam="1">  1       21 0.18610986E+00 0.84591808E+02</pdfrwt>
<pdfrwt beam="2">  1       21 0.12307434E-02 0.84591808E+02</pdfrwt>
<totfact> 0.46519938E+05</totfact>
</mgrwt>
</event>
<event>
 5    1  0.1624116E+000  0.9103991E+02  0.7546771E-02  0.1300353E+00
         21   -1    0    0  503  502  0.00000000000E+00  0.00000000000E+00  0.11049853806E+03  0.11049853806E+03  0.00000000000E+00 0.  1.
         21   -1    0    0  501  503 -0.00000000000E+00 -0.00000000000E+00 -0.78240650240E+02  0.78240650240E+02  0.00000000000E+00 0.  1.
         24    1    1    2    0    0  0.65492780678E+02 -0.62430212228E+01  0.23389375530E+02  0.10650144824E+03  0.80419002446E+02 0.  1.
          1    1    1    2  501    0 -0.38653799530E+02  0.24458302312E+02 -0.67492067324E+01  0.46237177267E+02  0.00000000000E+00 0. -1.
         -2    1    1    2    0  502 -0.26838981148E+02 -0.18215281090E+02  0.15617719028E+02  0.36000562799E+02  0.00000000000E+00 0.  1.
<mgrwt>
<rscale>  2 0.91039912E+02</rscale>
<asrwt>0</asrwt>
<pdfrwt beam="1">  1       21 0.16999775E-01 0.91039912E+02</pdfrwt>
<pdfrwt beam="2">  1       21 0.12037023E-01 0.91039912E+02</pdfrwt>
<totfact> 0.17929721E+06</totfact>
</mgrwt>
</event>
<event>
 5    1  0.1624116E+000  0.7165383E+02  0.7546771E-02  0.1354558E+00
         21   -1    0    0  503  502  0.00000000000E+00  0.00000000000E+00  0.78323179858E+02  0.78323179858E+02  0.00000000000E+00 0.  1.
         21   -1    0    0  501  503 -0.00000000000E+00 -0.00000000000E+00 -0.94326742016E+02  0.94326742016E+02  0.00000000000E+00 0.  1.
         24    1    1    2    0    0  0.76536343834E+01 -0.10714516469E+02 -0.40276850507E+02  0.90900052935E+02  0.80419002446E+02 0.  1.
          1    1    1    2  501    0  0.26341631052E+02  0.87846436423E+01 -0.13516402073E+02  0.30882755956E+02  0.00000000000E+00 0. -1.
         -2    1    1    2    0  502 -0.33995265436E+02  0.19298728269E+01  0.37789690421E+02  0.50867112984E+02  0.00000000000E+00 0.  1.
<mgrwt>
<rscale>  2 0.71653830E+02</rscale>
<asrwt>0</asrwt>
<pdfrwt beam="1">  1       21 0.12049720E-01 0.71653830E+02</pdfrwt>
<pdfrwt beam="2">  1       21 0.14511806E-01 0.71653830E+02</pdfrwt>
<totfact> 0.23487504E+06</totfact>
</mgrwt>
</event>
<event>
 5    1  0.1624116E+000  0.8832016E+02  0.7546771E-02  0.1306971E+00
         21   -1    0    0  501  502  0.00000000000E+00  0.00000000000E+00  0.95438322857E+02  0.95438322857E+02  0.00000000000E+00 0.  1.
         21   -1    0    0  502  503 -0.00000000000E+00 -0.00000000000E+00 -0.15909710155E+03  0.15909710155E+03  0.00000000000E+00 0. -1.
         24    1    1    2    0    0 -0.13961680354E+02  0.32959090341E+02  0.16537374527E+02  0.89565232457E+02  0.80419002446E+02 0.  0.
          1    1    1    2  501    0 -0.12045161325E+02  0.23526130952E+02  0.29044585146E+02  0.39270251785E+02  0.00000000000E+00 0. -1.
         -2    1    1    2    0  503  0.26006841679E+02 -0.56485221294E+02 -0.10924073836E+03  0.12569994016E+03  0.00000000000E+00 0.  1.
<mgrwt>
<rscale>  2 0.88320163E+02</rscale>
<asrwt>0</asrwt>
<pdfrwt beam="1">  1       21 0.14682819E-01 0.88320163E+02</pdfrwt>
<pdfrwt beam="2">  1       21 0.24476477E-01 0.88320163E+02</pdfrwt>
<totfact> 0.64613600E+05</totfact>
</mgrwt>
</event>
<event>
 5    1  0.1624116E+000  0.8806665E+02  0.7546771E-02  0.1307602E+00
         21   -1    0    0  501  502  0.00000000000E+00  0.00000000000E+00  0.24324734905E+03  0.24324734905E+03  0.00000000000E+00 0.  1.
         21   -1    0    0  502  503 -0.00000000000E+00 -0.00000000000E+00 -0.42167620614E+02  0.42167620614E+02  0.00000000000E+00 0. -1.
         24    1    1    2    0    0 -0.96735087467E+01  0.34276798425E+02  0.15319813946E+03  0.17665039363E+03  0.80419002446E+02 0.  1.
          1    1    1    2  501    0  0.17044188489E+02 -0.59504878963E+02  0.53585204654E+02  0.81870074749E+02  0.00000000000E+00 0. -1.
         -2    1    1    2    0  503 -0.73706797422E+01  0.25228080538E+02 -0.57036156780E+01  0.26894501284E+02  0.00000000000E+00 0.  1.
<mgrwt>
<rscale>  2 0.88066655E+02</rscale>
<asrwt>0</asrwt>
<pdfrwt beam="1">  1       21 0.37422668E-01 0.88066655E+02</pdfrwt>
<pdfrwt beam="2">  1       21 0.64873264E-02 0.88066655E+02</pdfrwt>
<totfact> 0.11797346E+06</totfact>
</mgrwt>
</event>
<event>
 5    1  0.1624116E+000  0.2580449E+03  0.7546771E-02  0.1108324E+00
         21   -1    0    0  503  502  0.00000000000E+00  0.00000000000E+00  0.41602645230E+02  0.41602645230E+02  0.00000000000E+00 0. -1.
         21   -1    0    0  501  503 -0.00000000000E+00 -0.00000000000E+00 -0.20504327857E+04  0.20504327857E+04  0.00000000000E+00 0.  1.
         24    1    1    2    0    0 -0.13889222741E+03  0.20835848523E+03 -0.15053960320E+04  0.15281978728E+04  0.80419002446E+02 0.  1.
          1    1    1    2  501    0  0.10139859590E+03 -0.17794375030E+03 -0.42420346469E+03  0.47105650720E+03  0.00000000000E+00 0. -1.
         -2    1    1    2    0  502  0.37493631511E+02 -0.30414734926E+02 -0.79230643783E+02  0.92781050968E+02  0.00000000000E+00 0.  1.
<mgrwt>
<rscale>  2 0.25804492E+03</rscale>
<asrwt>0</asrwt>
<pdfrwt beam="1">  1       21 0.64004071E-02 0.25804492E+03</pdfrwt>
<pdfrwt beam="2">  1       21 0.31545119E+00 0.25804492E+03</pdfrwt>
<totfact> 0.45845153E+03</totfact>
</mgrwt>
</event>
<event>
 5    1  0.1624116E+000  0.7500538E+02  0.7546771E-02  0.1343854E+00
         21   -1    0    0  503  502  0.00000000000E+00  0.00000000000E+00  0.19158052280E+03  0.19158052280E+03  0.00000000000E+00 0.  1.
         21   -1    0    0  501  503 -0.00000000000E+00 -0.00000000000E+00 -0.33143285976E+02  0.33143285976E+02  0.00000000000E+00 0.  1.
         24    1    1    2    0    0  0.32713551678E+02  0.33320791571E+02  0.13271247889E+03  0.16205020711E+03  0.80419002446E+02 0.  1.
          1    1    1    2  501    0 -0.31978807892E+01 -0.26541833791E+02  0.99334682837E+01  0.28519627884E+02  0.00000000000E+00 0. -1.
         -2    1    1    2    0  502 -0.29515670889E+02 -0.67789577805E+01  0.15791289644E+02  0.34153973784E+02  0.00000000000E+00 0.  1.
<mgrwt>
<rscale>  2 0.75005381E+02</rscale>
<asrwt>0</asrwt>
<pdfrwt beam="1">  1       21 0.29473926E-01 0.75005381E+02</pdfrwt>
<pdfrwt beam="2">  1       21 0.50989672E-02 0.75005381E+02</pdfrwt>
<totfact> 0.27780167E+06</totfact>
</mgrwt>
</event>
<event>
 5    1  0.1711615E+000  0.1135473E+03  0.7546771E-02  0.1254138E+00
         21   -1    0    0  503  502  0.00000000000E+00  0.00000000000E+00  0.56810771401E+03  0.56810771401E+03  0.00000000000E+00 0.  1.
         21   -1    0    0  501  503 -0.00000000000E+00 -0.00000000000E+00 -0.11317791354E+03  0.11317791354E+03  0.00000000000E+00 0. -1.
         24    1    1    2    0    0 -0.47108429167E+02 -0.16259684289E+02  0.55787364739E+02  0.10983181438E+03  0.80419002446E+02 0. -1.
          1    1    1    2  501    0  0.88884276193E+02  0.41105696628E+01 -0.61881311046E+02  0.10838176966E+03  0.00000000000E+00 0. -1.
         -2    1    1    2    0  502 -0.41775847026E+02  0.12149114626E+02  0.46102374678E+03  0.46307204351E+03  0.00000000000E+00 0.  1.
<mgrwt>
<rscale>  2 0.11354725E+03</rscale>
<asrwt>0</asrwt>
<pdfrwt beam="1">  1       21 0.87401185E-01 0.11354725E+03</pdfrwt>
<pdfrwt beam="2">  1       21 0.17411987E-01 0.11354725E+03</pdfrwt>
<totfact> 0.35184634E+04</totfact>
</mgrwt>
</event>
<event>
 5    1  0.1624116E+000  0.8802134E+02  0.7546771E-02  0.1307715E+00
         21   -1    0    0  503  502  0.00000000000E+00  0.00000000000E+00  0.18907918950E+02  0.18907918950E+02  0.00000000000E+00 0.  1.
         21   -1    0    0  501  503 -0.00000000000E+00 -0.00000000000E+00 -0.10210176553E+04  0.10210176553E+04  0.00000000000E+00 0. -1.
         24    1    1    2    0    0 -0.35003603970E+02  0.22114279679E+02 -0.32741169270E+03  0.33967620777E+03  0.80419002446E+02 0. -1.
          1    1    1    2  501    0 -0.11701069741E+02 -0.35194983450E+02 -0.63887931347E+03  0.63995498207E+03  0.00000000000E+00 0. -1.
         -2    1    1    2    0  502  0.46704673712E+02  0.13080703771E+02 -0.35818730144E+02  0.60294384372E+02  0.00000000000E+00 0.  1.
<mgrwt>
<rscale>  2 0.88021337E+02</rscale>
<asrwt>0</asrwt>
<pdfrwt beam="1">  1       21 0.29089103E-02 0.88021337E+02</pdfrwt>
<pdfrwt beam="2">  1       21 0.15707966E+00 0.88021337E+02</pdfrwt>
<totfact> 0.18485917E+05</totfact>
</mgrwt>
</event>
<event>
 5    1  0.1624116E+000  0.1524289E+03  0.7546771E-02  0.1197520E+00
         21   -1    0    0  501  502  0.00000000000E+00  0.00000000000E+00  0.78159123759E+03  0.78159123759E+03  0.00000000000E+00 0.  1.
         21   -1    0    0  502  503 -0.00000000000E+00 -0.00000000000E+00 -0.31465559948E+02  0.31465559948E+02  0.00000000000E+00 0.  1.
         24    1    1    2    0    0  0.31272727259E+01  0.12787381288E+03  0.27820508843E+03  0.31658613210E+03  0.80419002446E+02 0.  1.
          1    1    1    2  501    0 -0.39687712937E+02 -0.31431991712E+02  0.17308223262E+03  0.18033453332E+03  0.00000000000E+00 0. -1.
         -2    1    1    2    0  503  0.36560440211E+02 -0.96441821164E+02  0.29883835659E+03  0.31613613212E+03  0.00000000000E+00 0.  1.
<mgrwt>
<rscale>  2 0.15242891E+03</rscale>
<asrwt>0</asrwt>
<pdfrwt beam="1">  1       21 0.12024479E+00 0.15242891E+03</pdfrwt>
<pdfrwt beam="2">  1       21 0.48408560E-02 0.15242891E+03</pdfrwt>
<totfact> 0.15165970E+05</totfact>
</mgrwt>
</event>
<event>
 5    1  0.1624116E+000  0.7296413E+02  0.7546771E-02  0.1350294E+00
         21   -1    0    0  503  502  0.00000000000E+00  0.00000000000E+00  0.11212566903E+03  0.11212566903E+03  0.00000000000E+00 0. -1.
         21   -1    0    0  501  503 -0.00000000000E+00 -0.00000000000E+00 -0.61414619113E+02  0.61414619113E+02  0.00000000000E+00 0.  1.
         24    1    1    2    0    0  0.21386045191E+02 -0.21608135774E+02  0.68137687910E+02  0.10970066057E+03  0.80419002446E+02 0. -1.
          1    1    1    2  501    0 -0.17040575573E+02 -0.15233793440E+02 -0.13472422334E+02  0.26532166176E+02  0.00000000000E+00 0. -1.
         -2    1    1    2    0  502 -0.43454696177E+01  0.36841929214E+02 -0.39542156621E+01  0.37307461398E+02  0.00000000000E+00 0.  1.
<mgrwt>
<rscale>  2 0.72964126E+02</rscale>
<asrwt>0</asrwt>
<pdfrwt beam="1">  1       21 0.17250103E-01 0.72964126E+02</pdfrwt>
<pdfrwt beam="2">  1       21 0.94484030E-02 0.72964126E+02</pdfrwt>
<totfact> 0.26315291E+06</totfact>
</mgrwt>
</event>
<event>
 5    1  0.1624116E+000  0.7223930E+02  0.7546771E-02  0.1352640E+00
         21   -1    0    0  501  502  0.00000000000E+00  0.00000000000E+00  0.12652182318E+04  0.12652182318E+04  0.00000000000E+00 0.  1.
         21   -1    0    0  502  503 -0.00000000000E+00 -0.00000000000E+00 -0.50548558498E+01  0.50548558498E+01  0.00000000000E+00 0.  1.
         24    1    1    2    0    0  0.28958753441E+00  0.42809744351E+01  0.42298776007E+03  0.43058596323E+03  0.80419002446E+02 0.  0.
          1    1    1    2  501    0  0.18740733419E+02  0.23632782188E+02  0.46705023667E+03  0.46802312663E+03  0.00000000000E+00 0. -1.
         -2    1    1    2    0  503 -0.19030320954E+02 -0.27913756623E+02  0.37012537918E+03  0.37166399777E+03  0.00000000000E+00 0.  1.
<mgrwt>
<rscale>  2 0.72239300E+02</rscale>
<asrwt>0</asrwt>
<pdfrwt beam="1">  1       21 0.19464871E+00 0.72239300E+02</pdfrwt>
<pdfrwt beam="2">  1       21 0.77767114E-03 0.72239300E+02</pdfrwt>
<totfact> 0.84424118E+05</totfact>
</mgrwt>
</event>
<event>
 5    1  0.1624116E+000  0.1411263E+03  0.7546771E-02  0.1211821E+00
         21   -1    0    0  503  502  0.00000000000E+00  0.00000000000E+00  0.62408144170E+03  0.62408144170E+03  0.00000000000E+00 0.  1.
         21   -1    0    0  501  503 -0.00000000000E+00 -0.00000000000E+00 -0.43247966248E+02  0.43247966248E+02  0.00000000000E+00 0. -1.
         24    1    1    2    0    0 -0.33068329671E+02 -0.43023143430E+02  0.31534067705E+03  0.32992645219E+03  0.80419002446E+02 0.  1.
          1    1    1    2  501    0 -0.66461272692E+02  0.53280730548E+02  0.47467379600E+02  0.97514558614E+02  0.00000000000E+00 0. -1.
         -2    1    1    2    0  502  0.99529602364E+02 -0.10257587118E+02  0.21802541880E+03  0.23988839714E+03  0.00000000000E+00 0.  1.
<mgrwt>
<rscale>  2 0.14112630E+03</rscale>
<asrwt>0</asrwt>
<pdfrwt beam="1">  1       21 0.96012523E-01 0.14112630E+03</pdfrwt>
<pdfrwt beam="2">  1       21 0.66535337E-02 0.14112630E+03</pdfrwt>
<totfact> 0.15195842E+05</totfact>
</mgrwt>
</event>
<event>
 5    1  0.1624116E+000  0.1000074E+03  0.7546771E-02  0.1280280E+00
         21   -1    0    0  501  502  0.00000000000E+00  0.00000000000E+00  0.96472474832E+01  0.96472474832E+01  0.00000000000E+00 0. -1.
         21   -1    0    0  502  503 -0.00000000000E+00 -0.00000000000E+00 -0.13610662257E+04  0.13610662257E+04  0.00000000000E+00 0. -1.
         24    1    1    2    0    0  0.68079171684E+02  0.74250540874E+01 -0.38645849247E+03  0.40063360743E+03  0.80419002446E+02 0. -1.
          1    1    1    2  501    0 -0.60927844038E+02 -0.31981177186E+02 -0.54262423778E+03  0.54696989067E+03  0.00000000000E+00 0. -1.
         -2    1    1    2    0  503 -0.71513276462E+01  0.24556123099E+02 -0.42233624800E+03  0.42310997512E+03  0.00000000000E+00 0.  1.
<mgrwt>
<rscale>  2 0.10000742E+03</rscale>
<asrwt>0</asrwt>
<pdfrwt beam="1">  1       21 0.14841933E-02 0.10000742E+03</pdfrwt>
<pdfrwt beam="2">  1       21 0.20939461E+00 0.10000742E+03</pdfrwt>
<totfact> 0.24587030E+05</totfact>
</mgrwt>
</event>
<event>
 5    1  0.1624116E+000  0.6816835E+02  0.7546771E-02  0.1366435E+00
         21   -1    0    0  501  502  0.00000000000E+00  0.00000000000E+00  0.38970865582E+02  0.38970865582E+02  0.00000000000E+00 0. -1.
         21   -1    0    0  502  503 -0.00000000000E+00 -0.00000000000E+00 -0.20609276246E+03  0.20609276246E+03  0.00000000000E+00 0. -1.
         24    1    1    2    0    0  0.35209776287E+00 -0.12930985307E+02 -0.11381749366E+03  0.13996060935E+03  0.80419002446E+02 0.  0.
          1    1    1    2  501    0 -0.20332445563E+02 -0.11471367948E+02  0.16444099821E+02  0.28555368044E+02  0.00000000000E+00 0. -1.
         -2    1    1    2    0  503  0.19980347800E+02  0.24402353256E+02 -0.69748503037E+02  0.76547650640E+02  0.00000000000E+00 0.  1.
<mgrwt>
<rscale>  2 0.68168345E+02</rscale>
<asrwt>0</asrwt>
<pdfrwt beam="1">  1       21 0.59955178E-02 0.68168345E+02</pdfrwt>
<pdfrwt beam="2">  1       21 0.31706579E-01 0.68168345E+02</pdfrwt>
<totfact> 0.18381913E+06</totfact>
</mgrwt>
</event>
<event>
 5    1  0.1624116E+000  0.6822570E+02  0.7546771E-02  0.1366233E+00
         21   -1    0    0  501  502  0.00000000000E+00  0.00000000000E+00  0.26230602207E+02  0.26230602207E+02  0.00000000000E+00 0.  1.
         21   -1    0    0  502  503 -0.00000000000E+00 -0.00000000000E+00 -0.17828507041E+03  0.17828507041E+03  0.00000000000E+00 0. -1.
         24    1    1    2    0    0  0.27114414864E+02 -0.95288689150E+01 -0.88688439690E+02  0.12312126593E+03  0.80419002446E+02 0. -1.
          1    1    1    2  501    0 -0.77496546795E+01  0.25057876357E+02 -0.31048508605E+02  0.40644362484E+02  0.00000000000E+00 0. -1.
         -2    1    1    2    0  503 -0.19364760185E+02 -0.15529007442E+02 -0.32317519909E+02  0.40750044199E+02  0.00000000000E+00 0.  1.
<mgrwt>
<rscale>  2 0.68225703E+02</rscale>
<asrwt>0</asrwt>
<pdfrwt beam="1">  1       21 0.40354772E-02 0.68225703E+02</pdfrwt>
<pdfrwt beam="2">  1       21 0.27428473E-01 0.68225703E+02</pdfrwt>
<totfact> 0.46462805E+06</totfact>
</mgrwt>
</event>
<event>
 5    1  0.1624116E+000  0.8816652E+02  0.7546771E-02  0.1307353E+00
         21   -1    0    0  503  502  0.00000000000E+00  0.00000000000E+00  0.98268680767E+02  0.98268680767E+02  0.00000000000E+00 0.  1.
         21   -1    0    0  501  503 -0.00000000000E+00 -0.00000000000E+00 -0.13495077346E+03  0.13495077346E+03  0.00000000000E+00 0. -1.
         24    1    1    2    0    0 -0.87378249098E+01 -0.67392263018E+02 -0.92535395592E+02  0.14017161657E+03  0.80419002446E+02 0. -1.
          1    1    1    2  501    0  0.13056437154E+02  0.23023675792E+02  0.80064402223E+01  0.27652545690E+02  0.00000000000E+00 0. -1.
         -2    1    1    2    0  502 -0.43186122442E+01  0.44368587227E+02  0.47846862676E+02  0.65395291973E+02  0.00000000000E+00 0.  1.
<mgrwt>
<rscale>  2 0.88166517E+02</rscale>
<asrwt>0</asrwt>
<pdfrwt beam="1">  1       21 0.15118259E-01 0.88166517E+02</pdfrwt>
<pdfrwt beam="2">  1       21 0.20761657E-01 0.88166517E+02</pdfrwt>
<totfact> 0.83172462E+05</totfact>
</mgrwt>
</event>
<event>
 5    1  0.1624116E+000  0.1111259E+03  0.7546771E-02  0.1258499E+00
         21   -1    0    0  503  502  0.00000000000E+00  0.00000000000E+00  0.31193445797E+02  0.31193445797E+02  0.00000000000E+00 0. -1.
         21   -1    0    0  501  503 -0.00000000000E+00 -0.00000000000E+00 -0.39807291209E+03  0.39807291209E+03  0.00000000000E+00 0. -1.
         24    1    1    2    0    0  0.36828685363E+02  0.63587312345E+02 -0.18990190463E+03  0.21892840769E+03  0.80419002446E+02 0. -1.
          1    1    1    2  501    0 -0.36043449316E+02 -0.84772459906E+02 -0.15000581123E+03  0.17603193915E+03  0.00000000000E+00 0. -1.
         -2    1    1    2    0  502 -0.78523604662E+00  0.21185147561E+02 -0.26971750435E+02  0.34306011053E+02  0.00000000000E+00 0.  1.
<mgrwt>
<rscale>  2 0.11112592E+03</rscale>
<asrwt>0</asrwt>
<pdfrwt beam="1">  1       21 0.47989919E-02 0.11112592E+03</pdfrwt>
<pdfrwt beam="2">  1       21 0.61241984E-01 0.11112592E+03</pdfrwt>
<totfact> 0.71940364E+05</totfact>
</mgrwt>
</event>
<event>
 5    1  0.1624116E+000  0.2897287E+03  0.7546771E-02  0.1090491E+00
         21   -1    0    0  503  502  0.00000000000E+00  0.00000000000E+00  0.22781030249E+03  0.22781030249E+03  0.00000000000E+00 0.  1.
         21   -1    0    0  501  503 -0.00000000000E+00 -0.00000000000E+00 -0.53196866874E+03  0.53196866874E+03  0.00000000000E+00 0. -1.
         24    1    1    2    0    0  0.14476438073E+03  0.68878961115E+02 -0.58750099574E+02  0.18873215774E+03  0.80419002446E+02 0.  1.
          1    1    1    2  501    0  0.83683720226E+02 -0.13803104996E+03 -0.28650706251E+03  0.32884925520E+03  0.00000000000E+00 0. -1.
         -2    1    1    2    0  502 -0.22844810095E+03  0.69152088841E+02  0.41098795832E+02  0.24219755828E+03  0.00000000000E+00 0.  1.
<mgrwt>
<rscale>  2 0.28972871E+03</rscale>
<asrwt>0</asrwt>
<pdfrwt beam="1">  1       21 0.35047739E-01 0.28972871E+03</pdfrwt>
<pdfrwt beam="2">  1       21 0.81841334E-01 0.28972871E+03</pdfrwt>
<totfact> 0.96884474E+03</totfact>
</mgrwt>
</event>
<event>
 5    1  0.1624116E+000  0.9357726E+02  0.7546771E-02  0.1294413E+00
         21   -1    0    0  501  502  0.00000000000E+00  0.00000000000E+00  0.26077470046E+04  0.26077470046E+04  0.00000000000E+00 0. -1.
         21   -1    0    0  502  503 -0.00000000000E+00 -0.00000000000E+00 -0.10026613983E+02  0.10026613983E+02  0.00000000000E+00 0.  1.
         24    1    1    2    0    0 -0.72832383290E+02 -0.22173919293E+02  0.54436657730E+03  0.55551635906E+03  0.80419002446E+02 0.  1.
          1    1    1    2  501    0  0.26390555757E+02  0.47693786829E+01  0.19166028776E+04  0.19167904943E+04  0.00000000000E+00 0. -1.
         -2    1    1    2    0  503  0.46441827533E+02  0.17404540610E+02  0.13675093567E+03  0.14546676522E+03  0.00000000000E+00 0.  1.
<mgrwt>
<rscale>  2 0.93577263E+02</rscale>
<asrwt>0</asrwt>
<pdfrwt beam="1">  1       21 0.40119131E+00 0.93577263E+02</pdfrwt>
<pdfrwt beam="2">  1       21 0.15425581E-02 0.93577263E+02</pdfrwt>
<totfact> 0.18985890E+04</totfact>
</mgrwt>
</event>
<event>
 5    1  0.1624116E+000  0.8143789E+02  0.7546771E-02  0.1325020E+00
         21   -1    0    0  501  502  0.00000000000E+00  0.00000000000E+00  0.79007503258E+03  0.79007503258E+03  0.00000000000E+00 0. -1.
         21   -1    0    0  502  503 -0.00000000000E+00 -0.00000000000E+00 -0.89236630908E+01  0.89236630908E+01  0.00000000000E+00 0. -1.
         24    1    1    2    0    0 -0.40403843937E+02 -0.13283031797E+02  0.34930159791E+03  0.36095391921E+03  0.80419002446E+02 0.  0.
          1    1    1    2  501    0  0.11570052466E+01  0.29438100923E+02  0.22198639070E+03  0.22393279819E+03  0.00000000000E+00 0. -1.
         -2    1    1    2    0  503  0.39246838690E+02 -0.16155069125E+02  0.20986338088E+03  0.21411197828E+03  0.00000000000E+00 0.  1.
<mgrwt>
<rscale>  2 0.81437887E+02</rscale>
<asrwt>0</asrwt>
<pdfrwt beam="1">  1       21 0.12154995E+00 0.81437887E+02</pdfrwt>
<pdfrwt beam="2">  1       21 0.13728719E-02 0.81437887E+02</pdfrwt>
<totfact> 0.11632232E+06</totfact>
</mgrwt>
</event>
<event>
 5    1  0.1624116E+000  0.7281758E+02  0.7546771E-02  0.1350766E+00
         21   -1    0    0  501  502  0.00000000000E+00  0.00000000000E+00  0.43936490936E+02  0.43936490936E+02  0.00000000000E+00 0. -1.
         21   -1    0    0  502  503 -0.00000000000E+00 -0.00000000000E+00 -0.57210109183E+03  0.57210109183E+03  0.00000000000E+00 0. -1.
         24    1    1    2    0    0 -0.86779538024E+01 -0.44700898181E+02 -0.46342398456E+03  0.47254892085E+03  0.80419002446E+02 0. -1.
          1    1    1    2  501    0 -0.83881424313E+01  0.28423123773E+02  0.32175902949E+02  0.43743841042E+02  0.00000000000E+00 0. -1.
         -2    1    1    2    0  503  0.17066096234E+02  0.16277774408E+02 -0.96916519287E+02  0.99744820873E+02  0.00000000000E+00 0.  1.
<mgrwt>
<rscale>  2 0.72817582E+02</rscale>
<asrwt>0</asrwt>
<pdfrwt beam="1">  1       21 0.67594601E-02 0.72817582E+02</pdfrwt>
<pdfrwt beam="2">  1       21 0.88015553E-01 0.72817582E+02</pdfrwt>
<totfact> 0.18517397E+05</totfact>
</mgrwt>
</event>
<event>
 5    1  0.1624116E+000  0.6383693E+02  0.7546771E-02  0.1382401E+00
         21   -1    0    0  501  502  0.00000000000E+00  0.00000000000E+00  0.13865030621E+04  0.13865030621E+04  0.00000000000E+00 0. -1.
         21   -1    0    0  502  503 -0.00000000000E+00 -0.00000000000E+00 -0.35565176757E+01  0.35565176757E+01  0.00000000000E+00 0.  1.
         24    1    1    2    0    0  0.17530836787E+02 -0.14280602173E+02  0.81643669722E+03  0.82069931300E+03  0.80419002446E+02 0.  0.
          1    1    1    2  501    0 -0.19708433125E+02 -0.83479128630E+01  0.45774298639E+03  0.45824311405E+03  0.00000000000E+00 0. -1.
         -2    1    1    2    0  503  0.21775963378E+01  0.22628515036E+02  0.10876686085E+03  0.11111715276E+03  0.00000000000E+00 0.  1.
<mgrwt>
<rscale>  2 0.63836932E+02</rscale>
<asrwt>0</asrwt>
<pdfrwt beam="1">  1       21 0.21330773E+00 0.63836932E+02</pdfrwt>
<pdfrwt beam="2">  1       21 0.54715767E-03 0.63836932E+02</pdfrwt>
<totfact> 0.11218627E+06</totfact>
</mgrwt>
</event>
<event>
 5    1  0.1624116E+000  0.7946853E+02  0.7546771E-02  0.1330566E+00
         21   -1    0    0  503  502  0.00000000000E+00  0.00000000000E+00  0.31736325124E+03  0.31736325124E+03  0.00000000000E+00 0.  1.
         21   -1    0    0  501  503 -0.00000000000E+00 -0.00000000000E+00 -0.25369808510E+02  0.25369808510E+02  0.00000000000E+00 0. -1.
         24    1    1    2    0    0 -0.62303116413E+00  0.12253275963E+02  0.69242280242E+02  0.10682808745E+03  0.80419002446E+02 0. -1.
          1    1    1    2  501    0  0.37632329260E+02  0.25701062989E+01  0.11382531152E+03  0.11991246472E+03  0.00000000000E+00 0. -1.
         -2    1    1    2    0  502 -0.37009298096E+02 -0.14823382262E+02  0.10892585097E+03  0.11599250759E+03  0.00000000000E+00 0.  1.
<mgrwt>
<rscale>  2 0.79468533E+02</rscale>
<asrwt>0</asrwt>
<pdfrwt beam="1">  1       21 0.48825113E-01 0.79468533E+02</pdfrwt>
<pdfrwt beam="2">  1       21 0.39030477E-02 0.79468533E+02</pdfrwt>
<totfact> 0.16106859E+06</totfact>
</mgrwt>
</event>
<event>
 5    1  0.1624116E+000  0.1101418E+03  0.7546771E-02  0.1260307E+00
         21   -1    0    0  501  502  0.00000000000E+00  0.00000000000E+00  0.17779552818E+03  0.17779552818E+03  0.00000000000E+00 0. -1.
         21   -1    0    0  502  503 -0.00000000000E+00 -0.00000000000E+00 -0.28211017293E+03  0.28211017293E+03  0.00000000000E+00 0.  1.
         24    1    1    2    0    0 -0.50413740755E+02  0.14824531593E+02 -0.13719926369E+03  0.16748780822E+03  0.80419002446E+02 0.  1.
          1    1    1    2  501    0  0.16434598958E+02  0.49125503498E+02  0.14778497982E+03  0.15660080267E+03  0.00000000000E+00 0. -1.
         -2    1    1    2    0  503  0.33979141796E+02 -0.63950035091E+02 -0.11490036088E+03  0.13581709022E+03  0.00000000000E+00 0.  1.
<mgrwt>
<rscale>  2 0.11014183E+03</rscale>
<asrwt>0</asrwt>
<pdfrwt beam="1">  1       21 0.27353158E-01 0.11014183E+03</pdfrwt>
<pdfrwt beam="2">  1       21 0.43401565E-01 0.11014183E+03</pdfrwt>
<totfact> 0.67607567E+04</totfact>
</mgrwt>
</event>
<event>
 5    1  0.1624116E+000  0.9511165E+02  0.7546771E-02  0.1290925E+00
         21   -1    0    0  501  502  0.00000000000E+00  0.00000000000E+00  0.11955830281E+02  0.11955830281E+02  0.00000000000E+00 0.  1.
         21   -1    0    0  502  503 -0.00000000000E+00 -0.00000000000E+00 -0.97096744628E+03  0.97096744628E+03  0.00000000000E+00 0. -1.
         24    1    1    2    0    0  0.56794833841E+02  0.84635795737E+01 -0.35709939463E+03  0.37051920183E+03  0.80419002446E+02 0.  1.
          1    1    1    2  501    0 -0.70410306673E+02  0.70551583914E+01 -0.24821268979E+03  0.25810254923E+03  0.00000000000E+00 0. -1.
         -2    1    1    2    0  503  0.13615472832E+02 -0.15518737965E+02 -0.35369953158E+03  0.35430152550E+03  0.00000000000E+00 0.  1.
<mgrwt>
<rscale>  2 0.95111646E+02</rscale>
<asrwt>0</asrwt>
<pdfrwt beam="1">  1       21 0.18393574E-02 0.95111646E+02</pdfrwt>
<pdfrwt beam="2">  1       21 0.14937969E+00 0.95111646E+02</pdfrwt>
<totfact> 0.43841107E+05</totfact>
</mgrwt>
</event>
<event>
 5    1  0.1624116E+000  0.1197191E+03  0.7546771E-02  0.1243561E+00
         21   -1    0    0  501  502  0.00000000000E+00  0.00000000000E+00  0.12368374108E+03  0.12368374108E+03  0.00000000000E+00 0.  1.
         21   -1    0    0  502  503 -0.00000000000E+00 -0.00000000000E+00 -0.28177763273E+03  0.28177763273E+03  0.00000000000E+00 0.  1.
         24    1    1    2    0    0 -0.80830310579E+02  0.22662841323E+02 -0.19774152251E+01  0.11626809369E+03  0.80419002446E+02 0.  1.
          1    1    1    2  501    0 -0.11491970064E+02 -0.28450148438E+02  0.52600626258E+02  0.60895830767E+02  0.00000000000E+00 0. -1.
         -2    1    1    2    0  503  0.92322280643E+02  0.57873071150E+01 -0.20871710269E+03  0.22829744935E+03  0.00000000000E+00 0.  1.
<mgrwt>
<rscale>  2 0.11971913E+03</rscale>
<asrwt>0</asrwt>
<pdfrwt beam="1">  1       21 0.19028268E-01 0.11971913E+03</pdfrwt>
<pdfrwt beam="2">  1       21 0.43350405E-01 0.11971913E+03</pdfrwt>
<totfact> 0.13285310E+05</totfact>
</mgrwt>
</event>
<event>
 5    1  0.1624116E+000  0.8809068E+02  0.7546771E-02  0.1307542E+00
         21   -1    0    0  501  502  0.00000000000E+00  0.00000000000E+00  0.22180968271E+02  0.22180968271E+02  0.00000000000E+00 0. -1.
         21   -1    0    0  502  503 -0.00000000000E+00 -0.00000000000E+00 -0.17935251949E+04  0.17935251949E+04  0.00000000000E+00 0.  1.
         24    1    1    2    0    0 -0.12216734384E+02  0.36304657920E+02 -0.16058052163E+04  0.16082738838E+04  0.80419002446E+02 0.  1.
          1    1    1    2  501    0 -0.30576361654E+02 -0.31736296151E+02 -0.88612604985E+01  0.44951399567E+02  0.00000000000E+00 0. -1.
         -2    1    1    2    0  503  0.42793096038E+02 -0.45683617680E+01 -0.15667774984E+03  0.16248087978E+03  0.00000000000E+00 0.  1.
<mgrwt>
<rscale>  2 0.88090679E+02</rscale>
<asrwt>0</asrwt>
<pdfrwt beam="1">  1       21 0.34124569E-02 0.88090679E+02</pdfrwt>
<pdfrwt beam="2">  1       21 0.27592693E+00 0.88090679E+02</pdfrwt>
<totfact> 0.27279724E+04</totfact>
</mgrwt>
</event>
<event>
 5    1  0.1624116E+000  0.6813329E+02  0.7546771E-02  0.1366558E+00
         21   -1    0    0  503  502  0.00000000000E+00  0.00000000000E+00  0.25772341543E+03  0.25772341543E+03  0.00000000000E+00 0.  1.
         21   -1    0    0  501  503 -0.00000000000E+00 -0.00000000000E+00 -0.85137855865E+02  0.85137855865E+02  0.00000000000E+00 0. -1.
         24    1    1    2    0    0 -0.15214759254E+02  0.30963716410E+02  0.89509310120E+02  0.12517736691E+03  0.80419002446E+02 0. -1.
          1    1    1    2  501    0 -0.60948241366E+01 -0.26232476072E+02 -0.63770294529E+02  0.69223840881E+02  0.00000000000E+00 0. -1.
         -2    1    1    2    0  502  0.21309583391E+02 -0.47312403384E+01  0.14684654397E+03  0.14846006351E+03  0.00000000000E+00 0.  1.
<mgrwt>
<rscale>  2 0.68133294E+02</rscale>
<asrwt>0</asrwt>
<pdfrwt beam="1">  1       21 0.39649756E-01 0.68133294E+02</pdfrwt>
<pdfrwt beam="2">  1       21 0.13098132E-01 0.68133294E+02</pdfrwt>
<totfact> 0.31453686E+05</totfact>
</mgrwt>
</event>
<event>
 5    1  0.1624116E+000  0.7482604E+02  0.7546771E-02  0.1344411E+00
         21   -1    0    0  501  502  0.00000000000E+00  0.00000000000E+00  0.16074088191E+03  0.16074088191E+03  0.00000000000E+00 0. -1.
         21   -1    0    0  502  503 -0.00000000000E+00 -0.00000000000E+00 -0.36368040748E+02  0.36368040748E+02  0.00000000000E+00 0.  1.
         24    1    1    2    0    0  0.11511835677E+02  0.26476949059E+02  0.90666790625E+02  0.12458424487E+03  0.80419002446E+02 0. -1.
          1    1    1    2  501    0 -0.33072524634E+02 -0.44257321317E+01  0.16918899376E+02  0.37411604439E+02  0.00000000000E+00 0. -1.
         -2    1    1    2    0  503  0.21560688957E+02 -0.22051216927E+02  0.16787151161E+02  0.35113073354E+02  0.00000000000E+00 0.  1.
<mgrwt>
<rscale>  2 0.74826043E+02</rscale>
<asrwt>0</asrwt>
<pdfrwt beam="1">  1       21 0.24729366E-01 0.74826043E+02</pdfrwt>
<pdfrwt beam="2">  1       21 0.55950833E-02 0.74826043E+02</pdfrwt>
<totfact> 0.33091827E+06</totfact>
</mgrwt>
</event>
<event>
 5    1  0.1624116E+000  0.6374461E+02  0.7546771E-02  0.1382757E+00
         21   -1    0    0  503  502  0.00000000000E+00  0.00000000000E+00  0.11081835166E+03  0.11081835166E+03  0.00000000000E+00 0.  1.
         21   -1    0    0  501  503 -0.00000000000E+00 -0.00000000000E+00 -0.30683629474E+03  0.30683629474E+03  0.00000000000E+00 0. -1.
         24    1    1    2    0    0  0.88717532403E+00 -0.15593293755E+02 -0.26126796297E+02  0.85986995117E+02  0.80419002446E+02 0. -1.
          1    1    1    2  501    0  0.20919410791E+02  0.91158347067E+01 -0.24864716454E+03  0.24969207561E+03  0.00000000000E+00 0. -1.
         -2    1    1    2    0  502 -0.21806586115E+02  0.64774590483E+01  0.78756017760E+02  0.81975575674E+02  0.00000000000E+00 0.  1.
<mgrwt>
<rscale>  2 0.63744608E+02</rscale>
<asrwt>0</asrwt>
<pdfrwt beam="1">  1       21 0.17048977E-01 0.63744608E+02</pdfrwt>
<pdfrwt beam="2">  1       21 0.47205583E-01 0.63744608E+02</pdfrwt>
<totfact> 0.13986033E+05</totfact>
</mgrwt>
</event>
<event>
 5    1  0.1624116E+000  0.8771832E+02  0.7546771E-02  0.1308473E+00
         21   -1    0    0  501  502  0.00000000000E+00  0.00000000000E+00  0.73413040658E+02  0.73413040658E+02  0.00000000000E+00 0.  1.
         21   -1    0    0  502  503 -0.00000000000E+00 -0.00000000000E+00 -0.14626150867E+03  0.14626150867E+03  0.00000000000E+00 0. -1.
         24    1    1    2    0    0  0.21897140826E+02  0.38445826277E+02 -0.90400596423E+02  0.12882953901E+03  0.80419002446E+02 0.  0.
          1    1    1    2  501    0  0.22079142214E+02  0.41053626008E+01  0.19323848312E+02  0.29626907307E+02  0.00000000000E+00 0. -1.
         -2    1    1    2    0  503 -0.43976283040E+02 -0.42551188877E+02 -0.17717199054E+01  0.61218103012E+02  0.00000000000E+00 0.  1.
<mgrwt>
<rscale>  2 0.87718322E+02</rscale>
<asrwt>0</asrwt>
<pdfrwt beam="1">  1       21 0.11294314E-01 0.87718322E+02</pdfrwt>
<pdfrwt beam="2">  1       21 0.22501770E-01 0.87718322E+02</pdfrwt>
<totfact> 0.11995821E+06</totfact>
</mgrwt>
</event>
<event>
 5    1  0.1624116E+000  0.1139504E+03  0.7546771E-02  0.1253424E+00
         21   -1    0    0  501  502  0.00000000000E+00  0.00000000000E+00  0.26417339096E+03  0.26417339096E+03  0.00000000000E+00 0. -1.
         21   -1    0    0  502  503 -0.00000000000E+00 -0.00000000000E+00 -0.63534198204E+02  0.63534198204E+02  0.00000000000E+00 0. -1.
         24    1    1    2    0    0 -0.44784501748E+02  0.36513178623E+02  0.97161466758E+02  0.13873150467E+03  0.80419002446E+02 0. -1.
          1    1    1    2  501    0  0.57099603852E+02 -0.71663615882E+02  0.11765250886E+03  0.14912461716E+03  0.00000000000E+00 0. -1.
         -2    1    1    2    0  503 -0.12315102104E+02  0.35150437260E+02 -0.14174782868E+02  0.39851467335E+02  0.00000000000E+00 0.  1.
<mgrwt>
<rscale>  2 0.11395044E+03</rscale>
<asrwt>0</asrwt>
<pdfrwt beam="1">  1       21 0.40642060E-01 0.11395044E+03</pdfrwt>
<pdfrwt beam="2">  1       21 0.97744921E-02 0.11395044E+03</pdfrwt>
<totfact> 0.49749386E+05</totfact>
</mgrwt>
</event>
<event>
 5    1  0.1624116E+000  0.8516168E+02  0.7546771E-02  0.1315010E+00
         21   -1    0    0  501  502  0.00000000000E+00  0.00000000000E+00  0.32268977055E+02  0.32268977055E+02  0.00000000000E+00 0. -1.
         21   -1    0    0  502  503 -0.00000000000E+00 -0.00000000000E+00 -0.56661302308E+03  0.56661302308E+03  0.00000000000E+00 0.  1.
         24    1    1    2    0    0  0.40860969559E+01  0.59306200800E+02 -0.14949457045E+03  0.17986040195E+03  0.80419002446E+02 0.  1.
          1    1    1    2  501    0  0.14944570763E+02 -0.42055980648E+02 -0.13281004218E+02  0.46566412537E+02  0.00000000000E+00 0. -1.
         -2    1    1    2    0  503 -0.19030667719E+02 -0.17250220152E+02 -0.37156847136E+03  0.37245518565E+03  0.00000000000E+00 0.  1.
<mgrwt>
<rscale>  2 0.85161681E+02</rscale>
<asrwt>0</asrwt>
<pdfrwt beam="1">  1       21 0.49644585E-02 0.85161681E+02</pdfrwt>
<pdfrwt beam="2">  1       21 0.87171226E-01 0.85161681E+02</pdfrwt>
<totfact> 0.31570569E+05</totfact>
</mgrwt>
</event>
<event>
 5    1  0.1624116E+000  0.1670535E+03  0.7546771E-02  0.1180956E+00
         21   -1    0    0  501  502  0.00000000000E+00  0.00000000000E+00  0.47472616336E+02  0.47472616336E+02  0.00000000000E+00 0. -1.
         21   -1    0    0  502  503 -0.00000000000E+00 -0.00000000000E+00 -0.74092718757E+03  0.74092718757E+03  0.00000000000E+00 0. -1.
         24    1    1    2    0    0  0.14605828251E+03  0.53370832609E+02 -0.46703445805E+03  0.49876835167E+03  0.80419002446E+02 0. -1.
          1    1    1    2  501    0 -0.48314056607E+02 -0.34810572703E+02 -0.24230781192E+02  0.64289616540E+02  0.00000000000E+00 0. -1.
         -2    1    1    2    0  503 -0.97744225903E+02 -0.18560259906E+02 -0.20218933199E+03  0.22534183570E+03  0.00000000000E+00 0.  1.
<mgrwt>
<rscale>  2 0.16705347E+03</rscale>
<asrwt>0</asrwt>
<pdfrwt beam="1">  1       21 0.73034792E-02 0.16705347E+03</pdfrwt>
<pdfrwt beam="2">  1       21 0.11398880E+00 0.16705347E+03</pdfrwt>
<totfact> 0.85192483E+04</totfact>
</mgrwt>
</event>
<event>
 5    1  0.2080554E+000  0.8840881E+02  0.7546771E-02  0.1306751E+00
         21   -1    0    0  501  502  0.00000000000E+00  0.00000000000E+00  0.17677533489E+03  0.17677533489E+03  0.00000000000E+00 0.  1.
         21   -1    0    0  502  503 -0.00000000000E+00 -0.00000000000E+00 -0.19558672310E+03  0.19558672310E+03  0.00000000000E+00 0.  1.
         24    1    1    2    0    0 -0.31482919931E+02  0.41152588512E+02  0.10121765557E+03  0.13927289593E+03  0.80419002446E+02 0.  1.
          1    1    1    2  501    0  0.22717297537E+02  0.13081160853E+02  0.48882587561E+02  0.55468006484E+02  0.00000000000E+00 0. -1.
         -2    1    1    2    0  503  0.87656223935E+01 -0.54233749365E+02 -0.16891163134E+03  0.17762115557E+03  0.00000000000E+00 0.  1.
<mgrwt>
<rscale>  2 0.88408807E+02</rscale>
<asrwt>0</asrwt>
<pdfrwt beam="1">  1       21 0.27196206E-01 0.88408807E+02</pdfrwt>
<pdfrwt beam="2">  1       21 0.30090265E-01 0.88408807E+02</pdfrwt>
<totfact> 0.14158150E+05</totfact>
</mgrwt>
</event>
<event>
 5    1  0.1624116E+000  0.9933748E+02  0.7546771E-02  0.1281695E+00
         21   -1    0    0  503  502  0.00000000000E+00  0.00000000000E+00  0.22692128431E+03  0.22692128431E+03  0.00000000000E+00 0.  1.
         21   -1    0    0  501  503 -0.00000000000E+00 -0.00000000000E+00 -0.65361686882E+02  0.65361686882E+02  0.00000000000E+00 0. -1.
         24    1    1    2    0    0 -0.47651114821E+01  0.39790323424E+02  0.46519521144E+02  0.10117933548E+03  0.80419002446E+02 0.  1.
          1    1    1    2  501    0  0.39072231430E+02  0.16892494626E+02 -0.15019763025E+02  0.45139660221E+02  0.00000000000E+00 0. -1.
         -2    1    1    2    0  502 -0.34307119948E+02 -0.56682818050E+02  0.13005983930E+03  0.14596397549E+03  0.00000000000E+00 0.  1.
<mgrwt>
<rscale>  2 0.99337480E+02</rscale>
<asrwt>0</asrwt>
<pdfrwt beam="1">  1       21 0.34910967E-01 0.99337480E+02</pdfrwt>
<pdfrwt beam="2">  1       21 0.10055644E-01 0.99337480E+02</pdfrwt>
<totfact> 0.63928930E+05</totfact>
</mgrwt>
</event>
<event>
 5    1  0.1624116E+000  0.7631671E+02  0.7546771E-02  0.1339841E+00
         21   -1    0    0  503  502  0.00000000000E+00  0.00000000000E+00  0.29223495974E+02  0.29223495974E+02  0.00000000000E+00 0.  1.
         21   -1    0    0  501  503 -0.00000000000E+00 -0.00000000000E+00 -0.54778356675E+03  0.54778356675E+03  0.00000000000E+00 0. -1.
         24    1    1    2    0    0 -0.26360679738E+02  0.31478162853E+01 -0.29171855429E+03  0.30376261300E+03  0.80419002446E+02 0.  0.
          1    1    1    2  501    0  0.98606617465E+01  0.29641642602E+02 -0.23380514429E+03  0.23588282075E+03  0.00000000000E+00 0. -1.
         -2    1    1    2    0  502  0.16500017991E+02 -0.32789458887E+02  0.69636278057E+01  0.37361628980E+02  0.00000000000E+00 0.  1.
<mgrwt>
<rscale>  2 0.76316705E+02</rscale>
<asrwt>0</asrwt>
<pdfrwt beam="1">  1       21 0.44959228E-02 0.76316705E+02</pdfrwt>
<pdfrwt beam="2">  1       21 0.84274388E-01 0.76316705E+02</pdfrwt>
<totfact> 0.40170537E+05</totfact>
</mgrwt>
</event>
<event>
 5    1  0.1624116E+000  0.7894186E+02  0.7546771E-02  0.1332081E+00
         21   -1    0    0  501  502  0.00000000000E+00  0.00000000000E+00  0.11288463251E+03  0.11288463251E+03  0.00000000000E+00 0. -1.
         21   -1    0    0  502  503 -0.00000000000E+00 -0.00000000000E+00 -0.10844731931E+04  0.10844731931E+04  0.00000000000E+00 0. -1.
         24    1    1    2    0    0  0.28686280404E+02  0.10135493563E+02 -0.77949733252E+03  0.78422505589E+03  0.80419002446E+02 0. -1.
          1    1    1    2  501    0 -0.10433566095E+01  0.26214516917E+02  0.10720713027E+03  0.11037054983E+03  0.00000000000E+00 0. -1.
         -2    1    1    2    0  503 -0.27642923794E+02 -0.36350010479E+02 -0.29929835831E+03  0.30276221988E+03  0.00000000000E+00 0.  1.
<mgrwt>
<rscale>  2 0.78941857E+02</rscale>
<asrwt>0</asrwt>
<pdfrwt beam="1">  1       21 0.17366867E-01 0.78941857E+02</pdfrwt>
<pdfrwt beam="2">  1       21 0.16684203E+00 0.78941857E+02</pdfrwt>
<totfact> 0.76733399E+03</totfact>
</mgrwt>
</event>
<event>
 5    1  0.1624116E+000  0.1225139E+03  0.7546771E-02  0.1239007E+00
         21   -1    0    0  503  502  0.00000000000E+00  0.00000000000E+00  0.40181172085E+03  0.40181172085E+03  0.00000000000E+00 0.  1.
         21   -1    0    0  501  503 -0.00000000000E+00 -0.00000000000E+00 -0.26349679170E+03  0.26349679170E+03  0.00000000000E+00 0. -1.
         24    1    1    2    0    0 -0.81899136810E+02 -0.48483360004E+02  0.48067205420E+02  0.13355065331E+03  0.80419002446E+02 0. -1.
          1    1    1    2  501    0  0.66883258825E+02  0.68280026233E+02 -0.20987176804E+03  0.23061155937E+03  0.00000000000E+00 0. -1.
         -2    1    1    2    0  502  0.15015877985E+02 -0.19796666229E+02  0.30011949177E+03  0.30114629987E+03  0.00000000000E+00 0.  1.
<mgrwt>
<rscale>  2 0.12251392E+03</rscale>
<asrwt>0</asrwt>
<pdfrwt beam="1">  1       21 0.61817187E-01 0.12251392E+03</pdfrwt>
<pdfrwt beam="2">  1       21 0.40537968E-01 0.12251392E+03</pdfrwt>
<totfact> 0.14978862E+04</totfact>
</mgrwt>
</event>
<event>
 5    1  0.1624116E+000  0.7883547E+02  0.7546771E-02  0.1332389E+00
         21   -1    0    0  503  502  0.00000000000E+00  0.00000000000E+00  0.40770136422E+02  0.40770136422E+02  0.00000000000E+00 0. -1.
         21   -1    0    0  501  503 -0.00000000000E+00 -0.00000000000E+00 -0.15620684207E+03  0.15620684207E+03  0.00000000000E+00 0.  1.
         24    1    1    2    0    0  0.12279031965E+02 -0.46594975271E+02 -0.68078779663E+02  0.11586113473E+03  0.80419002446E+02 0. -1.
          1    1    1    2  501    0 -0.21495531741E+02  0.60346314828E+01 -0.26287239229E+02  0.34489036058E+02  0.00000000000E+00 0. -1.
         -2    1    1    2    0  502  0.92164997759E+01  0.40560343788E+02 -0.21070686759E+02  0.46626807706E+02  0.00000000000E+00 0.  1.
<mgrwt>
<rscale>  2 0.78835473E+02</rscale>
<asrwt>0</asrwt>
<pdfrwt beam="1">  1       21 0.62723286E-02 0.78835473E+02</pdfrwt>
<pdfrwt beam="2">  1       21 0.24031822E-01 0.78835473E+02</pdfrwt>
<totfact> 0.28914605E+06</totfact>
</mgrwt>
</event>
<event>
 5    1  0.1624116E+000  0.8719831E+02  0.7546771E-02  0.1309782E+00
         21   -1    0    0  501  502  0.00000000000E+00  0.00000000000E+00  0.61979947263E+02  0.61979947263E+02  0.00000000000E+00 0.  1.
         21   -1    0    0  502  503 -0.00000000000E+00 -0.00000000000E+00 -0.14917920091E+03  0.14917920091E+03  0.00000000000E+00 0.  1.
         24    1    1    2    0    0  0.72428320787E+01  0.37548801616E+02 -0.29670359662E+02  0.93861159785E+02  0.80419002446E+02 0.  1.
          1    1    1    2  501    0  0.46272848657E+01  0.23094907584E+02  0.10153691105E+02  0.25649248811E+02  0.00000000000E+00 0. -1.
         -2    1    1    2    0  503 -0.11870116944E+02 -0.60643709200E+02 -0.67682585092E+02  0.91648739579E+02  0.00000000000E+00 0.  1.
<mgrwt>
<rscale>  2 0.87198313E+02</rscale>
<asrwt>0</asrwt>
<pdfrwt beam="1">  1       21 0.95353766E-02 0.87198313E+02</pdfrwt>
<pdfrwt beam="2">  1       21 0.22950646E-01 0.87198313E+02</pdfrwt>
<totfact> 0.15512132E+06</totfact>
</mgrwt>
</event>
<event>
 5    1  0.1624116E+000  0.9707029E+02  0.7546771E-02  0.1286580E+00
         21   -1    0    0  501  502  0.00000000000E+00  0.00000000000E+00  0.19132090407E+03  0.19132090407E+03  0.00000000000E+00 0.  1.
         21   -1    0    0  502  503 -0.00000000000E+00 -0.00000000000E+00 -0.62959838275E+02  0.62959838275E+02  0.00000000000E+00 0.  1.
         24    1    1    2    0    0  0.47375479217E+02 -0.63181911666E+01  0.78148180977E+02  0.12189630722E+03  0.80419002446E+02 0.  1.
          1    1    1    2  501    0  0.26077080042E+02  0.74811430056E+01  0.52273281025E+02  0.58893781619E+02  0.00000000000E+00 0. -1.
         -2    1    1    2    0  503 -0.73452559259E+02 -0.11629518391E+01 -0.20603962115E+01  0.73490653496E+02  0.00000000000E+00 0.  1.
<mgrwt>
<rscale>  2 0.97070290E+02</rscale>
<asrwt>0</asrwt>
<pdfrwt beam="1">  1       21 0.29433985E-01 0.97070290E+02</pdfrwt>
<pdfrwt beam="2">  1       21 0.96861291E-02 0.97070290E+02</pdfrwt>
<totfact> 0.94799488E+05</totfact>
</mgrwt>
</event>
<event>
 5    1  0.1624116E+000  0.6786806E+02  0.7546771E-02  0.1367497E+00
         21   -1    0    0  501  502  0.00000000000E+00  0.00000000000E+00  0.18831636865E+03  0.18831636865E+03  0.00000000000E+00 0. -1.
         21   -1    0    0  502  503 -0.00000000000E+00 -0.00000000000E+00 -0.50414607938E+02  0.50414607938E+02  0.00000000000E+00 0. -1.
         24    1    1    2    0    0 -0.30682443990E+02  0.29694187637E+02  0.12785642967E+02  0.91944797401E+02  0.80419002446E+02 0. -1.
          1    1    1    2  501    0  0.11134682867E+02 -0.19940324403E+02  0.12269937968E+03  0.12480679258E+03  0.00000000000E+00 0. -1.
         -2    1    1    2    0  503  0.19547761123E+02 -0.97538632341E+01  0.24167380668E+01  0.21979386611E+02  0.00000000000E+00 0.  1.
<mgrwt>
<rscale>  2 0.67868058E+02</rscale>
<asrwt>0</asrwt>
<pdfrwt beam="1">  1       21 0.28971749E-01 0.67868058E+02</pdfrwt>
<pdfrwt beam="2">  1       21 0.77560936E-02 0.67868058E+02</pdfrwt>
<totfact> 0.14152711E+06</totfact>
</mgrwt>
</event>
<event>
 5    1  0.1624116E+000  0.6547384E+02  0.7546771E-02  0.1376198E+00
         21   -1    0    0  501  502  0.00000000000E+00  0.00000000000E+00  0.70607566656E+01  0.70607566656E+01  0.00000000000E+00 0.  1.
         21   -1    0    0  502  503 -0.00000000000E+00 -0.00000000000E+00 -0.83426029143E+03  0.83426029143E+03  0.00000000000E+00 0.  1.
         24    1    1    2    0    0  0.25426819088E+02 -0.58316197443E+01 -0.33980876004E+03  0.35016815999E+03  0.80419002446E+02 0.  1.
          1    1    1    2  501    0 -0.93094770881E+01  0.21806466971E+02 -0.88624311829E+02  0.91741250332E+02  0.00000000000E+00 0. -1.
         -2    1    1    2    0  503 -0.16117342000E+02 -0.15974847227E+02 -0.39876646289E+03  0.39941163777E+03  0.00000000000E+00 0.  1.
<mgrwt>
<rscale>  2 0.65473844E+02</rscale>
<asrwt>0</asrwt>
<pdfrwt beam="1">  1       21 0.10862703E-02 0.65473844E+02</pdfrwt>
<pdfrwt beam="2">  1       21 0.12834774E+00 0.65473844E+02</pdfrwt>
<totfact> 0.14664918E+06</totfact>
</mgrwt>
</event>
<event>
 5    1  0.1624116E+000  0.9268614E+02  0.7546771E-02  0.1296474E+00
         21   -1    0    0  501  502  0.00000000000E+00  0.00000000000E+00  0.24065650768E+03  0.24065650768E+03  0.00000000000E+00 0.  1.
         21   -1    0    0  502  503 -0.00000000000E+00 -0.00000000000E+00 -0.46196832482E+02  0.46196832482E+02  0.00000000000E+00 0. -1.
         24    1    1    2    0    0  0.23741271311E+02  0.66947010032E+02  0.14684659429E+03  0.18186997642E+03  0.80419002446E+02 0.  1.
          1    1    1    2  501    0 -0.31732527510E+02 -0.48346588865E+02  0.58277984803E+02  0.82101580190E+02  0.00000000000E+00 0. -1.
         -2    1    1    2    0  503  0.79912561993E+01 -0.18600421167E+02 -0.10664903894E+02  0.22881783547E+02  0.00000000000E+00 0.  1.
<mgrwt>
<rscale>  2 0.92686141E+02</rscale>
<asrwt>0</asrwt>
<pdfrwt beam="1">  1       21 0.37024078E-01 0.92686141E+02</pdfrwt>
<pdfrwt beam="2">  1       21 0.71072051E-02 0.92686141E+02</pdfrwt>
<totfact> 0.10335016E+06</totfact>
</mgrwt>
</event>
<event>
 5    1  0.1624116E+000  0.9209170E+02  0.7546771E-02  0.1297864E+00
         21   -1    0    0  503  502  0.00000000000E+00  0.00000000000E+00  0.19036117723E+03  0.19036117723E+03  0.00000000000E+00 0.  1.
         21   -1    0    0  501  503 -0.00000000000E+00 -0.00000000000E+00 -0.84305732014E+02  0.84305732014E+02  0.00000000000E+00 0.  1.
         24    1    1    2    0    0 -0.24927667820E+02  0.31852852865E+02 -0.36742592217E+02  0.97227706420E+02  0.80419002446E+02 0.  1.
          1    1    1    2  501    0  0.34805181648E+02  0.20831725746E+02  0.24057864448E+02  0.47160813276E+02  0.00000000000E+00 0. -1.
         -2    1    1    2    0  502 -0.98775138273E+01 -0.52684578611E+02  0.11874017299E+03  0.13027838955E+03  0.00000000000E+00 0.  1.
<mgrwt>
<rscale>  2 0.92091700E+02</rscale>
<asrwt>0</asrwt>
<pdfrwt beam="1">  1       21 0.29286335E-01 0.92091700E+02</pdfrwt>
<pdfrwt beam="2">  1       21 0.12970113E-01 0.92091700E+02</pdfrwt>
<totfact> 0.57423233E+05</totfact>
</mgrwt>
</event>
<event>
 5    1  0.1624116E+000  0.6620298E+02  0.7546771E-02  0.1373503E+00
         21   -1    0    0  503  502  0.00000000000E+00  0.00000000000E+00  0.18927940934E+03  0.18927940934E+03  0.00000000000E+00 0.  1.
         21   -1    0    0  501  503 -0.00000000000E+00 -0.00000000000E+00 -0.61613705502E+02  0.61613705502E+02  0.00000000000E+00 0.  1.
         24    1    1    2    0    0 -0.12609485115E+02 -0.27130908856E+02 -0.24954976408E+02  0.89359118909E+02  0.80419002446E+02 0.  1.
          1    1    1    2  501    0  0.23199948679E+02  0.76500958738E+01  0.40947878286E+02  0.47681131715E+02  0.00000000000E+00 0. -1.
         -2    1    1    2    0  502 -0.10590463564E+02  0.19480812982E+02  0.11167280196E+03  0.11385286422E+03  0.00000000000E+00 0.  1.
<mgrwt>
<rscale>  2 0.66202983E+02</rscale>
<asrwt>0</asrwt>
<pdfrwt beam="1">  1       21 0.29119909E-01 0.66202983E+02</pdfrwt>
<pdfrwt beam="2">  1       21 0.94790317E-02 0.66202983E+02</pdfrwt>
<totfact> 0.99566467E+05</totfact>
</mgrwt>
</event>
<event>
 5    1  0.1624116E+000  0.9339764E+02  0.7546771E-02  0.1294826E+00
         21   -1    0    0  503  502  0.00000000000E+00  0.00000000000E+00  0.63018577568E+03  0.63018577568E+03  0.00000000000E+00 0. -1.
         21   -1    0    0  501  503 -0.00000000000E+00 -0.00000000000E+00 -0.17198411739E+02  0.17198411739E+02  0.00000000000E+00 0.  1.
         24    1    1    2    0    0 -0.25089892889E+02  0.46519187739E+02  0.34629435249E+03  0.35941693348E+03  0.80419002446E+02 0.  0.
          1    1    1    2  501    0 -0.36666053504E+01 -0.59071928071E+02  0.84944605089E+02  0.10353029805E+03  0.00000000000E+00 0. -1.
         -2    1    1    2    0  502  0.28756498239E+02  0.12552740332E+02  0.18174840636E+03  0.18443695589E+03  0.00000000000E+00 0.  1.
<mgrwt>
<rscale>  2 0.93397642E+02</rscale>
<asrwt>0</asrwt>
<pdfrwt beam="1">  1       21 0.96951640E-01 0.93397642E+02</pdfrwt>
<pdfrwt beam="2">  1       21 0.26459100E-02 0.93397642E+02</pdfrwt>
<totfact> 0.69503357E+05</totfact>
</mgrwt>
</event>
<event>
 5    1  0.1624116E+000  0.9787584E+02  0.7546771E-02  0.1284827E+00
         21   -1    0    0  501  502  0.00000000000E+00  0.00000000000E+00  0.51791523016E+03  0.51791523016E+03  0.00000000000E+00 0. -1.
         21   -1    0    0  502  503 -0.00000000000E+00 -0.00000000000E+00 -0.20290487857E+02  0.20290487857E+02  0.00000000000E+00 0. -1.
         24    1    1    2    0    0 -0.18467233550E+02 -0.66800184191E+02  0.24703171087E+03  0.26887764030E+03  0.80419002446E+02 0. -1.
          1    1    1    2  501    0 -0.21723934043E+01  0.68816781476E+02  0.23007171140E+03  0.24015299518E+03  0.00000000000E+00 0. -1.
         -2    1    1    2    0  503  0.20639626954E+02 -0.20165972842E+01  0.20521320032E+02  0.29175082541E+02  0.00000000000E+00 0.  1.
<mgrwt>
<rscale>  2 0.97875836E+02</rscale>
<asrwt>0</asrwt>
<pdfrwt beam="1">  1       21 0.79679256E-01 0.97875836E+02</pdfrwt>
<pdfrwt beam="2">  1       21 0.31216139E-02 0.97875836E+02</pdfrwt>
<totfact> 0.82685865E+05</totfact>
</mgrwt>
</event>
<event>
 5    1  0.1624116E+000  0.6952228E+02  0.7546771E-02  0.1361725E+00
         21   -1    0    0  503  502  0.00000000000E+00  0.00000000000E+00  0.35284584954E+02  0.35284584954E+02  0.00000000000E+00 0.  1.
         21   -1    0    0  501  503 -0.00000000000E+00 -0.00000000000E+00 -0.22141841334E+03  0.22141841334E+03  0.00000000000E+00 0. -1.
         24    1    1    2    0    0 -0.27013848267E+02 -0.37558728372E+02 -0.12893376307E+03  0.15884438073E+03  0.80419002446E+02 0. -1.
          1    1    1    2  501    0  0.13843986638E+02  0.18815367328E+02 -0.68458265355E+02  0.72334003824E+02  0.00000000000E+00 0. -1.
         -2    1    1    2    0  502  0.13169861629E+02  0.18743361044E+02  0.11258200040E+02  0.25524613742E+02  0.00000000000E+00 0.  1.
<mgrwt>
<rscale>  2 0.69522276E+02</rscale>
<asrwt>0</asrwt>
<pdfrwt beam="1">  1       21 0.54283976E-02 0.69522276E+02</pdfrwt>
<pdfrwt beam="2">  1       21 0.34064372E-01 0.69522276E+02</pdfrwt>
<totfact> 0.18920013E+06</totfact>
</mgrwt>
</event>
<event>
 5    1  0.1624116E+000  0.7512573E+02  0.7546771E-02  0.1343482E+00
         21   -1    0    0  503  502  0.00000000000E+00  0.00000000000E+00  0.70303951793E+03  0.70303951793E+03  0.00000000000E+00 0.  1.
         21   -1    0    0  501  503 -0.00000000000E+00 -0.00000000000E+00 -0.85169158365E+01  0.85169158365E+01  0.00000000000E+00 0.  1.
         24    1    1    2    0    0 -0.18084065563E+02 -0.36371346457E+02  0.42280099094E+03  0.43229365270E+03  0.80419002446E+02 0.  1.
          1    1    1    2  501    0  0.23523646820E+02  0.14517866174E+00  0.60961951414E+02  0.65343267111E+02  0.00000000000E+00 0. -1.
         -2    1    1    2    0  502 -0.54395812567E+01  0.36226167795E+02  0.21075965974E+03  0.21391951396E+03  0.00000000000E+00 0.  1.
<mgrwt>
<rscale>  2 0.75125732E+02</rscale>
<asrwt>0</asrwt>
<pdfrwt beam="1">  1       21 0.10815988E+00 0.75125732E+02</pdfrwt>
<pdfrwt beam="2">  1       21 0.13102953E-02 0.75125732E+02</pdfrwt>
<totfact> 0.16476991E+06</totfact>
</mgrwt>
</event>
<event>
 5    1  0.1624116E+000  0.6884617E+02  0.7546771E-02  0.1364061E+00
         21   -1    0    0  503  502  0.00000000000E+00  0.00000000000E+00  0.17275926078E+03  0.17275926078E+03  0.00000000000E+00 0.  1.
         21   -1    0    0  501  503 -0.00000000000E+00 -0.00000000000E+00 -0.93553826922E+02  0.93553826922E+02  0.00000000000E+00 0.  1.
         24    1    1    2    0    0 -0.75275168528E-02  0.45015389700E+02 -0.45970035550E+02  0.10298954068E+03  0.80419002446E+02 0.  1.
          1    1    1    2  501    0  0.34207161929E+01 -0.21866533863E+02 -0.11304440892E+02  0.24852303441E+02  0.00000000000E+00 0. -1.
         -2    1    1    2    0  502 -0.34131886760E+01 -0.23148855836E+02  0.13647991030E+03  0.13847124358E+03  0.00000000000E+00 0.  1.
<mgrwt>
<rscale>  2 0.68846173E+02</rscale>
<asrwt>0</asrwt>
<pdfrwt beam="1">  1       21 0.26578348E-01 0.68846173E+02</pdfrwt>
<pdfrwt beam="2">  1       21 0.14392896E-01 0.68846173E+02</pdfrwt>
<totfact> 0.57253934E+05</totfact>
</mgrwt>
</event>
<event>
 5    1  0.1624116E+000  0.8120358E+02  0.7546771E-02  0.1325670E+00
         21   -1    0    0  503  502  0.00000000000E+00  0.00000000000E+00  0.75949497265E+02  0.75949497265E+02  0.00000000000E+00 0. -1.
         21   -1    0    0  501  503 -0.00000000000E+00 -0.00000000000E+00 -0.13531703808E+03  0.13531703808E+03  0.00000000000E+00 0.  1.
         24    1    1    2    0    0 -0.11510533037E+02 -0.37270805669E+02 -0.79045012932E+01  0.89729050040E+02  0.80419002446E+02 0. -1.
          1    1    1    2  501    0 -0.25641069853E+02  0.14676944961E+02 -0.68684224911E+02  0.74768977044E+02  0.00000000000E+00 0. -1.
         -2    1    1    2    0  502  0.37151602890E+02  0.22593860707E+02  0.17221185388E+02  0.46768508263E+02  0.00000000000E+00 0.  1.
<mgrwt>
<rscale>  2 0.81203580E+02</rscale>
<asrwt>0</asrwt>
<pdfrwt beam="1">  1       21 0.11684538E-01 0.81203580E+02</pdfrwt>
<pdfrwt beam="2">  1       21 0.20818006E-01 0.81203580E+02</pdfrwt>
<totfact> 0.13016535E+06</totfact>
</mgrwt>
</event>
<event>
 5    1  0.1624116E+000  0.2262141E+03  0.7546771E-02  0.1129333E+00
         21   -1    0    0  501  502  0.00000000000E+00  0.00000000000E+00  0.57470456607E+02  0.57470456607E+02  0.00000000000E+00 0. -1.
         21   -1    0    0  502  503 -0.00000000000E+00 -0.00000000000E+00 -0.19669134605E+04  0.19669134605E+04  0.00000000000E+00 0.  1.
         24    1    1    2    0    0  0.54576360360E+01  0.16501413170E+03 -0.25043196119E+03  0.31055246351E+03  0.80419002446E+02 0. -1.
          1    1    1    2  501    0 -0.63487962629E+02 -0.19384888202E+03 -0.36445644116E+03  0.41765608815E+03  0.00000000000E+00 0. -1.
         -2    1    1    2    0  503  0.58030326593E+02  0.28834750320E+02 -0.12945546015E+04  0.12961753654E+04  0.00000000000E+00 0.  1.
<mgrwt>
<rscale>  2 0.22621413E+03</rscale>
<asrwt>0</asrwt>
<pdfrwt beam="1">  1       21 0.88416101E-02 0.22621413E+03</pdfrwt>
<pdfrwt beam="2">  1       21 0.30260202E+00 0.22621413E+03</pdfrwt>
<totfact> 0.31988463E+03</totfact>
</mgrwt>
</event>
<event>
 5    1  0.2149724E+000  0.1203354E+03  0.7546771E-02  0.1242545E+00
         21   -1    0    0  503  502  0.00000000000E+00  0.00000000000E+00  0.10819608412E+04  0.10819608412E+04  0.00000000000E+00 0.  1.
         21   -1    0    0  501  503 -0.00000000000E+00 -0.00000000000E+00 -0.13535964492E+03  0.13535964492E+03  0.00000000000E+00 0. -1.
         24    1    1    2    0    0  0.23057189102E+02 -0.47114851899E+02  0.21043134124E+03  0.23130068865E+03  0.80419002446E+02 0. -1.
          1    1    1    2  501    0 -0.13019603765E+02  0.94920286003E+02 -0.10574256547E+03  0.14269148864E+03  0.00000000000E+00 0. -1.
         -2    1    1    2    0  502 -0.10037585337E+02 -0.47805434104E+02  0.84191242057E+03  0.84332830888E+03  0.00000000000E+00 0.  1.
<mgrwt>
<rscale>  2 0.12033537E+03</rscale>
<asrwt>0</asrwt>
<pdfrwt beam="1">  1       21 0.16645551E+00 0.12033537E+03</pdfrwt>
<pdfrwt beam="2">  1       21 0.20824561E-01 0.12033537E+03</pdfrwt>
<totfact> 0.52083095E+03</totfact>
</mgrwt>
</event>
<event>
 5    1  0.1624116E+000  0.1090756E+03  0.7546771E-02  0.1262291E+00
         21   -1    0    0  501  502  0.00000000000E+00  0.00000000000E+00  0.29397681497E+02  0.29397681497E+02  0.00000000000E+00 0.  1.
         21   -1    0    0  502  503 -0.00000000000E+00 -0.00000000000E+00 -0.54357140697E+03  0.54357140697E+03  0.00000000000E+00 0.  1.
         24    1    1    2    0    0 -0.92083838785E+02  0.19773452579E+02 -0.18648065703E+03  0.22385860313E+03  0.80419002446E+02 0.  1.
          1    1    1    2  501    0  0.39865909110E+02 -0.11004733921E+02 -0.43481069805E+02  0.60008318667E+02  0.00000000000E+00 0. -1.
         -2    1    1    2    0  503  0.52217929675E+02 -0.87687186583E+01 -0.28421199863E+03  0.28910216667E+03  0.00000000000E+00 0.  1.
<mgrwt>
<rscale>  2 0.10907560E+03</rscale>
<asrwt>0</asrwt>
<pdfrwt beam="1">  1       21 0.45227202E-02 0.10907560E+03</pdfrwt>
<pdfrwt beam="2">  1       21 0.83626371E-01 0.10907560E+03</pdfrwt>
<totfact> 0.40278607E+05</totfact>
</mgrwt>
</event>
<event>
 5    1  0.1624116E+000  0.7394138E+02  0.7546771E-02  0.1347181E+00
         21   -1    0    0  501  502  0.00000000000E+00  0.00000000000E+00  0.31799306344E+02  0.31799306344E+02  0.00000000000E+00 0. -1.
         21   -1    0    0  502  503 -0.00000000000E+00 -0.00000000000E+00 -0.23156570644E+03  0.23156570644E+03  0.00000000000E+00 0.  1.
         24    1    1    2    0    0  0.27928962885E+02  0.17402426051E+02 -0.49976734408E+02  0.10023852222E+03  0.80419002446E+02 0.  0.
          1    1    1    2  501    0 -0.36555310418E+02  0.50840732718E+01 -0.62582735257E+02  0.72654919124E+02  0.00000000000E+00 0. -1.
         -2    1    1    2    0  503  0.86263475325E+01 -0.22486499323E+02 -0.87206930436E+02  0.90471571444E+02  0.00000000000E+00 0.  1.
<mgrwt>
<rscale>  2 0.73941381E+02</rscale>
<asrwt>0</asrwt>
<pdfrwt beam="1">  1       21 0.48922011E-02 0.73941381E+02</pdfrwt>
<pdfrwt beam="2">  1       21 0.35625493E-01 0.73941381E+02</pdfrwt>
<totfact> 0.20675012E+06</totfact>
</mgrwt>
</event>
<event>
 5    1  0.1624116E+000  0.1212531E+03  0.7546771E-02  0.1241044E+00
         21   -1    0    0  501  502  0.00000000000E+00  0.00000000000E+00  0.70654657717E+03  0.70654657717E+03  0.00000000000E+00 0.  1.
         21   -1    0    0  502  503 -0.00000000000E+00 -0.00000000000E+00 -0.36943739625E+02  0.36943739625E+02  0.00000000000E+00 0.  1.
         24    1    1    2    0    0 -0.65716587185E+02  0.85273995759E+02  0.46943302012E+03  0.48828772308E+03  0.80419002446E+02 0.  1.
          1    1    1    2  501    0  0.15136503697E+02 -0.13243685417E+02  0.15495099973E+03  0.15625082805E+03  0.00000000000E+00 0. -1.
         -2    1    1    2    0  503  0.50580083488E+02 -0.72030310342E+02  0.45218817691E+02  0.98951765659E+02  0.00000000000E+00 0.  1.
<mgrwt>
<rscale>  2 0.12125308E+03</rscale>
<asrwt>0</asrwt>
<pdfrwt beam="1">  1       21 0.10869946E+00 0.12125308E+03</pdfrwt>
<pdfrwt beam="2">  1       21 0.56836528E-02 0.12125308E+03</pdfrwt>
<totfact> 0.14937096E+05</totfact>
</mgrwt>
</event>
<event>
 5    1  0.1624116E+000  0.6343234E+02  0.7546771E-02  0.1383967E+00
         21   -1    0    0  501  502  0.00000000000E+00  0.00000000000E+00  0.17347123481E+04  0.17347123481E+04  0.00000000000E+00 0.  1.
         21   -1    0    0  502  503 -0.00000000000E+00 -0.00000000000E+00 -0.45805993840E+01  0.45805993840E+01  0.00000000000E+00 0.  1.
         24    1    1    2    0    0  0.10466897156E+02 -0.44887638636E+01  0.14195766230E+04  0.14218982768E+04  0.80419002446E+02 0.  1.
          1    1    1    2  501    0 -0.13298498873E+02 -0.18331951013E+02  0.26858083768E+03  0.26953399947E+03  0.00000000000E+00 0. -1.
         -2    1    1    2    0  503  0.28316017174E+01  0.22820714876E+02  0.41974287951E+02  0.47860671169E+02  0.00000000000E+00 0.  1.
<mgrwt>
<rscale>  2 0.63432338E+02</rscale>
<asrwt>0</asrwt>
<pdfrwt beam="1">  1       21 0.26687830E+00 0.63432338E+02</pdfrwt>
<pdfrwt beam="2">  1       21 0.70470898E-03 0.63432338E+02</pdfrwt>
<totfact> 0.38423969E+05</totfact>
</mgrwt>
</event>
<event>
 5    1  0.1624116E+000  0.1124522E+03  0.7546771E-02  0.1256095E+00
         21   -1    0    0  503  502  0.00000000000E+00  0.00000000000E+00  0.31611870391E+03  0.31611870391E+03  0.00000000000E+00 0.  1.
         21   -1    0    0  501  503 -0.00000000000E+00 -0.00000000000E+00 -0.44327385269E+02  0.44327385269E+02  0.00000000000E+00 0. -1.
         24    1    1    2    0    0 -0.43990080016E+01  0.65392458832E+01  0.15199621370E+03  0.17213999518E+03  0.80419002446E+02 0.  0.
          1    1    1    2  501    0  0.27517821775E+02 -0.70718589523E+02  0.51039222632E+02  0.91451362298E+02  0.00000000000E+00 0. -1.
         -2    1    1    2    0  502 -0.23118813773E+02  0.64179343639E+02  0.68755882312E+02  0.96854731701E+02  0.00000000000E+00 0.  1.
<mgrwt>
<rscale>  2 0.11245219E+03</rscale>
<asrwt>0</asrwt>
<pdfrwt beam="1">  1       21 0.48633645E-01 0.11245219E+03</pdfrwt>
<pdfrwt beam="2">  1       21 0.68195979E-02 0.11245219E+03</pdfrwt>
<totfact> 0.64309124E+05</totfact>
</mgrwt>
</event>
<event>
 5    1  0.1624116E+000  0.8310981E+02  0.7546771E-02  0.1320451E+00
         21   -1    0    0  501  502  0.00000000000E+00  0.00000000000E+00  0.63401188115E+02  0.63401188115E+02  0.00000000000E+00 0.  1.
         21   -1    0    0  502  503 -0.00000000000E+00 -0.00000000000E+00 -0.15844040962E+03  0.15844040962E+03  0.00000000000E+00 0. -1.
         24    1    1    2    0    0  0.31815828607E+01  0.12352795404E+02 -0.10791740486E+03  0.13518911291E+03  0.80419002446E+02 0. -1.
          1    1    1    2  501    0  0.38283752985E+02  0.71937333805E+01  0.12152105794E+02  0.40805259683E+02  0.00000000000E+00 0. -1.
         -2    1    1    2    0  503 -0.41465335845E+02 -0.19546528784E+02  0.72607756307E+00  0.45847225139E+02  0.00000000000E+00 0.  1.
<mgrwt>
<rscale>  2 0.83109809E+02</rscale>
<asrwt>0</asrwt>
<pdfrwt beam="1">  1       21 0.97540289E-02 0.83109809E+02</pdfrwt>
<pdfrwt beam="2">  1       21 0.24375448E-01 0.83109809E+02</pdfrwt>
<totfact> 0.13317310E+06</totfact>
</mgrwt>
</event>
<event>
 5    1  0.1624116E+000  0.1111041E+03  0.7546771E-02  0.1258539E+00
         21   -1    0    0  503  502  0.00000000000E+00  0.00000000000E+00  0.87304776996E+03  0.87304776996E+03  0.00000000000E+00 0.  1.
         21   -1    0    0  501  503 -0.00000000000E+00 -0.00000000000E+00 -0.16381491617E+02  0.16381491617E+02  0.00000000000E+00 0.  1.
         24    1    1    2    0    0  0.74682106007E+02  0.88435316517E+00  0.26139816274E+03  0.28350381740E+03  0.80419002446E+02 0.  1.
          1    1    1    2  501    0  0.14239477126E+02  0.16559819014E+02  0.91337700641E+02  0.93912543747E+02  0.00000000000E+00 0. -1.
         -2    1    1    2    0  502 -0.88921583133E+02 -0.17444172179E+02  0.50393041496E+03  0.51201290043E+03  0.00000000000E+00 0.  1.
<mgrwt>
<rscale>  2 0.11110410E+03</rscale>
<asrwt>0</asrwt>
<pdfrwt beam="1">  1       21 0.13431501E+00 0.11110410E+03</pdfrwt>
<pdfrwt beam="2">  1       21 0.25202302E-02 0.11110410E+03</pdfrwt>
<totfact> 0.34374215E+05</totfact>
</mgrwt>
</event>
<event>
 5    1  0.1624116E+000  0.7387478E+02  0.7546771E-02  0.1347391E+00
         21   -1    0    0  503  502  0.00000000000E+00  0.00000000000E+00  0.83643560418E+02  0.83643560418E+02  0.00000000000E+00 0.  1.
         21   -1    0    0  501  503 -0.00000000000E+00 -0.00000000000E+00 -0.73247401465E+02  0.73247401465E+02  0.00000000000E+00 0. -1.
         24    1    1    2    0    0  0.11337979318E+01 -0.26185683956E+02  0.28166566413E+02  0.89149015473E+02  0.80419002446E+02 0.  1.
          1    1    1    2  501    0  0.26195991591E+02  0.24367078483E+02 -0.18632801369E+02  0.40338142943E+02  0.00000000000E+00 0. -1.
         -2    1    1    2    0  502 -0.27329789523E+02  0.18186054731E+01  0.86239390925E+00  0.27403803467E+02  0.00000000000E+00 0.  1.
<mgrwt>
<rscale>  2 0.73874778E+02</rscale>
<asrwt>0</asrwt>
<pdfrwt beam="1">  1       21 0.12868240E-01 0.73874778E+02</pdfrwt>
<pdfrwt beam="2">  1       21 0.11268831E-01 0.73874778E+02</pdfrwt>
<totfact> 0.32674841E+06</totfact>
</mgrwt>
</event>
<event>
 5    1  0.1624116E+000  0.7429019E+02  0.7546771E-02  0.1346083E+00
         21   -1    0    0  501  502  0.00000000000E+00  0.00000000000E+00  0.18106431216E+02  0.18106431216E+02  0.00000000000E+00 0. -1.
         21   -1    0    0  502  503 -0.00000000000E+00 -0.00000000000E+00 -0.49579232985E+03  0.49579232985E+03  0.00000000000E+00 0.  1.
         24    1    1    2    0    0 -0.22692764790E+02 -0.21816200590E+02 -0.21235267066E+03  0.22924175203E+03  0.80419002446E+02 0.  1.
          1    1    1    2  501    0 -0.16860497110E+02  0.13969804854E+02 -0.66984432773E+01  0.22897618933E+02  0.00000000000E+00 0. -1.
         -2    1    1    2    0  503  0.39553261901E+02  0.78463957362E+01 -0.25863478469E+03  0.26175939010E+03  0.00000000000E+00 0.  1.
<mgrwt>
<rscale>  2 0.74290191E+02</rscale>
<asrwt>0</asrwt>
<pdfrwt beam="1">  1       21 0.27856050E-02 0.74290191E+02</pdfrwt>
<pdfrwt beam="2">  1       21 0.76275739E-01 0.74290191E+02</pdfrwt>
<totfact> 0.10908870E+06</totfact>
</mgrwt>
</event>
<event>
 5    1  0.1624116E+000  0.6879046E+02  0.7546771E-02  0.1364255E+00
         21   -1    0    0  503  502  0.00000000000E+00  0.00000000000E+00  0.19654489276E+02  0.19654489276E+02  0.00000000000E+00 0. -1.
         21   -1    0    0  501  503 -0.00000000000E+00 -0.00000000000E+00 -0.31987377075E+03  0.31987377075E+03  0.00000000000E+00 0.  1.
         24    1    1    2    0    0  0.37938303487E+01 -0.30577730764E+02 -0.21419482219E+03  0.23085932637E+03  0.80419002446E+02 0.  1.
          1    1    1    2  501    0 -0.22153817683E+02  0.21909043393E+02 -0.82334512244E+02  0.88032776434E+02  0.00000000000E+00 0. -1.
         -2    1    1    2    0  502  0.18359987334E+02  0.86686873707E+01 -0.36899470461E+01  0.20636157221E+02  0.00000000000E+00 0.  1.
<mgrwt>
<rscale>  2 0.68790465E+02</rscale>
<asrwt>0</asrwt>
<pdfrwt beam="1">  1       21 0.30237679E-02 0.68790465E+02</pdfrwt>
<pdfrwt beam="2">  1       21 0.49211345E-01 0.68790465E+02</pdfrwt>
<totfact> 0.23863047E+06</totfact>
</mgrwt>
</event>
<event>
 5    1  0.1624116E+000  0.1881903E+03  0.7546771E-02  0.1160104E+00
         21   -1    0    0  501  502  0.00000000000E+00  0.00000000000E+00  0.65315200025E+03  0.65315200025E+03  0.00000000000E+00 0. -1.
         21   -1    0    0  502  503 -0.00000000000E+00 -0.00000000000E+00 -0.71701193911E+02  0.71701193911E+02  0.00000000000E+00 0. -1.
         24    1    1    2    0    0  0.46501386634E+02  0.16398227492E+03  0.21148320981E+03  0.28327535974E+03  0.80419002446E+02 0. -1.
          1    1    1    2  501    0 -0.11461248497E+02 -0.14959719299E+03  0.37449354408E+03  0.40343040903E+03  0.00000000000E+00 0. -1.
         -2    1    1    2    0  503 -0.35040138137E+02 -0.14385081927E+02 -0.45259475636E+01  0.38147425392E+02  0.00000000000E+00 0.  1.
<mgrwt>
<rscale>  2 0.18819025E+03</rscale>
<asrwt>0</asrwt>
<pdfrwt beam="1">  1       21 0.10048492E+00 0.18819025E+03</pdfrwt>
<pdfrwt beam="2">  1       21 0.11030953E-01 0.18819025E+03</pdfrwt>
<totfact> 0.55462674E+04</totfact>
</mgrwt>
</event>
<event>
 5    1  0.1624116E+000  0.6840111E+02  0.7546771E-02  0.1365616E+00
         21   -1    0    0  503  502  0.00000000000E+00  0.00000000000E+00  0.85616770404E+01  0.85616770404E+01  0.00000000000E+00 0. -1.
         21   -1    0    0  501  503 -0.00000000000E+00 -0.00000000000E+00 -0.63798819906E+03  0.63798819906E+03  0.00000000000E+00 0. -1.
         24    1    1    2    0    0  0.26369913537E+02  0.70467634897E+01 -0.44008791789E+03  0.44820711802E+03  0.80419002446E+02 0. -1.
          1    1    1    2  501    0 -0.21352024755E+02  0.17012187102E+02 -0.14591191708E+03  0.14844396592E+03  0.00000000000E+00 0. -1.
         -2    1    1    2    0  502 -0.50178887820E+01 -0.24058950591E+02 -0.43426687046E+02  0.49898792162E+02  0.00000000000E+00 0.  1.
<mgrwt>
<rscale>  2 0.68401107E+02</rscale>
<asrwt>0</asrwt>
<pdfrwt beam="1">  1       21 0.13171812E-02 0.68401107E+02</pdfrwt>
<pdfrwt beam="2">  1       21 0.98152025E-01 0.68401107E+02</pdfrwt>
<totfact> 0.20393186E+06</totfact>
</mgrwt>
</event>
<event>
 5    1  0.1624116E+000  0.1269972E+03  0.7546771E-02  0.1231981E+00
         21   -1    0    0  503  502  0.00000000000E+00  0.00000000000E+00  0.27921998392E+02  0.27921998392E+02  0.00000000000E+00 0.  1.
         21   -1    0    0  501  503 -0.00000000000E+00 -0.00000000000E+00 -0.59013345877E+03  0.59013345877E+03  0.00000000000E+00 0. -1.
         24    1    1    2    0    0 -0.47584407166E+02 -0.73007247864E+02 -0.25543016965E+03  0.28161342576E+03  0.80419002446E+02 0.  1.
          1    1    1    2  501    0 -0.10369232964E+02 -0.21888410437E+02 -0.84471389834E+02  0.87875134163E+02  0.00000000000E+00 0. -1.
         -2    1    1    2    0  502  0.57953640130E+02  0.94895658301E+02 -0.22230990090E+03  0.24856689725E+03  0.00000000000E+00 0.  1.
<mgrwt>
<rscale>  2 0.12699720E+03</rscale>
<asrwt>0</asrwt>
<pdfrwt beam="1">  1       21 0.42956924E-02 0.12699720E+03</pdfrwt>
<pdfrwt beam="2">  1       21 0.90789756E-01 0.12699720E+03</pdfrwt>
<totfact> 0.36311852E+05</totfact>
</mgrwt>
</event>
<event>
 5    1  0.1624116E+000  0.1378482E+03  0.7546771E-02  0.1216254E+00
         21   -1    0    0  501  502  0.00000000000E+00  0.00000000000E+00  0.11837567539E+03  0.11837567539E+03  0.00000000000E+00 0. -1.
         21   -1    0    0  502  503 -0.00000000000E+00 -0.00000000000E+00 -0.38378197239E+03  0.38378197239E+03  0.00000000000E+00 0. -1.
         24    1    1    2    0    0  0.59409780417E+02 -0.10145477968E+03 -0.12843876613E+03  0.19179761972E+03  0.80419002446E+02 0. -1.
          1    1    1    2  501    0 -0.35978151950E+02  0.10365313670E+03  0.50951551931E+02  0.12097297554E+03  0.00000000000E+00 0. -1.
         -2    1    1    2    0  503 -0.23431628468E+02 -0.21983570202E+01 -0.18791908280E+03  0.18938705253E+03  0.00000000000E+00 0.  1.
<mgrwt>
<rscale>  2 0.13784824E+03</rscale>
<asrwt>0</asrwt>
<pdfrwt beam="1">  1       21 0.18211643E-01 0.13784824E+03</pdfrwt>
<pdfrwt beam="2">  1       21 0.59043380E-01 0.13784824E+03</pdfrwt>
<totfact> 0.75460481E+04</totfact>
</mgrwt>
</event>
<event>
 5    1  0.1624116E+000  0.1059492E+03  0.7546771E-02  0.1268261E+00
         21   -1    0    0  501  502  0.00000000000E+00  0.00000000000E+00  0.41895169607E+02  0.41895169607E+02  0.00000000000E+00 0. -1.
         21   -1    0    0  502  503 -0.00000000000E+00 -0.00000000000E+00 -0.32136012315E+03  0.32136012315E+03  0.00000000000E+00 0. -1.
         24    1    1    2    0    0  0.53245508555E+02  0.57227832052E+02 -0.21535154611E+03  0.24280365176E+03  0.80419002446E+02 0. -1.
          1    1    1    2  501    0 -0.11079886576E+02 -0.56501734558E+02 -0.24436058054E+02  0.62548627706E+02  0.00000000000E+00 0. -1.
         -2    1    1    2    0  503 -0.42165621979E+02 -0.72609749364E+00 -0.39677349380E+02  0.57903013292E+02  0.00000000000E+00 0.  1.
<mgrwt>
<rscale>  2 0.10594920E+03</rscale>
<asrwt>0</asrwt>
<pdfrwt beam="1">  1       21 0.64454106E-02 0.10594920E+03</pdfrwt>
<pdfrwt beam="2">  1       21 0.49440020E-01 0.10594920E+03</pdfrwt>
<totfact> 0.68432927E+05</totfact>
</mgrwt>
</event>
<event>
 5    1  0.1624116E+000  0.8983461E+02  0.7546771E-02  0.1303253E+00
         21   -1    0    0  503  502  0.00000000000E+00  0.00000000000E+00  0.70130660949E+02  0.70130660949E+02  0.00000000000E+00 0.  1.
         21   -1    0    0  501  503 -0.00000000000E+00 -0.00000000000E+00 -0.41217591578E+03  0.41217591578E+03  0.00000000000E+00 0.  1.
         24    1    1    2    0    0  0.30783639674E+02 -0.14402266318E+02 -0.22111887907E+03  0.23773058781E+03  0.80419002446E+02 0.  1.
          1    1    1    2  501    0 -0.11901552232E+01  0.47757720834E+02 -0.17098713877E+03  0.17753539927E+03  0.00000000000E+00 0. -1.
         -2    1    1    2    0  502 -0.29593484451E+02 -0.33355454516E+02  0.50060763006E+02  0.67040589650E+02  0.00000000000E+00 0.  1.
<mgrwt>
<rscale>  2 0.89834610E+02</rscale>
<asrwt>0</asrwt>
<pdfrwt beam="1">  1       21 0.10789333E-01 0.89834610E+02</pdfrwt>
<pdfrwt beam="2">  1       21 0.63411679E-01 0.89834610E+02</pdfrwt>
<totfact> 0.16870992E+05</totfact>
</mgrwt>
</event>
<event>
 5    1  0.1624116E+000  0.7312838E+02  0.7546771E-02  0.1349767E+00
         21   -1    0    0  501  502  0.00000000000E+00  0.00000000000E+00  0.18548080505E+03  0.18548080505E+03  0.00000000000E+00 0.  1.
         21   -1    0    0  502  503 -0.00000000000E+00 -0.00000000000E+00 -0.38789184507E+02  0.38789184507E+02  0.00000000000E+00 0. -1.
         24    1    1    2    0    0  0.34093459999E+00 -0.46200490333E+02  0.12069219623E+03  0.15221177263E+03  0.80419002446E+02 0.  0.
          1    1    1    2  501    0 -0.13661909849E+02  0.22482534267E+02  0.34656870247E+02  0.43511042083E+02  0.00000000000E+00 0. -1.
         -2    1    1    2    0  503  0.13320975249E+02  0.23717956066E+02 -0.86574459298E+01  0.28547174844E+02  0.00000000000E+00 0.  1.
<mgrwt>
<rscale>  2 0.73128381E+02</rscale>
<asrwt>0</asrwt>
<pdfrwt beam="1">  1       21 0.28535508E-01 0.73128381E+02</pdfrwt>
<pdfrwt beam="2">  1       21 0.59675670E-02 0.73128381E+02</pdfrwt>
<totfact> 0.22701781E+06</totfact>
</mgrwt>
</event>
<event>
 5    1  0.1624116E+000  0.7817526E+02  0.7546771E-02  0.1334311E+00
         21   -1    0    0  503  502  0.00000000000E+00  0.00000000000E+00  0.57957623632E+02  0.57957623632E+02  0.00000000000E+00 0.  1.
         21   -1    0    0  501  503 -0.00000000000E+00 -0.00000000000E+00 -0.20990941376E+03  0.20990941376E+03  0.00000000000E+00 0. -1.
         24    1    1    2    0    0  0.11720629647E+02 -0.37435394707E+02 -0.17091459061E+03  0.19291914154E+03  0.80419002446E+02 0. -1.
          1    1    1    2  501    0 -0.20330293806E+02 -0.70846610107E+01 -0.70712231699E+01  0.22660879617E+02  0.00000000000E+00 0. -1.
         -2    1    1    2    0  502  0.86096641592E+01  0.44520055718E+02  0.26034023658E+02  0.52287016227E+02  0.00000000000E+00 0.  1.
<mgrwt>
<rscale>  2 0.78175260E+02</rscale>
<asrwt>0</asrwt>
<pdfrwt beam="1">  1       21 0.89165576E-02 0.78175260E+02</pdfrwt>
<pdfrwt beam="2">  1       21 0.32293756E-01 0.78175260E+02</pdfrwt>
<totfact> 0.91206827E+05</totfact>
</mgrwt>
</event>
<event>
 5    1  0.1624116E+000  0.7076268E+02  0.7546771E-02  0.1357519E+00
         21   -1    0    0  503  502  0.00000000000E+00  0.00000000000E+00  0.25490192807E+03  0.25490192807E+03  0.00000000000E+00 0.  1.
         21   -1    0    0  501  503 -0.00000000000E+00 -0.00000000000E+00 -0.59410790208E+02  0.59410790208E+02  0.00000000000E+00 0.  1.
         24    1    1    2    0    0  0.23568518866E+02  0.36301823896E+02  0.46356134388E+01  0.91443984854E+02  0.80419002446E+02 0.  1.
          1    1    1    2  501    0 -0.36484329546E+01 -0.28615876923E+02 -0.19228737390E+01  0.28911536080E+02  0.00000000000E+00 0. -1.
         -2    1    1    2    0  502 -0.19920085911E+02 -0.76859469727E+01  0.19277839816E+03  0.19395719734E+03  0.00000000000E+00 0.  1.
<mgrwt>
<rscale>  2 0.70762682E+02</rscale>
<asrwt>0</asrwt>
<pdfrwt beam="1">  1       21 0.39215681E-01 0.70762682E+02</pdfrwt>
<pdfrwt beam="2">  1       21 0.91401217E-02 0.70762682E+02</pdfrwt>
<totfact> 0.59907378E+05</totfact>
</mgrwt>
</event>
<event>
 5    1  0.1624116E+000  0.9909667E+02  0.7546771E-02  0.1282207E+00
         21   -1    0    0  501  502  0.00000000000E+00  0.00000000000E+00  0.70978313736E+02  0.70978313736E+02  0.00000000000E+00 0. -1.
         21   -1    0    0  502  503 -0.00000000000E+00 -0.00000000000E+00 -0.49134537368E+03  0.49134537368E+03  0.00000000000E+00 0.  1.
         24    1    1    2    0    0 -0.65187217009E+01 -0.44319068666E+02 -0.18762658517E+03  0.20899192568E+03  0.80419002446E+02 0.  0.
          1    1    1    2  501    0  0.32110603960E+02 -0.19370428173E+02  0.49931489206E+02  0.62445640269E+02  0.00000000000E+00 0. -1.
         -2    1    1    2    0  503 -0.25591882259E+02  0.63689496839E+02 -0.28267196398E+03  0.29088612148E+03  0.00000000000E+00 0.  1.
<mgrwt>
<rscale>  2 0.99096671E+02</rscale>
<asrwt>0</asrwt>
<pdfrwt beam="1">  1       21 0.10919740E-01 0.99096671E+02</pdfrwt>
<pdfrwt beam="2">  1       21 0.75591598E-01 0.99096671E+02</pdfrwt>
<totfact> 0.11265514E+05</totfact>
</mgrwt>
</event>
<event>
 5    1  0.1624116E+000  0.6568346E+02  0.7546771E-02  0.1375419E+00
         21   -1    0    0  503  502  0.00000000000E+00  0.00000000000E+00  0.96878911108E+02  0.96878911108E+02  0.00000000000E+00 0. -1.
         21   -1    0    0  501  503 -0.00000000000E+00 -0.00000000000E+00 -0.88145506516E+02  0.88145506516E+02  0.00000000000E+00 0. -1.
         24    1    1    2    0    0 -0.18365079845E+02  0.19826315101E+01  0.63360111515E+02  0.10403329597E+03  0.80419002446E+02 0. -1.
          1    1    1    2  501    0  0.10479762166E+02  0.21589019607E+02 -0.50341312232E+02  0.55768798623E+02  0.00000000000E+00 0. -1.
         -2    1    1    2    0  502  0.78853176791E+01 -0.23571651117E+02 -0.42853946907E+01  0.25222323028E+02  0.00000000000E+00 0.  1.
<mgrwt>
<rscale>  2 0.65683460E+02</rscale>
<asrwt>0</asrwt>
<pdfrwt beam="1">  1       21 0.14904448E-01 0.65683460E+02</pdfrwt>
<pdfrwt beam="2">  1       21 0.13560847E-01 0.65683460E+02</pdfrwt>
<totfact> 0.18140306E+06</totfact>
</mgrwt>
</event>
<event>
 5    1  0.1624116E+000  0.7796169E+02  0.7546771E-02  0.1334937E+00
         21   -1    0    0  501  502  0.00000000000E+00  0.00000000000E+00  0.24867132298E+03  0.24867132298E+03  0.00000000000E+00 0. -1.
         21   -1    0    0  502  503 -0.00000000000E+00 -0.00000000000E+00 -0.41955039192E+02  0.41955039192E+02  0.00000000000E+00 0. -1.
         24    1    1    2    0    0  0.28195557965E+02  0.49133084234E+02  0.48299827341E+02  0.10958621597E+03  0.80419002446E+02 0. -1.
          1    1    1    2  501    0 -0.17136377326E+02 -0.19683919900E+02  0.14415970209E+03  0.14650300965E+03  0.00000000000E+00 0. -1.
         -2    1    1    2    0  503 -0.11059180639E+02 -0.29449164334E+02  0.14256754359E+02  0.34537136552E+02  0.00000000000E+00 0.  1.
<mgrwt>
<rscale>  2 0.77961694E+02</rscale>
<asrwt>0</asrwt>
<pdfrwt beam="1">  1       21 0.38257126E-01 0.77961694E+02</pdfrwt>
<pdfrwt beam="2">  1       21 0.64546215E-02 0.77961694E+02</pdfrwt>
<totfact> 0.11360730E+06</totfact>
</mgrwt>
</event>
<event>
 5    1  0.1624116E+000  0.9043787E+02  0.7546771E-02  0.1301795E+00
         21   -1    0    0  501  502  0.00000000000E+00  0.00000000000E+00  0.44775001328E+02  0.44775001328E+02  0.00000000000E+00 0. -1.
         21   -1    0    0  502  503 -0.00000000000E+00 -0.00000000000E+00 -0.18801053169E+03  0.18801053169E+03  0.00000000000E+00 0.  1.
         24    1    1    2    0    0  0.19566801607E+02  0.19782356768E+02 -0.57321247250E+02  0.10260186502E+03  0.80419002446E+02 0. -1.
          1    1    1    2  501    0 -0.18290733136E+02 -0.56321869853E+02 -0.39868901865E+02  0.71387907088E+02  0.00000000000E+00 0. -1.
         -2    1    1    2    0  503 -0.12760684711E+01  0.36539513085E+02 -0.46045381247E+02  0.58795760914E+02  0.00000000000E+00 0.  1.
<mgrwt>
<rscale>  2 0.90437868E+02</rscale>
<asrwt>0</asrwt>
<pdfrwt beam="1">  1       21 0.68884618E-02 0.90437868E+02</pdfrwt>
<pdfrwt beam="2">  1       21 0.28924697E-01 0.90437868E+02</pdfrwt>
<totfact> 0.17539197E+06</totfact>
</mgrwt>
</event>
<event>
 5    1  0.1624116E+000  0.8932039E+02  0.7546771E-02  0.1304506E+00
         21   -1    0    0  501  502  0.00000000000E+00  0.00000000000E+00  0.52641278419E+02  0.52641278419E+02  0.00000000000E+00 0.  1.
         21   -1    0    0  502  503 -0.00000000000E+00 -0.00000000000E+00 -0.28482816619E+03  0.28482816619E+03  0.00000000000E+00 0.  1.
         24    1    1    2    0    0 -0.67870311102E+02 -0.15723831307E+02 -0.38830342498E+02  0.11326353982E+03  0.80419002446E+02 0.  1.
          1    1    1    2  501    0  0.17469827778E+02  0.12984014682E+02  0.25371998227E+01  0.21913851848E+02  0.00000000000E+00 0. -1.
         -2    1    1    2    0  503  0.50400483324E+02  0.27398166246E+01 -0.19589374509E+03  0.20229205293E+03  0.00000000000E+00 0.  1.
<mgrwt>
<rscale>  2 0.89320391E+02</rscale>
<asrwt>0</asrwt>
<pdfrwt beam="1">  1       21 0.80986580E-02 0.89320391E+02</pdfrwt>
<pdfrwt beam="2">  1       21 0.43819719E-01 0.89320391E+02</pdfrwt>
<totfact> 0.59231344E+05</totfact>
</mgrwt>
</event>
<event>
 5    1  0.1624116E+000  0.1586048E+03  0.7546771E-02  0.1190281E+00
         21   -1    0    0  503  502  0.00000000000E+00  0.00000000000E+00  0.32862257769E+02  0.32862257769E+02  0.00000000000E+00 0.  1.
         21   -1    0    0  501  503 -0.00000000000E+00 -0.00000000000E+00 -0.97476432679E+03  0.97476432679E+03  0.00000000000E+00 0. -1.
         24    1    1    2    0    0  0.10401626304E+03 -0.83906979824E+01 -0.20681596363E+03  0.24521387717E+03  0.80419002446E+02 0.  1.
          1    1    1    2  501    0  0.11693811158E+02  0.58290977711E+02 -0.40041390196E+03  0.40480350317E+03  0.00000000000E+00 0. -1.
         -2    1    1    2    0  502 -0.11571007420E+03 -0.49900279729E+02 -0.33467220343E+03  0.35760920421E+03  0.00000000000E+00 0.  1.
<mgrwt>
<rscale>  2 0.15860484E+03</rscale>
<asrwt>0</asrwt>
<pdfrwt beam="1">  1       21 0.50557316E-02 0.15860484E+03</pdfrwt>
<pdfrwt beam="2">  1       21 0.14996375E+00 0.15860484E+03</pdfrwt>
<totfact> 0.80377589E+04</totfact>
</mgrwt>
</event>
<event>
 5    1  0.1624116E+000  0.7815306E+02  0.7546771E-02  0.1334376E+00
         21   -1    0    0  501  502  0.00000000000E+00  0.00000000000E+00  0.25668887393E+03  0.25668887393E+03  0.00000000000E+00 0. -1.
         21   -1    0    0  502  503 -0.00000000000E+00 -0.00000000000E+00 -0.37549632407E+02  0.37549632407E+02  0.00000000000E+00 0. -1.
         24    1    1    2    0    0 -0.48413917612E+02  0.30582361036E+02  0.47656966997E+02  0.10962477221E+03  0.80419002446E+02 0. -1.
          1    1    1    2  501    0  0.22322624911E+02 -0.10563367946E+02  0.12652209217E+03  0.12890975189E+03  0.00000000000E+00 0. -1.
         -2    1    1    2    0  503  0.26091292701E+02 -0.20018993090E+02  0.44960182352E+02  0.55703982230E+02  0.00000000000E+00 0.  1.
<mgrwt>
<rscale>  2 0.78153060E+02</rscale>
<asrwt>0</asrwt>
<pdfrwt beam="1">  1       21 0.39490595E-01 0.78153060E+02</pdfrwt>
<pdfrwt beam="2">  1       21 0.57768667E-02 0.78153060E+02</pdfrwt>
<totfact> 0.12855721E+06</totfact>
</mgrwt>
</event>
<event>
 5    1  0.1624116E+000  0.7969352E+02  0.7546771E-02  0.1329923E+00
         21   -1    0    0  503  502  0.00000000000E+00  0.00000000000E+00  0.17857331955E+03  0.17857331955E+03  0.00000000000E+00 0.  1.
         21   -1    0    0  501  503 -0.00000000000E+00 -0.00000000000E+00 -0.40388622933E+02  0.40388622933E+02  0.00000000000E+00 0.  1.
         24    1    1    2    0    0  0.12292497404E+02  0.53719162817E+02  0.91414411601E+02  0.13364379727E+03  0.80419002446E+02 0.  1.
          1    1    1    2  501    0  0.83889179311E+01 -0.25960554165E+02  0.18894548246E+00  0.27282962028E+02  0.00000000000E+00 0. -1.
         -2    1    1    2    0  502 -0.20681415335E+02 -0.27758608652E+02  0.46581339536E+02  0.58035183187E+02  0.00000000000E+00 0.  1.
<mgrwt>
<rscale>  2 0.79693519E+02</rscale>
<asrwt>0</asrwt>
<pdfrwt beam="1">  1       21 0.27472818E-01 0.79693519E+02</pdfrwt>
<pdfrwt beam="2">  1       21 0.62136344E-02 0.79693519E+02</pdfrwt>
<totfact> 0.22885352E+06</totfact>
</mgrwt>
</event>
<event>
 5    1  0.1624116E+000  0.7134829E+02  0.7546771E-02  0.1355567E+00
         21   -1    0    0  503  502  0.00000000000E+00  0.00000000000E+00  0.25305386251E+03  0.25305386251E+03  0.00000000000E+00 0. -1.
         21   -1    0    0  501  503 -0.00000000000E+00 -0.00000000000E+00 -0.64874541917E+02  0.64874541917E+02  0.00000000000E+00 0. -1.
         24    1    1    2    0    0  0.19880933743E+01 -0.92348111165E+01  0.94466581275E+02  0.12442019604E+03  0.80419002446E+02 0. -1.
          1    1    1    2  501    0 -0.17403221573E+02 -0.21308227425E+02 -0.43843785655E+02  0.51760894676E+02  0.00000000000E+00 0. -1.
         -2    1    1    2    0  502  0.15415128199E+02  0.30543038541E+02  0.13755652498E+03  0.14174731371E+03  0.00000000000E+00 0.  1.
<mgrwt>
<rscale>  2 0.71348288E+02</rscale>
<asrwt>0</asrwt>
<pdfrwt beam="1">  1       21 0.38931363E-01 0.71348288E+02</pdfrwt>
<pdfrwt beam="2">  1       21 0.99806989E-02 0.71348288E+02</pdfrwt>
<totfact> 0.52257030E+05</totfact>
</mgrwt>
</event>
<event>
 5    1  0.1624116E+000  0.9091743E+02  0.7546771E-02  0.1300645E+00
         21   -1    0    0  503  502  0.00000000000E+00  0.00000000000E+00  0.24341881052E+03  0.24341881052E+03  0.00000000000E+00 0.  1.
         21   -1    0    0  501  503 -0.00000000000E+00 -0.00000000000E+00 -0.28492609802E+03  0.28492609802E+03  0.00000000000E+00 0. -1.
         24    1    1    2    0    0 -0.65507511033E+02  0.14415081613E+02 -0.84295259631E+01  0.10505856196E+03  0.80419002446E+02 0.  1.
          1    1    1    2  501    0  0.12205701266E+02 -0.20094986762E+02 -0.22387298695E+03  0.22510420236E+03  0.00000000000E+00 0. -1.
         -2    1    1    2    0  502  0.53301809767E+02  0.56799051489E+01  0.19079522541E+03  0.19818214421E+03  0.00000000000E+00 0.  1.
<mgrwt>
<rscale>  2 0.90917429E+02</rscale>
<asrwt>0</asrwt>
<pdfrwt beam="1">  1       21 0.37449048E-01 0.90917429E+02</pdfrwt>
<pdfrwt beam="2">  1       21 0.43834784E-01 0.90917429E+02</pdfrwt>
<totfact> 0.36621057E+04</totfact>
</mgrwt>
</event>
<event>
 5    1  0.1624116E+000  0.1364066E+03  0.7546771E-02  0.1218248E+00
         21   -1    0    0  501  502  0.00000000000E+00  0.00000000000E+00  0.23129242204E+03  0.23129242204E+03  0.00000000000E+00 0. -1.
         21   -1    0    0  502  503 -0.00000000000E+00 -0.00000000000E+00 -0.40877756291E+03  0.40877756291E+03  0.00000000000E+00 0. -1.
         24    1    1    2    0    0 -0.11040268013E+03  0.25060883250E+02 -0.26381894730E+03  0.29813495695E+03  0.80419002446E+02 0. -1.
          1    1    1    2  501    0  0.10531701938E+03  0.30677539978E+01  0.19928491022E+03  0.22542307142E+03  0.00000000000E+00 0. -1.
         -2    1    1    2    0  503  0.50856607418E+01 -0.28128637248E+02 -0.11295110379E+03  0.11651195658E+03  0.00000000000E+00 0.  1.
<mgrwt>
<rscale>  2 0.13640664E+03</rscale>
<asrwt>0</asrwt>
<pdfrwt beam="1">  1       21 0.35583449E-01 0.13640664E+03</pdfrwt>
<pdfrwt beam="2">  1       21 0.62888856E-01 0.13640664E+03</pdfrwt>
<totfact> 0.18499703E+04</totfact>
</mgrwt>
</event>
<event>
 5    1  0.1624116E+000  0.1003171E+03  0.7546771E-02  0.1279631E+00
         21   -1    0    0  501  502  0.00000000000E+00  0.00000000000E+00  0.14661678165E+03  0.14661678165E+03  0.00000000000E+00 0.  1.
         21   -1    0    0  502  503 -0.00000000000E+00 -0.00000000000E+00 -0.74424475980E+02  0.74424475980E+02  0.00000000000E+00 0. -1.
         24    1    1    2    0    0 -0.11956632926E+02  0.54613119148E+01  0.30066611779E+01  0.81541663980E+02  0.80419002446E+02 0. -1.
          1    1    1    2  501    0  0.62608194566E+02  0.15228617476E+02  0.49861424252E+02  0.81473053493E+02  0.00000000000E+00 0. -1.
         -2    1    1    2    0  503 -0.50651561639E+02 -0.20689929391E+02  0.19324220239E+02  0.58026540157E+02  0.00000000000E+00 0.  1.
<mgrwt>
<rscale>  2 0.10031708E+03</rscale>
<asrwt>0</asrwt>
<pdfrwt beam="1">  1       21 0.22556428E-01 0.10031708E+03</pdfrwt>
<pdfrwt beam="2">  1       21 0.11449919E-01 0.10031708E+03</pdfrwt>
<totfact> 0.11694564E+06</totfact>
</mgrwt>
</event>
<event>
 5    1  0.1624116E+000  0.7714015E+02  0.7546771E-02  0.1337369E+00
         21   -1    0    0  503  502  0.00000000000E+00  0.00000000000E+00  0.48583708038E+03  0.48583708038E+03  0.00000000000E+00 0. -1.
         21   -1    0    0  501  503 -0.00000000000E+00 -0.00000000000E+00 -0.17518874382E+02  0.17518874382E+02  0.00000000000E+00 0.  1.
         24    1    1    2    0    0 -0.15398601139E+01 -0.27149908516E+02  0.16984807699E+03  0.18988173665E+03  0.80419002446E+02 0.  1.
          1    1    1    2  501    0  0.91577493085E+01 -0.19804663962E+02  0.16077112140E+02  0.27102815754E+02  0.00000000000E+00 0. -1.
         -2    1    1    2    0  502 -0.76178891946E+01  0.46954572478E+02  0.28239301687E+03  0.28637140236E+03  0.00000000000E+00 0.  1.
<mgrwt>
<rscale>  2 0.77140149E+02</rscale>
<asrwt>0</asrwt>
<pdfrwt beam="1">  1       21 0.74744156E-01 0.77140149E+02</pdfrwt>
<pdfrwt beam="2">  1       21 0.26952118E-02 0.77140149E+02</pdfrwt>
<totfact> 0.12033131E+06</totfact>
</mgrwt>
</event>
<event>
 5    1  0.1624116E+000  0.2028164E+03  0.7546771E-02  0.1147384E+00
         21   -1    0    0  503  502  0.00000000000E+00  0.00000000000E+00  0.42198028845E+02  0.42198028845E+02  0.00000000000E+00 0. -1.
         21   -1    0    0  501  503 -0.00000000000E+00 -0.00000000000E+00 -0.16992812720E+04  0.16992812720E+04  0.00000000000E+00 0.  1.
         24    1    1    2    0    0  0.31119977782E+01 -0.71234163700E+02 -0.97645405742E+02  0.14520961340E+03  0.80419002446E+02 0. -1.
          1    1    1    2  501    0 -0.72374368493E+01 -0.11332254448E+03 -0.10161579452E+04  0.10224829334E+04  0.00000000000E+00 0. -1.
         -2    1    1    2    0  502  0.41254390712E+01  0.18455670818E+03 -0.54327989221E+03  0.57378675400E+03  0.00000000000E+00 0.  1.
<mgrwt>
<rscale>  2 0.20281639E+03</rscale>
<asrwt>0</asrwt>
<pdfrwt beam="1">  1       21 0.64920044E-02 0.20281639E+03</pdfrwt>
<pdfrwt beam="2">  1       21 0.26142789E+00 0.20281639E+03</pdfrwt>
<totfact> 0.97224026E+03</totfact>
</mgrwt>
</event>
<event>
 5    1  0.1624116E+000  0.6653439E+02  0.7546771E-02  0.1372291E+00
         21   -1    0    0  501  502  0.00000000000E+00  0.00000000000E+00  0.12710043726E+03  0.12710043726E+03  0.00000000000E+00 0. -1.
         21   -1    0    0  502  503 -0.00000000000E+00 -0.00000000000E+00 -0.53902870201E+02  0.53902870201E+02  0.00000000000E+00 0. -1.
         24    1    1    2    0    0 -0.28219249844E+02 -0.20580198815E+02  0.95130034442E+02  0.12937082381E+03  0.80419002446E+02 0. -1.
          1    1    1    2  501    0  0.20896591054E+02 -0.26238596761E+01 -0.40764134035E+01  0.21451557135E+02  0.00000000000E+00 0. -1.
         -2    1    1    2    0  503  0.73226587901E+01  0.23204058491E+02 -0.17856053976E+02  0.30180926523E+02  0.00000000000E+00 0.  1.
<mgrwt>
<rscale>  2 0.66534390E+02</rscale>
<asrwt>0</asrwt>
<pdfrwt beam="1">  1       21 0.19553913E-01 0.66534390E+02</pdfrwt>
<pdfrwt beam="2">  1       21 0.82927493E-02 0.66534390E+02</pdfrwt>
<totfact> 0.26086665E+06</totfact>
</mgrwt>
</event>
<event>
 5    1  0.1624116E+000  0.6409702E+02  0.7546771E-02  0.1381401E+00
         21   -1    0    0  503  502  0.00000000000E+00  0.00000000000E+00  0.50343363012E+02  0.50343363012E+02  0.00000000000E+00 0.  1.
         21   -1    0    0  501  503 -0.00000000000E+00 -0.00000000000E+00 -0.14288633055E+03  0.14288633055E+03  0.00000000000E+00 0. -1.
         24    1    1    2    0    0  0.99212848426E+00 -0.16508287097E+01 -0.81450216557E+02  0.11447734835E+03  0.80419002446E+02 0.  0.
          1    1    1    2  501    0 -0.13362760383E+01  0.24682039617E+02 -0.36739353565E+02  0.44280569257E+02  0.00000000000E+00 0. -1.
         -2    1    1    2    0  502  0.34414755400E+00 -0.23031210908E+02  0.25646602582E+02  0.34471775954E+02  0.00000000000E+00 0.  1.
<mgrwt>
<rscale>  2 0.64097015E+02</rscale>
<asrwt>0</asrwt>
<pdfrwt beam="1">  1       21 0.77451328E-02 0.64097015E+02</pdfrwt>
<pdfrwt beam="2">  1       21 0.21982512E-01 0.64097015E+02</pdfrwt>
<totfact> 0.23616363E+06</totfact>
</mgrwt>
</event>
<event>
 5    1  0.1624116E+000  0.9571953E+02  0.7546771E-02  0.1289564E+00
         21   -1    0    0  501  502  0.00000000000E+00  0.00000000000E+00  0.55102887739E+02  0.55102887739E+02  0.00000000000E+00 0.  1.
         21   -1    0    0  502  503 -0.00000000000E+00 -0.00000000000E+00 -0.25483469404E+03  0.25483469404E+03  0.00000000000E+00 0.  1.
         24    1    1    2    0    0 -0.74677928909E+02 -0.23408469859E+02 -0.10846487437E+03  0.15606599391E+03  0.80419002446E+02 0.  1.
          1    1    1    2  501    0  0.54229951269E+02  0.22630232708E+02  0.15928250544E+01  0.58783944566E+02  0.00000000000E+00 0. -1.
         -2    1    1    2    0  503  0.20447977640E+02  0.77823715154E+00 -0.92859756978E+02  0.95087643301E+02  0.00000000000E+00 0.  1.
<mgrwt>
<rscale>  2 0.95719535E+02</rscale>
<asrwt>0</asrwt>
<pdfrwt beam="1">  1       21 0.84773675E-02 0.95719535E+02</pdfrwt>
<pdfrwt beam="2">  1       21 0.39205337E-01 0.95719535E+02</pdfrwt>
<totfact> 0.68365818E+05</totfact>
</mgrwt>
</event>
<event>
 5    1  0.1624116E+000  0.1049758E+03  0.7546771E-02  0.1270167E+00
         21   -1    0    0  503  502  0.00000000000E+00  0.00000000000E+00  0.81768908862E+02  0.81768908862E+02  0.00000000000E+00 0.  1.
         21   -1    0    0  501  503 -0.00000000000E+00 -0.00000000000E+00 -0.18613705505E+03  0.18613705505E+03  0.00000000000E+00 0. -1.
         24    1    1    2    0    0 -0.30177472415E+02  0.82713301178E+02 -0.11717874830E+03  0.16718326782E+03  0.80419002446E+02 0. -1.
          1    1    1    2  501    0  0.10049959113E+02 -0.57854470922E+02 -0.12376119642E+02  0.60010914184E+02  0.00000000000E+00 0. -1.
         -2    1    1    2    0  502  0.20127513301E+02 -0.24858830257E+02  0.25186721751E+02  0.40711781906E+02  0.00000000000E+00 0.  1.
<mgrwt>
<rscale>  2 0.10497577E+03</rscale>
<asrwt>0</asrwt>
<pdfrwt beam="1">  1       21 0.12579832E-01 0.10497577E+03</pdfrwt>
<pdfrwt beam="2">  1       21 0.28636470E-01 0.10497577E+03</pdfrwt>
<totfact> 0.63271467E+05</totfact>
</mgrwt>
</event>
<event>
 5    1  0.1624116E+000  0.1026040E+03  0.7546771E-02  0.1274914E+00
         21   -1    0    0  503  502  0.00000000000E+00  0.00000000000E+00  0.11783778011E+03  0.11783778011E+03  0.00000000000E+00 0.  1.
         21   -1    0    0  501  503 -0.00000000000E+00 -0.00000000000E+00 -0.11791151099E+03  0.11791151099E+03  0.00000000000E+00 0. -1.
         24    1    1    2    0    0  0.74766153691E+02  0.35556299955E+02 -0.35166202445E+02  0.12065697640E+03  0.80419002446E+02 0.  1.
          1    1    1    2  501    0 -0.40051970735E+02 -0.37706621324E+02 -0.12241120708E+02  0.56354189619E+02  0.00000000000E+00 0. -1.
         -2    1    1    2    0  502 -0.34714182955E+02  0.21503213690E+01  0.47333592276E+02  0.58738125081E+02  0.00000000000E+00 0.  1.
<mgrwt>
<rscale>  2 0.10260396E+03</rscale>
<asrwt>0</asrwt>
<pdfrwt beam="1">  1       21 0.18128889E-01 0.10260396E+03</pdfrwt>
<pdfrwt beam="2">  1       21 0.18140233E-01 0.10260396E+03</pdfrwt>
<totfact> 0.76865466E+05</totfact>
</mgrwt>
</event>
<event>
 5    1  0.1624116E+000  0.1028883E+03  0.7546771E-02  0.1274337E+00
         21   -1    0    0  501  502  0.00000000000E+00  0.00000000000E+00  0.44606092047E+02  0.44606092047E+02  0.00000000000E+00 0. -1.
         21   -1    0    0  502  503 -0.00000000000E+00 -0.00000000000E+00 -0.34598037888E+03  0.34598037888E+03  0.00000000000E+00 0.  1.
         24    1    1    2    0    0  0.38374977964E+02  0.77969577541E+02 -0.22646192809E+03  0.25554669785E+03  0.80419002446E+02 0.  1.
          1    1    1    2  501    0 -0.17746743589E+02 -0.26183865624E+02  0.10254799708E+02  0.33252107362E+02  0.00000000000E+00 0. -1.
         -2    1    1    2    0  503 -0.20628234375E+02 -0.51785711917E+02 -0.85167158457E+02  0.10178766572E+03  0.00000000000E+00 0.  1.
<mgrwt>
<rscale>  2 0.10288834E+03</rscale>
<asrwt>0</asrwt>
<pdfrwt beam="1">  1       21 0.68624757E-02 0.10288834E+03</pdfrwt>
<pdfrwt beam="2">  1       21 0.53227750E-01 0.10288834E+03</pdfrwt>
<totfact> 0.52854762E+05</totfact>
</mgrwt>
</event>
<event>
 5    1  0.1624116E+000  0.8458323E+02  0.7546771E-02  0.1316526E+00
         21   -1    0    0  501  502  0.00000000000E+00  0.00000000000E+00  0.68181300727E+02  0.68181300727E+02  0.00000000000E+00 0.  1.
         21   -1    0    0  502  503 -0.00000000000E+00 -0.00000000000E+00 -0.18228034966E+03  0.18228034966E+03  0.00000000000E+00 0.  1.
         24    1    1    2    0    0 -0.27848665549E+02 -0.43330640437E+02  0.12502198292E+02  0.96315177880E+02  0.80419002446E+02 0.  1.
          1    1    1    2  501    0 -0.15724506902E+02  0.14721859976E+02 -0.53933589378E+01  0.22205440755E+02  0.00000000000E+00 0. -1.
         -2    1    1    2    0  503  0.43573172452E+02  0.28608780461E+02 -0.12120788829E+03  0.13194103176E+03  0.00000000000E+00 0.  1.
<mgrwt>
<rscale>  2 0.84583231E+02</rscale>
<asrwt>0</asrwt>
<pdfrwt beam="1">  1       21 0.10489431E-01 0.84583231E+02</pdfrwt>
<pdfrwt beam="2">  1       21 0.28043130E-01 0.84583231E+02</pdfrwt>
<totfact> 0.90317313E+05</totfact>
</mgrwt>
</event>
<event>
 5    1  0.1840836E+000  0.1259697E+03  0.7546771E-02  0.1233562E+00
         21   -1    0    0  503  502  0.00000000000E+00  0.00000000000E+00  0.40221687497E+03  0.40221687497E+03  0.00000000000E+00 0. -1.
         21   -1    0    0  501  503 -0.00000000000E+00 -0.00000000000E+00 -0.92983991753E+02  0.92983991753E+02  0.00000000000E+00 0. -1.
         24    1    1    2    0    0 -0.10981422069E+02  0.50944980854E+02  0.22419407625E+03  0.24381587824E+03  0.80419002446E+02 0. -1.
          1    1    1    2  501    0 -0.38319244275E+02 -0.86978312357E+02 -0.46909751985E+02  0.10599111347E+03  0.00000000000E+00 0. -1.
         -2    1    1    2    0  502  0.49300666343E+02  0.36033331503E+02  0.13194855895E+03  0.14539387501E+03  0.00000000000E+00 0.  1.
<mgrwt>
<rscale>  2 0.12596970E+03</rscale>
<asrwt>0</asrwt>
<pdfrwt beam="1">  1       21 0.61879518E-01 0.12596970E+03</pdfrwt>
<pdfrwt beam="2">  1       21 0.14305230E-01 0.12596970E+03</pdfrwt>
<totfact> 0.10638188E+05</totfact>
</mgrwt>
</event>
<event>
 5    1  0.1624116E+000  0.6720358E+02  0.7546771E-02  0.1369869E+00
         21   -1    0    0  501  502  0.00000000000E+00  0.00000000000E+00  0.25456933119E+02  0.25456933119E+02  0.00000000000E+00 0.  1.
         21   -1    0    0  502  503 -0.00000000000E+00 -0.00000000000E+00 -0.29689750956E+03  0.29689750956E+03  0.00000000000E+00 0.  1.
         24    1    1    2    0    0  0.15236380493E+02 -0.12927832131E+02 -0.11609516838E+03  0.14263442855E+03  0.80419002446E+02 0.  0.
          1    1    1    2  501    0  0.13554876438E+02  0.17767502110E+02 -0.71656913881E+00  0.22359165410E+02  0.00000000000E+00 0. -1.
         -2    1    1    2    0  503 -0.28791256931E+02 -0.48396699784E+01 -0.15462883892E+03  0.15736084871E+03  0.00000000000E+00 0.  1.
<mgrwt>
<rscale>  2 0.67203583E+02</rscale>
<asrwt>0</asrwt>
<pdfrwt beam="1">  1       21 0.39164511E-02 0.67203583E+02</pdfrwt>
<pdfrwt beam="2">  1       21 0.45676542E-01 0.67203583E+02</pdfrwt>
<totfact> 0.18194935E+06</totfact>
</mgrwt>
</event>
<event>
 5    1  0.1624116E+000  0.7502266E+02  0.7546771E-02  0.1343801E+00
         21   -1    0    0  501  502  0.00000000000E+00  0.00000000000E+00  0.18223847172E+02  0.18223847172E+02  0.00000000000E+00 0. -1.
         21   -1    0    0  502  503 -0.00000000000E+00 -0.00000000000E+00 -0.31014311000E+03  0.31014311000E+03  0.00000000000E+00 0.  1.
         24    1    1    2    0    0  0.25192409133E+02  0.44058010332E+02 -0.17766484409E+03  0.20151371798E+03  0.80419002446E+02 0.  1.
          1    1    1    2  501    0 -0.24039474472E+02 -0.21165717031E+02 -0.61712441671E+02  0.69529197948E+02  0.00000000000E+00 0. -1.
         -2    1    1    2    0  503 -0.11529346605E+01 -0.22892293301E+02 -0.52541977061E+02  0.57324041243E+02  0.00000000000E+00 0.  1.
<mgrwt>
<rscale>  2 0.75022662E+02</rscale>
<asrwt>0</asrwt>
<pdfrwt beam="1">  1       21 0.28036687E-02 0.75022662E+02</pdfrwt>
<pdfrwt beam="2">  1       21 0.47714326E-01 0.75022662E+02</pdfrwt>
<totfact> 0.28824590E+06</totfact>
</mgrwt>
</event>
<event>
 5    1  0.1624116E+000  0.7607927E+02  0.7546771E-02  0.1340561E+00
         21   -1    0    0  501  502  0.00000000000E+00  0.00000000000E+00  0.21145482405E+03  0.21145482405E+03  0.00000000000E+00 0. -1.
         21   -1    0    0  502  503 -0.00000000000E+00 -0.00000000000E+00 -0.19561886432E+03  0.19561886432E+03  0.00000000000E+00 0.  1.
         24    1    1    2    0    0 -0.23767371148E+02  0.11789042901E+02 -0.24330046149E+02  0.88108095904E+02  0.80419002446E+02 0.  0.
          1    1    1    2  501    0 -0.21215705390E+02 -0.11198225207E+01  0.17507282610E+03  0.17635717903E+03  0.00000000000E+00 0. -1.
         -2    1    1    2    0  503  0.44983076537E+02 -0.10669220381E+02 -0.13490682023E+03  0.14260841343E+03  0.00000000000E+00 0.  1.
<mgrwt>
<rscale>  2 0.76079272E+02</rscale>
<asrwt>0</asrwt>
<pdfrwt beam="1">  1       21 0.32531511E-01 0.76079272E+02</pdfrwt>
<pdfrwt beam="2">  1       21 0.30095210E-01 0.76079272E+02</pdfrwt>
<totfact> 0.10127254E+05</totfact>
</mgrwt>
</event>
<event>
 5    1  0.1624116E+000  0.6667818E+02  0.7546771E-02  0.1371768E+00
         21   -1    0    0  501  502  0.00000000000E+00  0.00000000000E+00  0.21861221045E+03  0.21861221045E+03  0.00000000000E+00 0. -1.
         21   -1    0    0  502  503 -0.00000000000E+00 -0.00000000000E+00 -0.27209602356E+02  0.27209602356E+02  0.00000000000E+00 0.  1.
         24    1    1    2    0    0 -0.32646547948E+02  0.74913244977E+01  0.83072487041E+02  0.12037512655E+03  0.80419002446E+02 0.  1.
          1    1    1    2  501    0  0.15343824595E+02 -0.19768740232E+02  0.99272585142E+02  0.10237813343E+03  0.00000000000E+00 0. -1.
         -2    1    1    2    0  503  0.17302723353E+02  0.12277415735E+02  0.90575359105E+01  0.23068552822E+02  0.00000000000E+00 0.  1.
<mgrwt>
<rscale>  2 0.66678175E+02</rscale>
<asrwt>0</asrwt>
<pdfrwt beam="1">  1       21 0.33632647E-01 0.66678175E+02</pdfrwt>
<pdfrwt beam="2">  1       21 0.41860928E-02 0.66678175E+02</pdfrwt>
<totfact> 0.29685152E+06</totfact>
</mgrwt>
</event>
<event>
 5    1  0.1624116E+000  0.6368782E+02  0.7546771E-02  0.1382976E+00
         21   -1    0    0  501  502  0.00000000000E+00  0.00000000000E+00  0.13521766837E+03  0.13521766837E+03  0.00000000000E+00 0. -1.
         21   -1    0    0  502  503 -0.00000000000E+00 -0.00000000000E+00 -0.60168198826E+02  0.60168198826E+02  0.00000000000E+00 0.  1.
         24    1    1    2    0    0  0.89472219314E+00 -0.81211539201E+01  0.98893231515E+02  0.12772564685E+03  0.80419002446E+02 0.  0.
          1    1    1    2  501    0  0.21719729331E+02 -0.19094634751E+01  0.11397244682E+02  0.24602639682E+02  0.00000000000E+00 0. -1.
         -2    1    1    2    0  503 -0.22614451524E+02  0.10030617395E+02 -0.35241006652E+02  0.43057580667E+02  0.00000000000E+00 0.  1.
<mgrwt>
<rscale>  2 0.63687824E+02</rscale>
<asrwt>0</asrwt>
<pdfrwt beam="1">  1       21 0.20802718E-01 0.63687824E+02</pdfrwt>
<pdfrwt beam="2">  1       21 0.92566460E-02 0.63687824E+02</pdfrwt>
<totfact> 0.19290843E+06</totfact>
</mgrwt>
</event>
<event>
 5    1  0.1624116E+000  0.7953258E+02  0.7546771E-02  0.1330383E+00
         21   -1    0    0  501  502  0.00000000000E+00  0.00000000000E+00  0.50059249139E+02  0.50059249139E+02  0.00000000000E+00 0. -1.
         21   -1    0    0  502  503 -0.00000000000E+00 -0.00000000000E+00 -0.17493643653E+03  0.17493643653E+03  0.00000000000E+00 0.  1.
         24    1    1    2    0    0 -0.56729466079E+02  0.16842280679E+02 -0.75677050585E+02  0.12528418368E+03  0.80419002446E+02 0.  0.
          1    1    1    2  501    0  0.35823713991E+02 -0.11766314568E+02  0.80469038747E+01  0.38555639077E+02  0.00000000000E+00 0. -1.
         -2    1    1    2    0  503  0.20905752088E+02 -0.50759661112E+01 -0.57247040680E+02  0.61155862916E+02  0.00000000000E+00 0.  1.
<mgrwt>
<rscale>  2 0.79532575E+02</rscale>
<asrwt>0</asrwt>
<pdfrwt beam="1">  1       21 0.77014230E-02 0.79532575E+02</pdfrwt>
<pdfrwt beam="2">  1       21 0.26913298E-01 0.79532575E+02</pdfrwt>
<totfact> 0.16557043E+06</totfact>
</mgrwt>
</event>
<event>
 5    1  0.1624116E+000  0.7538293E+02  0.7546771E-02  0.1342689E+00
         21   -1    0    0  501  502  0.00000000000E+00  0.00000000000E+00  0.18140080734E+02  0.18140080734E+02  0.00000000000E+00 0.  1.
         21   -1    0    0  502  503 -0.00000000000E+00 -0.00000000000E+00 -0.42429467738E+03  0.42429467738E+03  0.00000000000E+00 0. -1.
         24    1    1    2    0    0 -0.16306605075E+01 -0.99972517076E+01 -0.10378082282E+03  0.13168249404E+03  0.80419002446E+02 0.  1.
          1    1    1    2  501    0 -0.16239488831E+02  0.35229376495E+02 -0.13145244062E+03  0.13705682803E+03  0.00000000000E+00 0. -1.
         -2    1    1    2    0  503  0.17870149338E+02 -0.25232124788E+02 -0.17092133321E+03  0.17369543605E+03  0.00000000000E+00 0.  1.
<mgrwt>
<rscale>  2 0.75382926E+02</rscale>
<asrwt>0</asrwt>
<pdfrwt beam="1">  1       21 0.27907815E-02 0.75382926E+02</pdfrwt>
<pdfrwt beam="2">  1       21 0.65276109E-01 0.75382926E+02</pdfrwt>
<totfact> 0.15201626E+06</totfact>
</mgrwt>
</event>
<event>
 5    1  0.1624116E+000  0.8362831E+02  0.7546771E-02  0.1319059E+00
         21   -1    0    0  503  502  0.00000000000E+00  0.00000000000E+00  0.89065530961E+01  0.89065530961E+01  0.00000000000E+00 0. -1.
         21   -1    0    0  501  503 -0.00000000000E+00 -0.00000000000E+00 -0.81283387381E+03  0.81283387381E+03  0.00000000000E+00 0.  1.
         24    1    1    2    0    0 -0.57922819972E+02  0.30188713357E+01 -0.54740755552E+03  0.55631503166E+03  0.80419002446E+02 0.  1.
          1    1    1    2  501    0  0.39473308197E+02 -0.18895658376E+02 -0.17071491033E+03  0.17623498114E+03  0.00000000000E+00 0. -1.
         -2    1    1    2    0  502  0.18449511775E+02  0.15876787040E+02 -0.85804854861E+02  0.89190414111E+02  0.00000000000E+00 0.  1.
<mgrwt>
<rscale>  2 0.83628313E+02</rscale>
<asrwt>0</asrwt>
<pdfrwt beam="1">  1       21 0.13702385E-02 0.83628313E+02</pdfrwt>
<pdfrwt beam="2">  1       21 0.12505140E+00 0.83628313E+02</pdfrwt>
<totfact> 0.10895269E+06</totfact>
</mgrwt>
</event>
<event>
 5    1  0.1624116E+000  0.6638328E+02  0.7546771E-02  0.1372842E+00
         21   -1    0    0  503  502  0.00000000000E+00  0.00000000000E+00  0.22654315019E+04  0.22654315019E+04  0.00000000000E+00 0. -1.
         21   -1    0    0  501  503 -0.00000000000E+00 -0.00000000000E+00 -0.33381172960E+01  0.33381172960E+01  0.00000000000E+00 0.  1.
         24    1    1    2    0    0 -0.13815239990E+02  0.14593009121E+02  0.75168409958E+03  0.75624071451E+03  0.80419002446E+02 0.  1.
          1    1    1    2  501    0  0.18153305955E+02  0.12754113821E+02  0.13273062656E+03  0.13457202222E+03  0.00000000000E+00 0. -1.
         -2    1    1    2    0  502 -0.43380659652E+01 -0.27347122942E+02  0.13776786585E+04  0.13779568825E+04  0.00000000000E+00 0.  1.
<mgrwt>
<rscale>  2 0.66383278E+02</rscale>
<asrwt>0</asrwt>
<pdfrwt beam="1">  1       21 0.34852669E+00 0.66383278E+02</pdfrwt>
<pdfrwt beam="2">  1       21 0.51355832E-03 0.66383278E+02</pdfrwt>
<totfact> 0.22532922E+05</totfact>
</mgrwt>
</event>
<event>
 5    1  0.1624116E+000  0.1121919E+03  0.7546771E-02  0.1256564E+00
         21   -1    0    0  503  502  0.00000000000E+00  0.00000000000E+00  0.18158387410E+04  0.18158387410E+04  0.00000000000E+00 0. -1.
         21   -1    0    0  501  503 -0.00000000000E+00 -0.00000000000E+00 -0.10716622888E+02  0.10716622888E+02  0.00000000000E+00 0.  1.
         24    1    1    2    0    0  0.51453026481E+02 -0.81650130984E+02  0.15120303977E+04  0.15172400262E+04  0.80419002446E+02 0. -1.
          1    1    1    2  501    0 -0.20690346866E+02  0.52292007019E+02  0.17372914449E+03  0.18260438137E+03  0.00000000000E+00 0. -1.
         -2    1    1    2    0  502 -0.30762679615E+02  0.29358123965E+02  0.11936257596E+03  0.12671095628E+03  0.00000000000E+00 0.  1.
<mgrwt>
<rscale>  2 0.11219194E+03</rscale>
<asrwt>0</asrwt>
<pdfrwt beam="1">  1       21 0.27935956E+00 0.11219194E+03</pdfrwt>
<pdfrwt beam="2">  1       21 0.16487127E-02 0.11219194E+03</pdfrwt>
<totfact> 0.81533153E+04</totfact>
</mgrwt>
</event>
<event>
 5    1  0.1624116E+000  0.1455636E+03  0.7546771E-02  0.1206033E+00
         21   -1    0    0  501  502  0.00000000000E+00  0.00000000000E+00  0.87807297233E+02  0.87807297233E+02  0.00000000000E+00 0.  1.
         21   -1    0    0  502  503 -0.00000000000E+00 -0.00000000000E+00 -0.26107161217E+03  0.26107161217E+03  0.00000000000E+00 0. -1.
         24    1    1    2    0    0 -0.40807860443E+02  0.60795589083E+02 -0.11291710774E+03  0.15677651068E+03  0.80419002446E+02 0.  0.
          1    1    1    2  501    0  0.90624322122E+02 -0.87390953738E+02 -0.40741214364E+02  0.13232457483E+03  0.00000000000E+00 0. -1.
         -2    1    1    2    0  503 -0.49816461679E+02  0.26595364656E+02 -0.19605992841E+02  0.59777823903E+02  0.00000000000E+00 0.  1.
<mgrwt>
<rscale>  2 0.14556356E+03</rscale>
<asrwt>0</asrwt>
<pdfrwt beam="1">  1       21 0.13508815E-01 0.14556356E+03</pdfrwt>
<pdfrwt beam="2">  1       21 0.40164863E-01 0.14556356E+03</pdfrwt>
<totfact> 0.28638232E+05</totfact>
</mgrwt>
</event>
<event>
 5    1  0.1624116E+000  0.1168474E+03  0.7546771E-02  0.1248390E+00
         21   -1    0    0  501  502  0.00000000000E+00  0.00000000000E+00  0.87963535762E+02  0.87963535762E+02  0.00000000000E+00 0. -1.
         21   -1    0    0  502  503 -0.00000000000E+00 -0.00000000000E+00 -0.26009682911E+03  0.26009682911E+03  0.00000000000E+00 0. -1.
         24    1    1    2    0    0  0.51329863621E+02 -0.83735400452E+02 -0.11406480062E+02  0.12745075884E+03  0.80419002446E+02 0. -1.
          1    1    1    2  501    0 -0.56200841079E+02  0.58760423192E+02 -0.28813228661E+02  0.86264268487E+02  0.00000000000E+00 0. -1.
         -2    1    1    2    0  503  0.48709774579E+01  0.24974977260E+02 -0.13191358463E+03  0.13434533754E+03  0.00000000000E+00 0.  1.
<mgrwt>
<rscale>  2 0.11684745E+03</rscale>
<asrwt>0</asrwt>
<pdfrwt beam="1">  1       21 0.13532852E-01 0.11684745E+03</pdfrwt>
<pdfrwt beam="2">  1       21 0.40014897E-01 0.11684745E+03</pdfrwt>
<totfact> 0.28920384E+05</totfact>
</mgrwt>
</event>
<event>
 5    1  0.1624116E+000  0.1173208E+03  0.7546771E-02  0.1247583E+00
         21   -1    0    0  501  502  0.00000000000E+00  0.00000000000E+00  0.49301823658E+02  0.49301823658E+02  0.00000000000E+00 0. -1.
         21   -1    0    0  502  503 -0.00000000000E+00 -0.00000000000E+00 -0.44494881667E+03  0.44494881667E+03  0.00000000000E+00 0. -1.
         24    1    1    2    0    0  0.39282306646E+02  0.40257638175E+02 -0.16197267119E+03  0.18938357694E+03  0.80419002446E+02 0. -1.
          1    1    1    2  501    0 -0.76024704191E+02 -0.58075915072E+02 -0.34734353399E+02  0.10177938330E+03  0.00000000000E+00 0. -1.
         -2    1    1    2    0  503  0.36742397545E+02  0.17818276897E+02 -0.19893996842E+03  0.20308768008E+03  0.00000000000E+00 0.  1.
<mgrwt>
<rscale>  2 0.11732082E+03</rscale>
<asrwt>0</asrwt>
<pdfrwt beam="1">  1       21 0.75848957E-02 0.11732082E+03</pdfrwt>
<pdfrwt beam="2">  1       21 0.68453666E-01 0.11732082E+03</pdfrwt>
<totfact> 0.26104953E+05</totfact>
</mgrwt>
</event>
<event>
 5    1  0.1624116E+000  0.1061324E+03  0.7546771E-02  0.1267904E+00
         21   -1    0    0  503  502  0.00000000000E+00  0.00000000000E+00  0.71086750161E+03  0.71086750161E+03  0.00000000000E+00 0.  1.
         21   -1    0    0  501  503 -0.00000000000E+00 -0.00000000000E+00 -0.85276129248E+02  0.85276129248E+02  0.00000000000E+00 0. -1.
         24    1    1    2    0    0 -0.18588408658E+02  0.57251417481E+02  0.12509055103E+03  0.16043103082E+03  0.80419002446E+02 0. -1.
          1    1    1    2  501    0  0.43905700094E+02 -0.70640839364E+02 -0.41502456088E+02  0.92953173955E+02  0.00000000000E+00 0. -1.
         -2    1    1    2    0  502 -0.25317291436E+02  0.13389421883E+02  0.54200327742E+03  0.54275942608E+03  0.00000000000E+00 0.  1.
<mgrwt>
<rscale>  2 0.10613237E+03</rscale>
<asrwt>0</asrwt>
<pdfrwt beam="1">  1       21 0.10936423E+00 0.10613237E+03</pdfrwt>
<pdfrwt beam="2">  1       21 0.13119405E-01 0.10613237E+03</pdfrwt>
<totfact> 0.34995737E+04</totfact>
</mgrwt>
</event>
<event>
 5    1  0.1624116E+000  0.1336473E+03  0.7546771E-02  0.1222142E+00
         21   -1    0    0  501  502  0.00000000000E+00  0.00000000000E+00  0.17964899645E+04  0.17964899645E+04  0.00000000000E+00 0. -1.
         21   -1    0    0  502  503 -0.00000000000E+00 -0.00000000000E+00 -0.10936748837E+02  0.10936748837E+02  0.00000000000E+00 0.  1.
         24    1    1    2    0    0  0.13631135803E+02 -0.10892061691E+03  0.65573967238E+03  0.66970981965E+03  0.80419002446E+02 0.  1.
          1    1    1    2  501    0  0.17824886710E+02  0.95278697073E+02  0.92357816763E+03  0.92865084311E+03  0.00000000000E+00 0. -1.
         -2    1    1    2    0  503 -0.31456022513E+02  0.13641919835E+02  0.20623537566E+03  0.20906605057E+03  0.00000000000E+00 0.  1.
<mgrwt>
<rscale>  2 0.13364733E+03</rscale>
<asrwt>0</asrwt>
<pdfrwt beam="1">  1       21 0.27638284E+00 0.13364733E+03</pdfrwt>
<pdfrwt beam="2">  1       21 0.16825782E-02 0.13364733E+03</pdfrwt>
<totfact> 0.80098564E+04</totfact>
</mgrwt>
</event>
<event>
 5    1  0.1624116E+000  0.7190594E+02  0.7546771E-02  0.1353729E+00
         21   -1    0    0  501  502  0.00000000000E+00  0.00000000000E+00  0.14240721049E+02  0.14240721049E+02  0.00000000000E+00 0. -1.
         21   -1    0    0  502  503 -0.00000000000E+00 -0.00000000000E+00 -0.51470529795E+03  0.51470529795E+03  0.00000000000E+00 0. -1.
         24    1    1    2    0    0  0.25022023383E+02  0.27303703563E+02 -0.39164366232E+03  0.40152654716E+03  0.80419002446E+02 0. -1.
          1    1    1    2  501    0 -0.19502302743E+00 -0.30270547592E+02 -0.22964298027E+02  0.37996092818E+02  0.00000000000E+00 0. -1.
         -2    1    1    2    0  503 -0.24827000356E+02  0.29668440292E+01 -0.85856616549E+02  0.89423379020E+02  0.00000000000E+00 0.  1.
<mgrwt>
<rscale>  2 0.71905936E+02</rscale>
<asrwt>0</asrwt>
<pdfrwt beam="1">  1       21 0.21908806E-02 0.71905936E+02</pdfrwt>
<pdfrwt beam="2">  1       21 0.79185416E-01 0.71905936E+02</pdfrwt>
<totfact> 0.14763496E+06</totfact>
</mgrwt>
</event>
<event>
 5    1  0.1624116E+000  0.1221494E+03  0.7546771E-02  0.1239593E+00
         21   -1    0    0  503  502  0.00000000000E+00  0.00000000000E+00  0.20397415238E+03  0.20397415238E+03  0.00000000000E+00 0.  1.
         21   -1    0    0  501  503 -0.00000000000E+00 -0.00000000000E+00 -0.97302955552E+02  0.97302955552E+02  0.00000000000E+00 0.  1.
         24    1    1    2    0    0  0.57413143864E+02  0.17129499783E+02  0.71040742089E+02  0.12289707825E+03  0.80419002446E+02 0.  1.
          1    1    1    2  501    0  0.34062765177E+02  0.26028506461E+02 -0.34727355613E+02  0.55170140003E+02  0.00000000000E+00 0. -1.
         -2    1    1    2    0  502 -0.91475909041E+02 -0.43158006244E+02  0.70357810351E+02  0.12320988968E+03  0.00000000000E+00 0.  1.
<mgrwt>
<rscale>  2 0.12214944E+03</rscale>
<asrwt>0</asrwt>
<pdfrwt beam="1">  1       21 0.31380639E-01 0.12214944E+03</pdfrwt>
<pdfrwt beam="2">  1       21 0.14969686E-01 0.12214944E+03</pdfrwt>
<totfact> 0.38868886E+05</totfact>
</mgrwt>
</event>
<event>
 5    1  0.1624116E+000  0.8168656E+02  0.7546771E-02  0.1324332E+00
         21   -1    0    0  503  502  0.00000000000E+00  0.00000000000E+00  0.31374236231E+02  0.31374236231E+02  0.00000000000E+00 0.  1.
         21   -1    0    0  501  503 -0.00000000000E+00 -0.00000000000E+00 -0.48532173432E+03  0.48532173432E+03  0.00000000000E+00 0.  1.
         24    1    1    2    0    0  0.48686525677E+02  0.54639069045E+01 -0.29964670078E+03  0.31409487946E+03  0.80419002446E+02 0.  1.
          1    1    1    2  501    0 -0.34508956046E+01 -0.21072500518E+02 -0.15325647949E+03  0.15473689756E+03  0.00000000000E+00 0. -1.
         -2    1    1    2    0  502 -0.45235630072E+02  0.15608593613E+02 -0.10443178131E+01  0.47864193531E+02  0.00000000000E+00 0.  1.
<mgrwt>
<rscale>  2 0.81686562E+02</rscale>
<asrwt>0</asrwt>
<pdfrwt beam="1">  1       21 0.48268060E-02 0.81686562E+02</pdfrwt>
<pdfrwt beam="2">  1       21 0.74664876E-01 0.81686562E+02</pdfrwt>
<totfact> 0.46581997E+05</totfact>
</mgrwt>
</event>
<event>
 5    1  0.1624116E+000  0.1013526E+03  0.7546771E-02  0.1277477E+00
         21   -1    0    0  503  502  0.00000000000E+00  0.00000000000E+00  0.40374440981E+03  0.40374440981E+03  0.00000000000E+00 0.  1.
         21   -1    0    0  501  503 -0.00000000000E+00 -0.00000000000E+00 -0.84120488700E+02  0.84120488700E+02  0.00000000000E+00 0. -1.
         24    1    1    2    0    0  0.43336447232E+02 -0.57830028350E+02 -0.30630483283E+02  0.11237349464E+03  0.80419002446E+02 0. -1.
          1    1    1    2  501    0 -0.31468364356E+02 -0.39156139522E+01  0.16272435052E+02  0.35642420378E+02  0.00000000000E+00 0. -1.
         -2    1    1    2    0  502 -0.11868082876E+02  0.61745642303E+02  0.33398196934E+03  0.33984898349E+03  0.00000000000E+00 0.  1.
<mgrwt>
<rscale>  2 0.10135263E+03</rscale>
<asrwt>0</asrwt>
<pdfrwt beam="1">  1       21 0.62114524E-01 0.10135263E+03</pdfrwt>
<pdfrwt beam="2">  1       21 0.12941614E-01 0.10135263E+03</pdfrwt>
<totfact> 0.12748256E+05</totfact>
</mgrwt>
</event>
<event>
 5    1  0.1624116E+000  0.7932549E+02  0.7546771E-02  0.1330977E+00
         21   -1    0    0  503  502  0.00000000000E+00  0.00000000000E+00  0.27570532322E+03  0.27570532322E+03  0.00000000000E+00 0.  1.
         21   -1    0    0  501  503 -0.00000000000E+00 -0.00000000000E+00 -0.34802818997E+02  0.34802818997E+02  0.00000000000E+00 0.  1.
         24    1    1    2    0    0  0.88948770510E+00 -0.27680234000E+02  0.14029333245E+03  0.16406224924E+03  0.80419002446E+02 0.  0.
          1    1    1    2  501    0 -0.33503663666E+02  0.50067686136E+01 -0.44140885342E+01  0.34162075297E+02  0.00000000000E+00 0. -1.
         -2    1    1    2    0  502  0.32614175961E+02  0.22673465386E+02  0.10502326030E+03  0.11228381767E+03  0.00000000000E+00 0.  1.
<mgrwt>
<rscale>  2 0.79325488E+02</rscale>
<asrwt>0</asrwt>
<pdfrwt beam="1">  1       21 0.42416202E-01 0.79325488E+02</pdfrwt>
<pdfrwt beam="2">  1       21 0.53542800E-02 0.79325488E+02</pdfrwt>
<totfact> 0.12673700E+06</totfact>
</mgrwt>
</event>
<event>
 5    1  0.2184191E+000  0.1593829E+03  0.7546771E-02  0.1189395E+00
         21   -1    0    0  501  502  0.00000000000E+00  0.00000000000E+00  0.10850072421E+03  0.10850072421E+03  0.00000000000E+00 0.  1.
         21   -1    0    0  502  503 -0.00000000000E+00 -0.00000000000E+00 -0.62737059189E+03  0.62737059189E+03  0.00000000000E+00 0.  1.
         24    1    1    2    0    0 -0.11980487977E+00 -0.11781260034E+03  0.57705944993E+01  0.14275972425E+03  0.80419002446E+02 0.  1.
          1    1    1    2  501    0 -0.63024461499E+02  0.35351519655E+02 -0.16047973720E+02  0.74022632685E+02  0.00000000000E+00 0. -1.
         -2    1    1    2    0  503  0.63144266378E+02  0.82461080685E+02 -0.50859248847E+03  0.51908895917E+03  0.00000000000E+00 0.  1.
<mgrwt>
<rscale>  2 0.15938289E+03</rscale>
<asrwt>0</asrwt>
<pdfrwt beam="1">  1       21 0.16692419E-01 0.15938289E+03</pdfrwt>
<pdfrwt beam="2">  1       21 0.96518554E-01 0.15938289E+03</pdfrwt>
<totfact> 0.29369663E+04</totfact>
</mgrwt>
</event>
<event>
 5    1  0.1624116E+000  0.9822321E+02  0.7546771E-02  0.1284077E+00
         21   -1    0    0  503  502  0.00000000000E+00  0.00000000000E+00  0.82440070012E+02  0.82440070012E+02  0.00000000000E+00 0. -1.
         21   -1    0    0  501  503 -0.00000000000E+00 -0.00000000000E+00 -0.15516887593E+03  0.15516887593E+03  0.00000000000E+00 0. -1.
         24    1    1    2    0    0 -0.19013687285E+02  0.10286803279E+02  0.14566332623E+02  0.84538350033E+02  0.80419002446E+02 0. -1.
          1    1    1    2  501    0  0.13984815176E+02  0.50386426432E+02 -0.74236901952E+02  0.90804650958E+02  0.00000000000E+00 0. -1.
         -2    1    1    2    0  502  0.50288721094E+01 -0.60673229711E+02 -0.13058236594E+02  0.62265944956E+02  0.00000000000E+00 0.  1.
<mgrwt>
<rscale>  2 0.98223215E+02</rscale>
<asrwt>0</asrwt>
<pdfrwt beam="1">  1       21 0.12683088E-01 0.98223215E+02</pdfrwt>
<pdfrwt beam="2">  1       21 0.23872134E-01 0.98223215E+02</pdfrwt>
<totfact> 0.87864978E+05</totfact>
</mgrwt>
</event>
<event>
 5    1  0.1624116E+000  0.7756759E+02  0.7546771E-02  0.1336099E+00
         21   -1    0    0  501  502  0.00000000000E+00  0.00000000000E+00  0.27194947630E+03  0.27194947630E+03  0.00000000000E+00 0.  1.
         21   -1    0    0  502  503 -0.00000000000E+00 -0.00000000000E+00 -0.32069528955E+02  0.32069528955E+02  0.00000000000E+00 0.  1.
         24    1    1    2    0    0 -0.64986489193E+01 -0.52178706057E+02  0.13851645875E+03  0.16857898773E+03  0.80419002446E+02 0.  1.
          1    1    1    2  501    0 -0.10574187602E+02  0.19614405050E+02  0.95673203137E+02  0.98233905183E+02  0.00000000000E+00 0. -1.
         -2    1    1    2    0  503  0.17072836522E+02  0.32564301006E+02  0.56902854502E+01  0.37206112340E+02  0.00000000000E+00 0.  1.
<mgrwt>
<rscale>  2 0.77567591E+02</rscale>
<asrwt>0</asrwt>
<pdfrwt beam="1">  1       21 0.41838379E-01 0.77567591E+02</pdfrwt>
<pdfrwt beam="2">  1       21 0.49337739E-02 0.77567591E+02</pdfrwt>
<totfact> 0.14907812E+06</totfact>
</mgrwt>
</event>
<event>
 5    1  0.1624116E+000  0.1061616E+03  0.7546771E-02  0.1267848E+00
         21   -1    0    0  501  502  0.00000000000E+00  0.00000000000E+00  0.78728173379E+03  0.78728173379E+03  0.00000000000E+00 0.  1.
         21   -1    0    0  502  503 -0.00000000000E+00 -0.00000000000E+00 -0.16541396305E+02  0.16541396305E+02  0.00000000000E+00 0.  1.
         24    1    1    2    0    0 -0.50510492125E+02 -0.28271391355E+02  0.50997394246E+03  0.51951055748E+03  0.80419002446E+02 0.  1.
          1    1    1    2  501    0 -0.29507403220E+02  0.52130871964E+01  0.65284737337E+02  0.71832861923E+02  0.00000000000E+00 0. -1.
         -2    1    1    2    0  503  0.80017895345E+02  0.23058304159E+02  0.19548165768E+03  0.21247971069E+03  0.00000000000E+00 0.  1.
<mgrwt>
<rscale>  2 0.10616155E+03</rscale>
<asrwt>0</asrwt>
<pdfrwt beam="1">  1       21 0.12112024E+00 0.10616155E+03</pdfrwt>
<pdfrwt beam="2">  1       21 0.25448308E-02 0.10616155E+03</pdfrwt>
<totfact> 0.43697770E+05</totfact>
</mgrwt>
</event>
<event>
 5    1  0.1624116E+000  0.8614337E+02  0.7546771E-02  0.1312469E+00
         21   -1    0    0  501  502  0.00000000000E+00  0.00000000000E+00  0.37942131043E+02  0.37942131043E+02  0.00000000000E+00 0. -1.
         21   -1    0    0  502  503 -0.00000000000E+00 -0.00000000000E+00 -0.23304230809E+03  0.23304230809E+03  0.00000000000E+00 0.  1.
         24    1    1    2    0    0 -0.16619516875E+02 -0.13188737465E+02 -0.13276780221E+03  0.15666734311E+03  0.80419002446E+02 0.  1.
          1    1    1    2  501    0 -0.27545918707E+02  0.31021509044E+02 -0.83356286805E+01  0.42315415232E+02  0.00000000000E+00 0. -1.
         -2    1    1    2    0  503  0.44165435581E+02 -0.17832771579E+02 -0.53996746158E+02  0.72001680799E+02  0.00000000000E+00 0.  1.
<mgrwt>
<rscale>  2 0.86143374E+02</rscale>
<asrwt>0</asrwt>
<pdfrwt beam="1">  1       21 0.58372509E-02 0.86143374E+02</pdfrwt>
<pdfrwt beam="2">  1       21 0.35852663E-01 0.86143374E+02</pdfrwt>
<totfact> 0.15309154E+06</totfact>
</mgrwt>
</event>
<event>
 5    1  0.1624116E+000  0.8216964E+02  0.7546771E-02  0.1323005E+00
         21   -1    0    0  501  502  0.00000000000E+00  0.00000000000E+00  0.55534514768E+02  0.55534514768E+02  0.00000000000E+00 0.  1.
         21   -1    0    0  502  503 -0.00000000000E+00 -0.00000000000E+00 -0.29256468011E+03  0.29256468011E+03  0.00000000000E+00 0.  1.
         24    1    1    2    0    0  0.10903680507E+02 -0.14676596260E+02 -0.75635254053E+02  0.11190263775E+03  0.80419002446E+02 0.  0.
          1    1    1    2  501    0 -0.23951015634E+02 -0.28230063256E+02  0.24876221874E+02  0.44602847847E+02  0.00000000000E+00 0. -1.
         -2    1    1    2    0  503  0.13047335128E+02  0.42906659516E+02 -0.18627113316E+03  0.19159370928E+03  0.00000000000E+00 0.  1.
<mgrwt>
<rscale>  2 0.82169636E+02</rscale>
<asrwt>0</asrwt>
<pdfrwt beam="1">  1       21 0.85437715E-02 0.82169636E+02</pdfrwt>
<pdfrwt beam="2">  1       21 0.45009951E-01 0.82169636E+02</pdfrwt>
<totfact> 0.51213557E+05</totfact>
</mgrwt>
</event>
<event>
 5    1  0.1624116E+000  0.1307650E+03  0.7546771E-02  0.1226325E+00
         21   -1    0    0  503  502  0.00000000000E+00  0.00000000000E+00  0.95406072869E+02  0.95406072869E+02  0.00000000000E+00 0.  1.
         21   -1    0    0  501  503 -0.00000000000E+00 -0.00000000000E+00 -0.28765602083E+03  0.28765602083E+03  0.00000000000E+00 0.  1.
         24    1    1    2    0    0 -0.10021145201E+03 -0.57307514819E+02 -0.12875683473E+02  0.14127804341E+03  0.80419002446E+02 0.  1.
          1    1    1    2  501    0  0.71678482717E+02  0.58142295663E+02 -0.19007588452E+03  0.21129877734E+03  0.00000000000E+00 0. -1.
         -2    1    1    2    0  502  0.28532969297E+02 -0.83478084376E+00  0.10701620028E+02  0.30485272956E+02  0.00000000000E+00 0.  1.
<mgrwt>
<rscale>  2 0.13076504E+03</rscale>
<asrwt>0</asrwt>
<pdfrwt beam="1">  1       21 0.14677857E-01 0.13076504E+03</pdfrwt>
<pdfrwt beam="2">  1       21 0.44254772E-01 0.13076504E+03</pdfrwt>
<totfact> 0.20354745E+05</totfact>
</mgrwt>
</event>
<event>
 5    1  0.1624116E+000  0.6782131E+02  0.7546771E-02  0.1367662E+00
         21   -1    0    0  503  502  0.00000000000E+00  0.00000000000E+00  0.36130628352E+02  0.36130628352E+02  0.00000000000E+00 0.  1.
         21   -1    0    0  501  503 -0.00000000000E+00 -0.00000000000E+00 -0.26656062203E+03  0.26656062203E+03  0.00000000000E+00 0. -1.
         24    1    1    2    0    0  0.50901777701E+01 -0.10824722785E+02 -0.29297378417E+02  0.86421275561E+02  0.80419002446E+02 0.  1.
          1    1    1    2  501    0  0.21694609704E+02 -0.62470694447E+01 -0.17101425089E+03  0.17249798832E+03  0.00000000000E+00 0. -1.
         -2    1    1    2    0  502 -0.26784787474E+02  0.17071792230E+02 -0.30118364374E+02  0.43771986504E+02  0.00000000000E+00 0.  1.
<mgrwt>
<rscale>  2 0.67821310E+02</rscale>
<asrwt>0</asrwt>
<pdfrwt beam="1">  1       21 0.55585581E-02 0.67821310E+02</pdfrwt>
<pdfrwt beam="2">  1       21 0.41009327E-01 0.67821310E+02</pdfrwt>
<totfact> 0.12667450E+06</totfact>
</mgrwt>
</event>
<event>
 5    1  0.1624116E+000  0.7439694E+02  0.7546771E-02  0.1345749E+00
         21   -1    0    0  501  502  0.00000000000E+00  0.00000000000E+00  0.24985949524E+03  0.24985949524E+03  0.00000000000E+00 0. -1.
         21   -1    0    0  502  503 -0.00000000000E+00 -0.00000000000E+00 -0.29735190053E+02  0.29735190053E+02  0.00000000000E+00 0.  1.
         24    1    1    2    0    0 -0.93074342718E+00  0.25771506118E+02  0.18123488882E+03  0.19994583690E+03  0.80419002446E+02 0.  0.
          1    1    1    2  501    0 -0.11733235685E+02  0.16481407702E+02  0.27413405180E+02  0.34070521027E+02  0.00000000000E+00 0. -1.
         -2    1    1    2    0  503  0.12663979112E+02 -0.42252913820E+02  0.11476011185E+02  0.45578327371E+02  0.00000000000E+00 0.  1.
<mgrwt>
<rscale>  2 0.74396945E+02</rscale>
<asrwt>0</asrwt>
<pdfrwt beam="1">  1       21 0.38439921E-01 0.74396945E+02</pdfrwt>
<pdfrwt beam="2">  1       21 0.45746448E-02 0.74396945E+02</pdfrwt>
<totfact> 0.19925550E+06</totfact>
</mgrwt>
</event>
<event>
 5    1  0.1624116E+000  0.7253312E+02  0.7546771E-02  0.1351685E+00
         21   -1    0    0  501  502  0.00000000000E+00  0.00000000000E+00  0.13734279861E+03  0.13734279861E+03  0.00000000000E+00 0. -1.
         21   -1    0    0  502  503 -0.00000000000E+00 -0.00000000000E+00 -0.40619935859E+02  0.40619935859E+02  0.00000000000E+00 0.  1.
         24    1    1    2    0    0 -0.24257995805E+02  0.60410994749E+01  0.73094468434E+02  0.11151216307E+03  0.80419002446E+02 0.  0.
          1    1    1    2  501    0  0.90028056909E+01  0.24832657341E+02  0.16912740201E+02  0.31364823641E+02  0.00000000000E+00 0. -1.
         -2    1    1    2    0  503  0.15255190115E+02 -0.30873756816E+02  0.67156541172E+01  0.35085747756E+02  0.00000000000E+00 0.  1.
<mgrwt>
<rscale>  2 0.72533118E+02</rscale>
<asrwt>0</asrwt>
<pdfrwt beam="1">  1       21 0.21129661E-01 0.72533118E+02</pdfrwt>
<pdfrwt beam="2">  1       21 0.62492210E-02 0.72533118E+02</pdfrwt>
<totfact> 0.36694704E+06</totfact>
</mgrwt>
</event>
<event>
 5    1  0.1624116E+000  0.9623856E+02  0.7546771E-02  0.1288411E+00
         21   -1    0    0  501  502  0.00000000000E+00  0.00000000000E+00  0.38346946673E+02  0.38346946673E+02  0.00000000000E+00 0. -1.
         21   -1    0    0  502  503 -0.00000000000E+00 -0.00000000000E+00 -0.34644562353E+03  0.34644562353E+03  0.00000000000E+00 0.  1.
         24    1    1    2    0    0  0.28157146551E+02 -0.70616958048E+02 -0.18105570161E+03  0.21219793285E+03  0.80419002446E+02 0.  1.
          1    1    1    2  501    0 -0.30697049996E+02  0.36898973178E+02 -0.77724132418E+01  0.48623590033E+02  0.00000000000E+00 0. -1.
         -2    1    1    2    0  503  0.25399034453E+01  0.33717984870E+02 -0.11927056201E+03  0.12397104732E+03  0.00000000000E+00 0.  1.
<mgrwt>
<rscale>  2 0.96238560E+02</rscale>
<asrwt>0</asrwt>
<pdfrwt beam="1">  1       21 0.58995303E-02 0.96238560E+02</pdfrwt>
<pdfrwt beam="2">  1       21 0.53299326E-01 0.96238560E+02</pdfrwt>
<totfact> 0.68058249E+05</totfact>
</mgrwt>
</event>
<event>
 5    1  0.1624116E+000  0.6928077E+02  0.7546771E-02  0.1362556E+00
         21   -1    0    0  503  502  0.00000000000E+00  0.00000000000E+00  0.50236445744E+02  0.50236445744E+02  0.00000000000E+00 0.  1.
         21   -1    0    0  501  503 -0.00000000000E+00 -0.00000000000E+00 -0.36364000274E+03  0.36364000274E+03  0.00000000000E+00 0.  1.
         24    1    1    2    0    0  0.79352460106E+01 -0.19396550771E+02 -0.29357455150E+03  0.30511051695E+03  0.80419002446E+02 0.  1.
          1    1    1    2  501    0  0.15064425323E+02  0.27263684482E+02 -0.56647738462E+02  0.64646822619E+02  0.00000000000E+00 0. -1.
         -2    1    1    2    0  502 -0.22999671334E+02 -0.78671337107E+01  0.36818732965E+02  0.44119108915E+02  0.00000000000E+00 0.  1.
<mgrwt>
<rscale>  2 0.69280766E+02</rscale>
<asrwt>0</asrwt>
<pdfrwt beam="1">  1       21 0.77286836E-02 0.69280766E+02</pdfrwt>
<pdfrwt beam="2">  1       21 0.55944618E-01 0.69280766E+02</pdfrwt>
<totfact> 0.39042969E+05</totfact>
</mgrwt>
</event>
<event>
 5    1  0.1624116E+000  0.7610673E+02  0.7546771E-02  0.1340478E+00
         21   -1    0    0  503  502  0.00000000000E+00  0.00000000000E+00  0.58138599724E+01  0.58138599724E+01  0.00000000000E+00 0.  1.
         21   -1    0    0  501  503 -0.00000000000E+00 -0.00000000000E+00 -0.15010898638E+04  0.15010898638E+04  0.00000000000E+00 0.  1.
         24    1    1    2    0    0  0.14775643004E+02 -0.19175893807E+02 -0.11955383659E+04  0.11984845576E+04  0.80419002446E+02 0.  1.
          1    1    1    2  501    0  0.24307651741E+02  0.15820864359E+02 -0.18257217304E+03  0.18486146178E+03  0.00000000000E+00 0. -1.
         -2    1    1    2    0  502 -0.39083294744E+02  0.33550294489E+01 -0.11716546486E+03  0.12355770435E+03  0.00000000000E+00 0.  1.
<mgrwt>
<rscale>  2 0.76106727E+02</rscale>
<asrwt>0</asrwt>
<pdfrwt beam="1">  1       21 0.89443939E-03 0.76106727E+02</pdfrwt>
<pdfrwt beam="2">  1       21 0.23093706E+00 0.76106727E+02</pdfrwt>
<totfact> 0.41428049E+05</totfact>
</mgrwt>
</event>
<event>
 5    1  0.1624116E+000  0.1094783E+03  0.7546771E-02  0.1261539E+00
         21   -1    0    0  501  502  0.00000000000E+00  0.00000000000E+00  0.26384037419E+02  0.26384037419E+02  0.00000000000E+00 0. -1.
         21   -1    0    0  502  503 -0.00000000000E+00 -0.00000000000E+00 -0.18389169749E+04  0.18389169749E+04  0.00000000000E+00 0.  1.
         24    1    1    2    0    0  0.58595501782E+02 -0.50250884420E+02 -0.53331536831E+03  0.54484041907E+03  0.80419002446E+02 0. -1.
          1    1    1    2  501    0 -0.73975446962E+02  0.25313272241E+02 -0.54299677876E+02  0.95192350125E+02  0.00000000000E+00 0. -1.
         -2    1    1    2    0  503  0.15379945181E+02  0.24937612179E+02 -0.12249178913E+04  0.12252682431E+04  0.00000000000E+00 0.  1.
<mgrwt>
<rscale>  2 0.10947825E+03</rscale>
<asrwt>0</asrwt>
<pdfrwt beam="1">  1       21 0.40590824E-02 0.10947825E+03</pdfrwt>
<pdfrwt beam="2">  1       21 0.28291032E+00 0.10947825E+03</pdfrwt>
<totfact> 0.18089971E+04</totfact>
</mgrwt>
</event>
<event>
 5    1  0.1624116E+000  0.7491977E+02  0.7546771E-02  0.1344120E+00
         21   -1    0    0  501  502  0.00000000000E+00  0.00000000000E+00  0.13967730945E+03  0.13967730945E+03  0.00000000000E+00 0. -1.
         21   -1    0    0  502  503 -0.00000000000E+00 -0.00000000000E+00 -0.76135761962E+03  0.76135761962E+03  0.00000000000E+00 0.  1.
         24    1    1    2    0    0 -0.15104267374E+02 -0.21350214507E+01 -0.40196929385E+03  0.41021851051E+03  0.80419002446E+02 0. -1.
          1    1    1    2  501    0  0.32613228932E+02 -0.21136790373E+02  0.13215309892E+03  0.13774914941E+03  0.00000000000E+00 0. -1.
         -2    1    1    2    0  503 -0.17508961558E+02  0.23271811824E+02 -0.35186411524E+03  0.35306726916E+03  0.00000000000E+00 0.  1.
<mgrwt>
<rscale>  2 0.74919775E+02</rscale>
<asrwt>0</asrwt>
<pdfrwt beam="1">  1       21 0.21488817E-01 0.74919775E+02</pdfrwt>
<pdfrwt beam="2">  1       21 0.11713194E+00 0.74919775E+02</pdfrwt>
<totfact> 0.12655007E+04</totfact>
</mgrwt>
</event>
<event>
 5    1  0.1624116E+000  0.1466344E+03  0.7546771E-02  0.1204671E+00
         21   -1    0    0  503  502  0.00000000000E+00  0.00000000000E+00  0.76881887949E+02  0.76881887949E+02  0.00000000000E+00 0.  1.
         21   -1    0    0  501  503 -0.00000000000E+00 -0.00000000000E+00 -0.55708771237E+03  0.55708771237E+03  0.00000000000E+00 0. -1.
         24    1    1    2    0    0  0.88020780829E+02  0.10218567787E+03 -0.27449224229E+03  0.31623215784E+03  0.80419002446E+02 0. -1.
          1    1    1    2  501    0 -0.35033569840E+02 -0.26845566473E+02 -0.22012779492E+03  0.22450897877E+03  0.00000000000E+00 0. -1.
         -2    1    1    2    0  502 -0.52987210989E+02 -0.75340111396E+02  0.14414212793E+02  0.93228463700E+02  0.00000000000E+00 0.  1.
<mgrwt>
<rscale>  2 0.14663439E+03</rscale>
<asrwt>0</asrwt>
<pdfrwt beam="1">  1       21 0.11827983E-01 0.14663439E+03</pdfrwt>
<pdfrwt beam="2">  1       21 0.85705802E-01 0.14663439E+03</pdfrwt>
<totfact> 0.72296742E+04</totfact>
</mgrwt>
</event>
<event>
 5    1  0.1624116E+000  0.9495983E+02  0.7546771E-02  0.1291267E+00
         21   -1    0    0  501  502  0.00000000000E+00  0.00000000000E+00  0.74813026164E+03  0.74813026164E+03  0.00000000000E+00 0. -1.
         21   -1    0    0  502  503 -0.00000000000E+00 -0.00000000000E+00 -0.43668981717E+02  0.43668981717E+02  0.00000000000E+00 0. -1.
         24    1    1    2    0    0  0.20193741287E+02 -0.42016255353E+02  0.63485329960E+02  0.11256445254E+03  0.80419002446E+02 0. -1.
          1    1    1    2  501    0  0.31468580829E+02  0.30937192915E+02  0.62128146929E+03  0.62284672719E+03  0.00000000000E+00 0. -1.
         -2    1    1    2    0  503 -0.51662322116E+02  0.11079062438E+02  0.19694480672E+02  0.56388063629E+02  0.00000000000E+00 0.  1.
<mgrwt>
<rscale>  2 0.94959830E+02</rscale>
<asrwt>0</asrwt>
<pdfrwt beam="1">  1       21 0.11509695E+00 0.94959830E+02</pdfrwt>
<pdfrwt beam="2">  1       21 0.67183054E-02 0.94959830E+02</pdfrwt>
<totfact> 0.99548349E+04</totfact>
</mgrwt>
</event>
<event>
 5    1  0.1624116E+000  0.8487399E+02  0.7546771E-02  0.1315762E+00
         21   -1    0    0  501  502  0.00000000000E+00  0.00000000000E+00  0.13894553432E+03  0.13894553432E+03  0.00000000000E+00 0. -1.
         21   -1    0    0  502  503 -0.00000000000E+00 -0.00000000000E+00 -0.19678941686E+03  0.19678941686E+03  0.00000000000E+00 0.  1.
         24    1    1    2    0    0  0.37309440539E+02  0.92698382910E+01  0.48301251026E+02  0.10138121651E+03  0.80419002446E+02 0.  1.
          1    1    1    2  501    0  0.11099681513E+02 -0.26894352094E+02  0.56604898351E+02  0.63644509752E+02  0.00000000000E+00 0. -1.
         -2    1    1    2    0  503 -0.48409122053E+02  0.17624513803E+02 -0.16275003192E+03  0.17070922492E+03  0.00000000000E+00 0.  1.
<mgrwt>
<rscale>  2 0.84873990E+02</rscale>
<asrwt>0</asrwt>
<pdfrwt beam="1">  1       21 0.21376236E-01 0.84873990E+02</pdfrwt>
<pdfrwt beam="2">  1       21 0.30275295E-01 0.84873990E+02</pdfrwt>
<totfact> 0.21937066E+05</totfact>
</mgrwt>
</event>
<event>
 5    1  0.1624116E+000  0.1185134E+03  0.7546771E-02  0.1245570E+00
         21   -1    0    0  503  502  0.00000000000E+00  0.00000000000E+00  0.11238183125E+03  0.11238183125E+03  0.00000000000E+00 0. -1.
         21   -1    0    0  501  503 -0.00000000000E+00 -0.00000000000E+00 -0.22857886463E+03  0.22857886463E+03  0.00000000000E+00 0. -1.
         24    1    1    2    0    0 -0.35190160109E+02  0.55130975226E+02  0.40452016526E+02  0.11127153002E+03  0.80419002446E+02 0. -1.
          1    1    1    2  501    0  0.21380873391E+02 -0.91762693280E+02 -0.16467709262E+03  0.18972632516E+03  0.00000000000E+00 0. -1.
         -2    1    1    2    0  502  0.13809286718E+02  0.36631718054E+02  0.80280427173E+01  0.39962840704E+02  0.00000000000E+00 0.  1.
<mgrwt>
<rscale>  2 0.11851343E+03</rscale>
<asrwt>0</asrwt>
<pdfrwt beam="1">  1       21 0.17289512E-01 0.11851343E+03</pdfrwt>
<pdfrwt beam="2">  1       21 0.35165979E-01 0.11851343E+03</pdfrwt>
<totfact> 0.24003962E+05</totfact>
</mgrwt>
</event>
<event>
 5    1  0.1624116E+000  0.1338477E+03  0.7546771E-02  0.1221856E+00
         21   -1    0    0  503  502  0.00000000000E+00  0.00000000000E+00  0.61451437790E+03  0.61451437790E+03  0.00000000000E+00 0. -1.
         21   -1    0    0  501  503 -0.00000000000E+00 -0.00000000000E+00 -0.22805562618E+03  0.22805562618E+03  0.00000000000E+00 0. -1.
         24    1    1    2    0    0 -0.11812601283E+03 -0.28393887652E+02  0.11179014757E+03  0.18364155524E+03  0.80419002446E+02 0. -1.
          1    1    1    2  501    0  0.22170182173E+02  0.98906697715E+01 -0.18621884522E+03  0.18779457032E+03  0.00000000000E+00 0. -1.
         -2    1    1    2    0  502  0.95955830656E+02  0.18503217881E+02  0.46088744937E+03  0.47113387852E+03  0.00000000000E+00 0.  1.
<mgrwt>
<rscale>  2 0.13384772E+03</rscale>
<asrwt>0</asrwt>
<pdfrwt beam="1">  1       21 0.94540673E-01 0.13384772E+03</pdfrwt>
<pdfrwt beam="2">  1       21 0.35085481E-01 0.13384772E+03</pdfrwt>
<totfact> 0.76980710E+03</totfact>
</mgrwt>
</event>
<event>
 5    1  0.1624116E+000  0.7217454E+02  0.7546771E-02  0.1352851E+00
         21   -1    0    0  503  502  0.00000000000E+00  0.00000000000E+00  0.21223272427E+02  0.21223272427E+02  0.00000000000E+00 0. -1.
         21   -1    0    0  501  503 -0.00000000000E+00 -0.00000000000E+00 -0.28434349964E+03  0.28434349964E+03  0.00000000000E+00 0.  1.
         24    1    1    2    0    0 -0.21470218997E+02 -0.97899393911E+01 -0.20317015085E+03  0.21977747694E+03  0.80419002446E+02 0.  1.
          1    1    1    2  501    0 -0.17796552594E+02  0.11579448568E+02 -0.27969562232E+02  0.35115485541E+02  0.00000000000E+00 0. -1.
         -2    1    1    2    0  502  0.39266771590E+02 -0.17895091767E+01 -0.31980514129E+02  0.50673809588E+02  0.00000000000E+00 0.  1.
<mgrwt>
<rscale>  2 0.72174541E+02</rscale>
<asrwt>0</asrwt>
<pdfrwt beam="1">  1       21 0.32651190E-02 0.72174541E+02</pdfrwt>
<pdfrwt beam="2">  1       21 0.43745152E-01 0.72174541E+02</pdfrwt>
<totfact> 0.26752631E+06</totfact>
</mgrwt>
</event>
<event>
 5    1  0.1624116E+000  0.6543031E+02  0.7546771E-02  0.1376360E+00
         21   -1    0    0  503  502  0.00000000000E+00  0.00000000000E+00  0.30946434358E+02  0.30946434358E+02  0.00000000000E+00 0.  1.
         21   -1    0    0  501  503 -0.00000000000E+00 -0.00000000000E+00 -0.22799189059E+03  0.22799189059E+03  0.00000000000E+00 0. -1.
         24    1    1    2    0    0  0.13519843223E+02 -0.15149389996E+02 -0.56572497638E+02  0.10039897221E+03  0.80419002446E+02 0.  1.
          1    1    1    2  501    0 -0.16475883456E+02 -0.12142117980E+02 -0.12571997501E+03  0.12737502849E+03  0.00000000000E+00 0. -1.
         -2    1    1    2    0  502  0.29560402328E+01  0.27291507976E+02 -0.14752983586E+02  0.31164324253E+02  0.00000000000E+00 0.  1.
<mgrwt>
<rscale>  2 0.65430309E+02</rscale>
<asrwt>0</asrwt>
<pdfrwt beam="1">  1       21 0.47609899E-02 0.65430309E+02</pdfrwt>
<pdfrwt beam="2">  1       21 0.35075676E-01 0.65430309E+02</pdfrwt>
<totfact> 0.22146778E+06</totfact>
</mgrwt>
</event>
<event>
 5    1  0.1624116E+000  0.3326009E+03  0.7546771E-02  0.1069992E+00
         21   -1    0    0  501  502  0.00000000000E+00  0.00000000000E+00  0.10695369973E+04  0.10695369973E+04  0.00000000000E+00 0.  1.
         21   -1    0    0  502  503 -0.00000000000E+00 -0.00000000000E+00 -0.11929522300E+03  0.11929522300E+03  0.00000000000E+00 0. -1.
         24    1    1    2    0    0  0.95277061290E+02 -0.17568187329E+03  0.51295444600E+03  0.55635538878E+03  0.80419002446E+02 0.  1.
          1    1    1    2  501    0  0.66168203939E+00  0.29593722146E+03  0.33863770415E+03  0.44972744139E+03  0.00000000000E+00 0. -1.
         -2    1    1    2    0  503 -0.95938743330E+02 -0.12025534817E+03  0.98649624110E+02  0.18274939007E+03  0.00000000000E+00 0.  1.
<mgrwt>
<rscale>  2 0.33260091E+03</rscale>
<asrwt>0</asrwt>
<pdfrwt beam="1">  1       21 0.16454415E+00 0.33260091E+03</pdfrwt>
<pdfrwt beam="2">  1       21 0.18353112E-01 0.33260091E+03</pdfrwt>
<totfact> 0.57726073E+03</totfact>
</mgrwt>
</event>
<event>
 5    1  0.1624116E+000  0.7932341E+02  0.7546771E-02  0.1330983E+00
         21   -1    0    0  501  502  0.00000000000E+00  0.00000000000E+00  0.54125412260E+03  0.54125412260E+03  0.00000000000E+00 0.  1.
         21   -1    0    0  502  503 -0.00000000000E+00 -0.00000000000E+00 -0.25042747958E+02  0.25042747958E+02  0.00000000000E+00 0.  1.
         24    1    1    2    0    0 -0.69956986023E+01 -0.55157909294E+02  0.24660459876E+03  0.26527792754E+03  0.80419002446E+02 0.  1.
          1    1    1    2  501    0 -0.93699006240E+01  0.21510739115E+02  0.26173399746E+03  0.26278354660E+03  0.00000000000E+00 0. -1.
         -2    1    1    2    0  503  0.16365599226E+02  0.33647170179E+02  0.78727784178E+01  0.38235396416E+02  0.00000000000E+00 0.  1.
<mgrwt>
<rscale>  2 0.79323415E+02</rscale>
<asrwt>0</asrwt>
<pdfrwt beam="1">  1       21 0.83269856E-01 0.79323415E+02</pdfrwt>
<pdfrwt beam="2">  1       21 0.38527309E-02 0.79323415E+02</pdfrwt>
<totfact> 0.53150729E+05</totfact>
</mgrwt>
</event>
<event>
 5    1  0.1624116E+000  0.8660931E+02  0.7546771E-02  0.1311277E+00
         21   -1    0    0  503  502  0.00000000000E+00  0.00000000000E+00  0.18867007354E+02  0.18867007354E+02  0.00000000000E+00 0.  1.
         21   -1    0    0  501  503 -0.00000000000E+00 -0.00000000000E+00 -0.80568867273E+03  0.80568867273E+03  0.00000000000E+00 0. -1.
         24    1    1    2    0    0 -0.46335115323E+02  0.46686726739E+02 -0.72091722882E+03  0.72836492236E+03  0.80419002446E+02 0. -1.
          1    1    1    2  501    0  0.20638213516E+02 -0.65228596578E+01 -0.27312536295E+02  0.34849077378E+02  0.00000000000E+00 0. -1.
         -2    1    1    2    0  502  0.25696901808E+02 -0.40163867082E+02 -0.38591900260E+02  0.61341680342E+02  0.00000000000E+00 0.  1.
<mgrwt>
<rscale>  2 0.86609314E+02</rscale>
<asrwt>0</asrwt>
<pdfrwt beam="1">  1       21 0.29026159E-02 0.86609314E+02</pdfrwt>
<pdfrwt beam="2">  1       21 0.12395213E+00 0.86609314E+02</pdfrwt>
<totfact> 0.33540984E+05</totfact>
</mgrwt>
</event>
<event>
 5    1  0.1624116E+000  0.7257072E+02  0.7546771E-02  0.1351563E+00
         21   -1    0    0  503  502  0.00000000000E+00  0.00000000000E+00  0.65816626148E+02  0.65816626148E+02  0.00000000000E+00 0. -1.
         21   -1    0    0  501  503 -0.00000000000E+00 -0.00000000000E+00 -0.83723172423E+02  0.83723172423E+02  0.00000000000E+00 0.  1.
         24    1    1    2    0    0 -0.49641262894E+01 -0.10189016604E+02 -0.42878199650E+01  0.81326871104E+02  0.80419002446E+02 0.  0.
          1    1    1    2  501    0  0.29192847351E+02 -0.11531921077E+02 -0.16652993891E+02  0.35532094586E+02  0.00000000000E+00 0. -1.
         -2    1    1    2    0  502 -0.24228721061E+02  0.21720937682E+02  0.30342675801E+01  0.32680832881E+02  0.00000000000E+00 0.  1.
<mgrwt>
<rscale>  2 0.72570722E+02</rscale>
<asrwt>0</asrwt>
<pdfrwt beam="1">  1       21 0.10125635E-01 0.72570722E+02</pdfrwt>
<pdfrwt beam="2">  1       21 0.12880488E-01 0.72570722E+02</pdfrwt>
<totfact> 0.39204430E+06</totfact>
</mgrwt>
</event>
<event>
 5    1  0.1624116E+000  0.8570791E+02  0.7546771E-02  0.1313592E+00
         21   -1    0    0  503  502  0.00000000000E+00  0.00000000000E+00  0.56984236125E+02  0.56984236125E+02  0.00000000000E+00 0. -1.
         21   -1    0    0  501  503 -0.00000000000E+00 -0.00000000000E+00 -0.20184685197E+03  0.20184685197E+03  0.00000000000E+00 0.  1.
         24    1    1    2    0    0 -0.59345419624E+02  0.11723314806E+02 -0.34722074416E+01  0.10069055129E+03  0.80419002446E+02 0. -1.
          1    1    1    2  501    0  0.33430252963E+02  0.12130439466E+02 -0.73912667432E+02  0.82023239278E+02  0.00000000000E+00 0. -1.
         -2    1    1    2    0  502  0.25915166661E+02 -0.23853754272E+02 -0.67477740975E+02  0.76117297528E+02  0.00000000000E+00 0.  1.
<mgrwt>
<rscale>  2 0.85707908E+02</rscale>
<asrwt>0</asrwt>
<pdfrwt beam="1">  1       21 0.87668057E-02 0.85707908E+02</pdfrwt>
<pdfrwt beam="2">  1       21 0.31053361E-01 0.85707908E+02</pdfrwt>
<totfact> 0.10140017E+06</totfact>
</mgrwt>
</event>
<event>
 5    1  0.1624116E+000  0.7720437E+02  0.7546771E-02  0.1337178E+00
         21   -1    0    0  501  502  0.00000000000E+00  0.00000000000E+00  0.25366038458E+04  0.25366038458E+04  0.00000000000E+00 0.  1.
         21   -1    0    0  502  503 -0.00000000000E+00 -0.00000000000E+00 -0.27680127535E+01  0.27680127535E+01  0.00000000000E+00 0.  1.
         24    1    1    2    0    0 -0.14443336762E+02  0.54139024943E+02  0.15031033263E+04  0.15062956116E+04  0.80419002446E+02 0.  1.
          1    1    1    2  501    0  0.49541186417E+01 -0.30864084885E+02  0.85328995024E+03  0.85386232743E+03  0.00000000000E+00 0. -1.
         -2    1    1    2    0  503  0.94892181202E+01 -0.23274940058E+02  0.17744255651E+03  0.17921391953E+03  0.00000000000E+00 0.  1.
<mgrwt>
<rscale>  2 0.77204374E+02</rscale>
<asrwt>0</asrwt>
<pdfrwt beam="1">  1       21 0.39024489E+00 0.77204374E+02</pdfrwt>
<pdfrwt beam="2">  1       21 0.42585014E-03 0.77204374E+02</pdfrwt>
<totfact> 0.16918509E+05</totfact>
</mgrwt>
</event>
<event>
 5    1  0.1624116E+000  0.6604348E+02  0.7546771E-02  0.1374089E+00
         21   -1    0    0  501  502  0.00000000000E+00  0.00000000000E+00  0.89566107731E+03  0.89566107731E+03  0.00000000000E+00 0. -1.
         21   -1    0    0  502  503 -0.00000000000E+00 -0.00000000000E+00 -0.27047216351E+02  0.27047216351E+02  0.00000000000E+00 0. -1.
         24    1    1    2    0    0 -0.85899067798E+01 -0.14600116982E+01  0.86774142680E+03  0.87150348127E+03  0.80419002446E+02 0. -1.
          1    1    1    2  501    0  0.25094466025E+02 -0.13869245002E+02  0.45098927144E+00  0.28675626817E+02  0.00000000000E+00 0. -1.
         -2    1    1    2    0  503 -0.16504559245E+02  0.15329256700E+02  0.42144489160E+00  0.22529185575E+02  0.00000000000E+00 0.  1.
<mgrwt>
<rscale>  2 0.66043482E+02</rscale>
<asrwt>0</asrwt>
<pdfrwt beam="1">  1       21 0.13779399E+00 0.66043482E+02</pdfrwt>
<pdfrwt beam="2">  1       21 0.41611109E-02 0.66043482E+02</pdfrwt>
<totfact> 0.14551006E+05</totfact>
</mgrwt>
</event>
<event>
 5    1  0.1624116E+000  0.2137617E+03  0.7546771E-02  0.1138621E+00
         21   -1    0    0  503  502  0.00000000000E+00  0.00000000000E+00  0.34003906343E+03  0.34003906343E+03  0.00000000000E+00 0.  1.
         21   -1    0    0  501  503 -0.00000000000E+00 -0.00000000000E+00 -0.20603230783E+03  0.20603230783E+03  0.00000000000E+00 0. -1.
         24    1    1    2    0    0  0.52642319448E+02 -0.19493039968E+03 -0.30266037917E+01  0.21736018679E+03  0.80419002446E+02 0. -1.
          1    1    1    2  501    0 -0.13571298108E+02  0.15012140741E+03 -0.27985838986E+02  0.15330957008E+03  0.00000000000E+00 0. -1.
         -2    1    1    2    0  502 -0.39071021340E+02  0.44808992277E+02  0.16501919838E+03  0.17540161439E+03  0.00000000000E+00 0.  1.
<mgrwt>
<rscale>  2 0.21376173E+03</rscale>
<asrwt>0</asrwt>
<pdfrwt beam="1">  1       21 0.52313702E-01 0.21376173E+03</pdfrwt>
<pdfrwt beam="2">  1       21 0.31697278E-01 0.21376173E+03</pdfrwt>
<totfact> 0.32800179E+04</totfact>
</mgrwt>
</event>
<event>
 5    1  0.1624116E+000  0.9867569E+02  0.7546771E-02  0.1283106E+00
         21   -1    0    0  501  502  0.00000000000E+00  0.00000000000E+00  0.52087072391E+03  0.52087072391E+03  0.00000000000E+00 0.  1.
         21   -1    0    0  502  503 -0.00000000000E+00 -0.00000000000E+00 -0.23930699305E+02  0.23930699305E+02  0.00000000000E+00 0.  1.
         24    1    1    2    0    0  0.12496531697E+02 -0.50689173706E+02  0.23077685574E+03  0.24990143804E+03  0.80419002446E+02 0.  1.
          1    1    1    2  501    0  0.14893494957E+01 -0.24726278549E+02  0.17047394261E+03  0.17226425085E+03  0.00000000000E+00 0. -1.
         -2    1    1    2    0  503 -0.13985881193E+02  0.75415452254E+02  0.95689226259E+02  0.12263573433E+03  0.00000000000E+00 0.  1.
<mgrwt>
<rscale>  2 0.98675687E+02</rscale>
<asrwt>0</asrwt>
<pdfrwt beam="1">  1       21 0.80133949E-01 0.98675687E+02</pdfrwt>
<pdfrwt beam="2">  1       21 0.36816464E-02 0.98675687E+02</pdfrwt>
<totfact> 0.62314698E+05</totfact>
</mgrwt>
</event>
<event>
 5    1  0.1624116E+000  0.6829695E+02  0.7546771E-02  0.1365982E+00
         21   -1    0    0  503  502  0.00000000000E+00  0.00000000000E+00  0.21506498950E+03  0.21506498950E+03  0.00000000000E+00 0.  1.
         21   -1    0    0  501  503 -0.00000000000E+00 -0.00000000000E+00 -0.10022346249E+03  0.10022346249E+03  0.00000000000E+00 0. -1.
         24    1    1    2    0    0  0.33848230584E+02 -0.10966149603E+02  0.14762772870E+03  0.17183457564E+03  0.80419002446E+02 0.  1.
          1    1    1    2  501    0 -0.93666638841E+01  0.20377524045E+02 -0.83445911934E+02  0.86407164616E+02  0.00000000000E+00 0. -1.
         -2    1    1    2    0  502 -0.24481566700E+02 -0.94113744417E+01  0.50659710250E+02  0.57046711733E+02  0.00000000000E+00 0.  1.
<mgrwt>
<rscale>  2 0.68296946E+02</rscale>
<asrwt>0</asrwt>
<pdfrwt beam="1">  1       21 0.33086921E-01 0.68296946E+02</pdfrwt>
<pdfrwt beam="2">  1       21 0.15418994E-01 0.68296946E+02</pdfrwt>
<totfact> 0.33491169E+05</totfact>
</mgrwt>
</event>
<event>
 5    1  0.1624116E+000  0.1693636E+03  0.7546771E-02  0.1178513E+00
         21   -1    0    0  501  502  0.00000000000E+00  0.00000000000E+00  0.56200174074E+02  0.56200174074E+02  0.00000000000E+00 0.  1.
         21   -1    0    0  502  503 -0.00000000000E+00 -0.00000000000E+00 -0.88400795752E+03  0.88400795752E+03  0.00000000000E+00 0. -1.
         24    1    1    2    0    0  0.12273327481E+03  0.25353745284E+02 -0.28123391979E+03  0.31822319642E+03  0.80419002446E+02 0.  0.
          1    1    1    2  501    0 -0.13752860445E+03  0.22834276389E+02 -0.97576163966E+02  0.17016647435E+03  0.00000000000E+00 0. -1.
         -2    1    1    2    0  503  0.14795329639E+02 -0.48188021673E+02 -0.44899769969E+03  0.45181846082E+03  0.00000000000E+00 0.  1.
<mgrwt>
<rscale>  2 0.16936359E+03</rscale>
<asrwt>0</asrwt>
<pdfrwt beam="1">  1       21 0.86461803E-02 0.16936359E+03</pdfrwt>
<pdfrwt beam="2">  1       21 0.13600123E+00 0.16936359E+03</pdfrwt>
<totfact> 0.40947131E+04</totfact>
</mgrwt>
</event>
<event>
 5    1  0.1624116E+000  0.6999544E+02  0.7546771E-02  0.1360109E+00
         21   -1    0    0  503  502  0.00000000000E+00  0.00000000000E+00  0.66712865648E+02  0.66712865648E+02  0.00000000000E+00 0. -1.
         21   -1    0    0  501  503 -0.00000000000E+00 -0.00000000000E+00 -0.74229585673E+02  0.74229585673E+02  0.00000000000E+00 0.  1.
         24    1    1    2    0    0  0.28751551950E+01  0.28264133627E+01 -0.69627685765E+01  0.80820487690E+02  0.80419002446E+02 0.  0.
          1    1    1    2  501    0  0.25634331594E+02 -0.13569632053E+02 -0.46725630373E+01  0.29378337524E+02  0.00000000000E+00 0. -1.
         -2    1    1    2    0  502 -0.28509486789E+02  0.10743218691E+02  0.41186115890E+01  0.30743626107E+02  0.00000000000E+00 0.  1.
<mgrwt>
<rscale>  2 0.69995440E+02</rscale>
<asrwt>0</asrwt>
<pdfrwt beam="1">  1       21 0.10263518E-01 0.69995440E+02</pdfrwt>
<pdfrwt beam="2">  1       21 0.11419936E-01 0.69995440E+02</pdfrwt>
<totfact> 0.47120693E+06</totfact>
</mgrwt>
</event>
<event>
 5    1  0.1624116E+000  0.7233534E+02  0.7546771E-02  0.1352327E+00
         21   -1    0    0  503  502  0.00000000000E+00  0.00000000000E+00  0.20399057381E+02  0.20399057381E+02  0.00000000000E+00 0. -1.
         21   -1    0    0  501  503 -0.00000000000E+00 -0.00000000000E+00 -0.28139529403E+03  0.28139529403E+03  0.00000000000E+00 0. -1.
         24    1    1    2    0    0  0.20876951980E+02  0.27417761091E+01 -0.10512254725E+03  0.13401988791E+03  0.80419002446E+02 0. -1.
          1    1    1    2  501    0 -0.40682222553E+02  0.33497194974E+01 -0.11322740642E+03  0.12036074699E+03  0.00000000000E+00 0. -1.
         -2    1    1    2    0  502  0.19805270573E+02 -0.60914956065E+01 -0.42646282985E+02  0.47413716513E+02  0.00000000000E+00 0.  1.
<mgrwt>
<rscale>  2 0.72335340E+02</rscale>
<asrwt>0</asrwt>
<pdfrwt beam="1">  1       21 0.31383168E-02 0.72335340E+02</pdfrwt>
<pdfrwt beam="2">  1       21 0.43291580E-01 0.72335340E+02</pdfrwt>
<totfact> 0.29127064E+06</totfact>
</mgrwt>
</event>
<event>
 5    1  0.1624116E+000  0.6953963E+02  0.7546771E-02  0.1361666E+00
         21   -1    0    0  503  502  0.00000000000E+00  0.00000000000E+00  0.35806455822E+03  0.35806455822E+03  0.00000000000E+00 0.  1.
         21   -1    0    0  501  503 -0.00000000000E+00 -0.00000000000E+00 -0.30839484729E+02  0.30839484729E+02  0.00000000000E+00 0. -1.
         24    1    1    2    0    0 -0.65707513097E+01  0.24944049326E+02  0.12774037435E+03  0.15313457990E+03  0.80419002446E+02 0. -1.
          1    1    1    2  501    0  0.26880602018E+02 -0.20572439515E+02 -0.13370887513E+01  0.33875947791E+02  0.00000000000E+00 0. -1.
         -2    1    1    2    0  502 -0.20309850708E+02 -0.43716098111E+01  0.20082178790E+03  0.20189351526E+03  0.00000000000E+00 0.  1.
<mgrwt>
<rscale>  2 0.69539630E+02</rscale>
<asrwt>0</asrwt>
<pdfrwt beam="1">  1       21 0.55086852E-01 0.69539630E+02</pdfrwt>
<pdfrwt beam="2">  1       21 0.47445363E-02 0.69539630E+02</pdfrwt>
<totfact> 0.91006265E+05</totfact>
</mgrwt>
</event>
<event>
 5    1  0.1624116E+000  0.8281553E+02  0.7546771E-02  0.1321246E+00
         21   -1    0    0  503  502  0.00000000000E+00  0.00000000000E+00  0.97755928030E+02  0.97755928030E+02  0.00000000000E+00 0.  1.
         21   -1    0    0  501  503 -0.00000000000E+00 -0.00000000000E+00 -0.11426238988E+03  0.11426238988E+03  0.00000000000E+00 0.  1.
         24    1    1    2    0    0 -0.39533363681E+02 -0.45933714433E+02 -0.68922668211E+02  0.12202599360E+03  0.80419002446E+02 0.  1.
          1    1    1    2  501    0  0.84416703940E+01  0.27548062383E+02  0.32664161333E+01  0.28997017338E+02  0.00000000000E+00 0. -1.
         -2    1    1    2    0  502  0.31091693287E+02  0.18385652050E+02  0.49149790232E+02  0.60995306972E+02  0.00000000000E+00 0.  1.
<mgrwt>
<rscale>  2 0.82815526E+02</rscale>
<asrwt>0</asrwt>
<pdfrwt beam="1">  1       21 0.15039373E-01 0.82815526E+02</pdfrwt>
<pdfrwt beam="2">  1       21 0.17578829E-01 0.82815526E+02</pdfrwt>
<totfact> 0.11349604E+06</totfact>
</mgrwt>
</event>
<event>
 5    1  0.1624116E+000  0.8268889E+02  0.7546771E-02  0.1321589E+00
         21   -1    0    0  501  502  0.00000000000E+00  0.00000000000E+00  0.98164896528E+02  0.98164896528E+02  0.00000000000E+00 0.  1.
         21   -1    0    0  502  503 -0.00000000000E+00 -0.00000000000E+00 -0.73404746146E+02  0.73404746146E+02  0.00000000000E+00 0. -1.
         24    1    1    2    0    0  0.47896410088E+01 -0.43644358597E+01  0.76526944328E+01  0.81041771006E+02  0.80419002446E+02 0.  1.
          1    1    1    2  501    0 -0.28936007303E+02 -0.30659041803E+02  0.22264858950E+02  0.47675919571E+02  0.00000000000E+00 0. -1.
         -2    1    1    2    0  503  0.24146366294E+02  0.35023477663E+02 -0.51574030003E+01  0.42851952097E+02  0.00000000000E+00 0.  1.
<mgrwt>
<rscale>  2 0.82688890E+02</rscale>
<asrwt>0</asrwt>
<pdfrwt beam="1">  1       21 0.15102292E-01 0.82688890E+02</pdfrwt>
<pdfrwt beam="2">  1       21 0.11293038E-01 0.82688890E+02</pdfrwt>
<totfact> 0.24680517E+06</totfact>
</mgrwt>
</event>
<event>
 5    1  0.1624116E+000  0.9488710E+02  0.7546771E-02  0.1291431E+00
         21   -1    0    0  503  502  0.00000000000E+00  0.00000000000E+00  0.19616683291E+02  0.19616683291E+02  0.00000000000E+00 0. -1.
         21   -1    0    0  501  503 -0.00000000000E+00 -0.00000000000E+00 -0.65065535840E+03  0.65065535840E+03  0.00000000000E+00 0. -1.
         24    1    1    2    0    0  0.35361740682E+02 -0.50810957996E+02 -0.27771615539E+03  0.29567834732E+03  0.80419002446E+02 0. -1.
          1    1    1    2  501    0 -0.53672861140E+02  0.40795273191E+02 -0.34595128755E+03  0.35245896740E+03  0.00000000000E+00 0. -1.
         -2    1    1    2    0  502  0.18311120458E+02  0.10015684805E+02 -0.73712321664E+01  0.22134726974E+02  0.00000000000E+00 0.  1.
<mgrwt>
<rscale>  2 0.94887103E+02</rscale>
<asrwt>0</asrwt>
<pdfrwt beam="1">  1       21 0.30179520E-02 0.94887103E+02</pdfrwt>
<pdfrwt beam="2">  1       21 0.10010080E+00 0.94887103E+02</pdfrwt>
<totfact> 0.52143255E+05</totfact>
</mgrwt>
</event>
<event>
 5    1  0.1624116E+000  0.3976465E+03  0.7546771E-02  0.1044598E+00
         21   -1    0    0  501  502  0.00000000000E+00  0.00000000000E+00  0.42471197525E+03  0.42471197525E+03  0.00000000000E+00 0. -1.
         21   -1    0    0  502  503 -0.00000000000E+00 -0.00000000000E+00 -0.46321049117E+03  0.46321049117E+03  0.00000000000E+00 0. -1.
         24    1    1    2    0    0  0.25662189079E+03 -0.29479721124E+03 -0.20897057692E+03  0.45043990560E+03  0.80419002446E+02 0. -1.
          1    1    1    2  501    0 -0.21581604484E+03  0.27846824924E+03  0.17485407896E+03  0.39331295425E+03  0.00000000000E+00 0. -1.
         -2    1    1    2    0  503 -0.40805845951E+02  0.16328961991E+02 -0.43820179647E+01  0.44169606575E+02  0.00000000000E+00 0.  1.
<mgrwt>
<rscale>  2 0.39764654E+03</rscale>
<asrwt>0</asrwt>
<pdfrwt beam="1">  1       21 0.65340304E-01 0.39764654E+03</pdfrwt>
<pdfrwt beam="2">  1       21 0.71263152E-01 0.39764654E+03</pdfrwt>
<totfact> 0.34159194E+03</totfact>
</mgrwt>
</event>
<event>
 5    1  0.1624116E+000  0.1084894E+03  0.7546771E-02  0.1263393E+00
         21   -1    0    0  501  502  0.00000000000E+00  0.00000000000E+00  0.10097295775E+03  0.10097295775E+03  0.00000000000E+00 0. -1.
         21   -1    0    0  502  503 -0.00000000000E+00 -0.00000000000E+00 -0.12144045131E+03  0.12144045131E+03  0.00000000000E+00 0.  1.
         24    1    1    2    0    0  0.56640395598E+02  0.30440614349E+02 -0.14738806063E+02  0.10401544969E+03  0.80419002446E+02 0.  0.
          1    1    1    2  501    0  0.83752765635E+01  0.26373366684E+02  0.12155845415E+02  0.30223572018E+02  0.00000000000E+00 0. -1.
         -2    1    1    2    0  503 -0.65015672162E+02 -0.56813981033E+02 -0.17884532904E+02  0.88174387351E+02  0.00000000000E+00 0.  1.
<mgrwt>
<rscale>  2 0.10848938E+03</rscale>
<asrwt>0</asrwt>
<pdfrwt beam="1">  1       21 0.15534301E-01 0.10848938E+03</pdfrwt>
<pdfrwt beam="2">  1       21 0.18683146E-01 0.10848938E+03</pdfrwt>
<totfact> 0.96394627E+05</totfact>
</mgrwt>
</event>
<event>
 5    1  0.1624116E+000  0.7538090E+02  0.7546771E-02  0.1342696E+00
         21   -1    0    0  501  502  0.00000000000E+00  0.00000000000E+00  0.10815624816E+02  0.10815624816E+02  0.00000000000E+00 0.  1.
         21   -1    0    0  502  503 -0.00000000000E+00 -0.00000000000E+00 -0.64509488954E+03  0.64509488954E+03  0.00000000000E+00 0. -1.
         24    1    1    2    0    0 -0.24863440553E+02 -0.18206534581E+02 -0.23655339747E+03  0.25174271466E+03  0.80419002446E+02 0.  1.
          1    1    1    2  501    0  0.17787792953E+01  0.35657566435E+02 -0.12773601966E+03  0.13263150764E+03  0.00000000000E+00 0. -1.
         -2    1    1    2    0  503  0.23084661258E+02 -0.17451031854E+02 -0.26998984760E+03  0.27153629206E+03  0.00000000000E+00 0.  1.
<mgrwt>
<rscale>  2 0.75380900E+02</rscale>
<asrwt>0</asrwt>
<pdfrwt beam="1">  1       21 0.16639416E-02 0.75380900E+02</pdfrwt>
<pdfrwt beam="2">  1       21 0.99245410E-01 0.75380900E+02</pdfrwt>
<totfact> 0.13805491E+06</totfact>
</mgrwt>
</event>
<event>
 5    1  0.1624116E+000  0.8582399E+02  0.7546771E-02  0.1313292E+00
         21   -1    0    0  501  502  0.00000000000E+00  0.00000000000E+00  0.74842222570E+02  0.74842222570E+02  0.00000000000E+00 0.  1.
         21   -1    0    0  502  503 -0.00000000000E+00 -0.00000000000E+00 -0.10797915802E+03  0.10797915802E+03  0.00000000000E+00 0.  1.
         24    1    1    2    0    0 -0.40551202318E+02 -0.42075677316E+02 -0.34065958059E+01  0.99466494260E+02  0.80419002446E+02 0.  1.
          1    1    1    2  501    0  0.12881158061E+01  0.31569012215E+02  0.21946035728E+01  0.31671407601E+02  0.00000000000E+00 0. -1.
         -2    1    1    2    0  503  0.39263086512E+02  0.10506665100E+02 -0.31924943212E+02  0.51683478724E+02  0.00000000000E+00 0.  1.
<mgrwt>
<rscale>  2 0.85823989E+02</rscale>
<asrwt>0</asrwt>
<pdfrwt beam="1">  1       21 0.11514188E-01 0.85823989E+02</pdfrwt>
<pdfrwt beam="2">  1       21 0.16612178E-01 0.85823989E+02</pdfrwt>
<totfact> 0.20152829E+06</totfact>
</mgrwt>
</event>
<event>
 5    1  0.1624116E+000  0.7583995E+02  0.7546771E-02  0.1341290E+00
         21   -1    0    0  503  502  0.00000000000E+00  0.00000000000E+00  0.49762894247E+02  0.49762894247E+02  0.00000000000E+00 0. -1.
         21   -1    0    0  501  503 -0.00000000000E+00 -0.00000000000E+00 -0.17989463821E+03  0.17989463821E+03  0.00000000000E+00 0.  1.
         24    1    1    2    0    0  0.31396432775E+01  0.29615958261E+01 -0.13060868353E+03  0.15344208216E+03  0.80419002446E+02 0.  1.
          1    1    1    2  501    0 -0.73941110707E+01  0.33565937888E+02 -0.13427057033E+02  0.36900283541E+02  0.00000000000E+00 0. -1.
         -2    1    1    2    0  502  0.42544677932E+01 -0.36527533714E+02  0.13903996602E+02  0.39315166754E+02  0.00000000000E+00 0.  1.
<mgrwt>
<rscale>  2 0.75839952E+02</rscale>
<asrwt>0</asrwt>
<pdfrwt beam="1">  1       21 0.76558298E-02 0.75839952E+02</pdfrwt>
<pdfrwt beam="2">  1       21 0.27676099E-01 0.75839952E+02</pdfrwt>
<totfact> 0.15841308E+06</totfact>
</mgrwt>
</event>
<event>
 5    1  0.1624116E+000  0.1017214E+03  0.7546771E-02  0.1276717E+00
         21   -1    0    0  501  502  0.00000000000E+00  0.00000000000E+00  0.23848568960E+03  0.23848568960E+03  0.00000000000E+00 0. -1.
         21   -1    0    0  502  503 -0.00000000000E+00 -0.00000000000E+00 -0.57558520705E+02  0.57558520705E+02  0.00000000000E+00 0. -1.
         24    1    1    2    0    0  0.45437643980E+01  0.53790551813E+02  0.14002175138E+03  0.17025679450E+03  0.80419002446E+02 0. -1.
          1    1    1    2  501    0 -0.16670766128E+02 -0.77864892904E+02  0.53603025027E+02  0.95990313481E+02  0.00000000000E+00 0. -1.
         -2    1    1    2    0  503  0.12127001730E+02  0.24074341090E+02 -0.12697607518E+02  0.29797102318E+02  0.00000000000E+00 0.  1.
<mgrwt>
<rscale>  2 0.10172138E+03</rscale>
<asrwt>0</asrwt>
<pdfrwt beam="1">  1       21 0.36690106E-01 0.10172138E+03</pdfrwt>
<pdfrwt beam="2">  1       21 0.88551571E-02 0.10172138E+03</pdfrwt>
<totfact> 0.72295105E+05</totfact>
</mgrwt>
</event>
<event>
 5    1  0.1624116E+000  0.9609306E+02  0.7546771E-02  0.1288733E+00
         21   -1    0    0  501  502  0.00000000000E+00  0.00000000000E+00  0.40256495524E+03  0.40256495524E+03  0.00000000000E+00 0. -1.
         21   -1    0    0  502  503 -0.00000000000E+00 -0.00000000000E+00 -0.34312369151E+02  0.34312369151E+02  0.00000000000E+00 0.  1.
         24    1    1    2    0    0 -0.42378012890E+02  0.24910929589E+02  0.14322439134E+03  0.17145522044E+03  0.80419002446E+02 0.  1.
          1    1    1    2  501    0  0.64267816904E+01  0.30891085470E+02  0.18549905189E+03  0.18816338894E+03  0.00000000000E+00 0. -1.
         -2    1    1    2    0  503  0.35951231200E+02 -0.55802015059E+02  0.39529142865E+02  0.77258715010E+02  0.00000000000E+00 0.  1.
<mgrwt>
<rscale>  2 0.96093065E+02</rscale>
<asrwt>0</asrwt>
<pdfrwt beam="1">  1       21 0.61933067E-01 0.96093065E+02</pdfrwt>
<pdfrwt beam="2">  1       21 0.52788263E-02 0.96093065E+02</pdfrwt>
<totfact> 0.59910966E+05</totfact>
</mgrwt>
</event>
<event>
 5    1  0.1624116E+000  0.7087763E+02  0.7546771E-02  0.1357134E+00
         21   -1    0    0  501  502  0.00000000000E+00  0.00000000000E+00  0.33623852318E+02  0.33623852318E+02  0.00000000000E+00 0.  1.
         21   -1    0    0  502  503 -0.00000000000E+00 -0.00000000000E+00 -0.18067547515E+03  0.18067547515E+03  0.00000000000E+00 0. -1.
         24    1    1    2    0    0 -0.64958902827E+01  0.57413462102E-01 -0.66362714423E+02  0.10446734278E+03  0.80419002446E+02 0.  0.
          1    1    1    2  501    0 -0.24995399641E+02 -0.11571665716E+02 -0.63288334137E+01  0.28261768929E+02  0.00000000000E+00 0. -1.
         -2    1    1    2    0  503  0.31491289923E+02  0.11514252253E+02 -0.74360074993E+02  0.81570215759E+02  0.00000000000E+00 0.  1.
<mgrwt>
<rscale>  2 0.70877627E+02</rscale>
<asrwt>0</asrwt>
<pdfrwt beam="1">  1       21 0.51729003E-02 0.70877627E+02</pdfrwt>
<pdfrwt beam="2">  1       21 0.27796227E-01 0.70877627E+02</pdfrwt>
<totfact> 0.30196283E+06</totfact>
</mgrwt>
</event>
<event>
 5    1  0.1624116E+000  0.7345722E+02  0.7546771E-02  0.1348716E+00
         21   -1    0    0  503  502  0.00000000000E+00  0.00000000000E+00  0.29886291860E+02  0.29886291860E+02  0.00000000000E+00 0.  1.
         21   -1    0    0  501  503 -0.00000000000E+00 -0.00000000000E+00 -0.32324762926E+03  0.32324762926E+03  0.00000000000E+00 0. -1.
         24    1    1    2    0    0  0.31631109401E+02 -0.40990323937E+01 -0.12720218436E+03  0.15383413409E+03  0.80419002446E+02 0.  0.
          1    1    1    2  501    0 -0.17554248048E+02  0.27774521097E+02 -0.16848370009E+03  0.17165760351E+03  0.00000000000E+00 0. -1.
         -2    1    1    2    0  502 -0.14076861352E+02 -0.23675488704E+02  0.23245470567E+01  0.27642183523E+02  0.00000000000E+00 0.  1.
<mgrwt>
<rscale>  2 0.73457216E+02</rscale>
<asrwt>0</asrwt>
<pdfrwt beam="1">  1       21 0.45978915E-02 0.73457216E+02</pdfrwt>
<pdfrwt beam="2">  1       21 0.49730400E-01 0.73457216E+02</pdfrwt>
<totfact> 0.11826404E+06</totfact>
</mgrwt>
</event>
<event>
 5    1  0.1624116E+000  0.7130193E+02  0.7546771E-02  0.1355721E+00
         21   -1    0    0  501  502  0.00000000000E+00  0.00000000000E+00  0.21487242432E+03  0.21487242432E+03  0.00000000000E+00 0. -1.
         21   -1    0    0  502  503 -0.00000000000E+00 -0.00000000000E+00 -0.47879272324E+02  0.47879272324E+02  0.00000000000E+00 0.  1.
         24    1    1    2    0    0 -0.21728422290E+02 -0.23144709750E+02  0.44957162616E+02  0.97448264990E+02  0.80419002446E+02 0.  1.
          1    1    1    2  501    0 -0.10113938581E+02  0.22079250221E+02  0.13017427158E+03  0.13242026290E+03  0.00000000000E+00 0. -1.
         -2    1    1    2    0  503  0.31842360871E+02  0.10654595295E+01 -0.81382822073E+01  0.32883168751E+02  0.00000000000E+00 0.  1.
<mgrwt>
<rscale>  2 0.71301929E+02</rscale>
<asrwt>0</asrwt>
<pdfrwt beam="1">  1       21 0.33057296E-01 0.71301929E+02</pdfrwt>
<pdfrwt beam="2">  1       21 0.73660420E-02 0.71301929E+02</pdfrwt>
<totfact> 0.12037769E+06</totfact>
</mgrwt>
</event>
<event>
 5    1  0.1624116E+000  0.7632501E+02  0.7546771E-02  0.1339816E+00
         21   -1    0    0  503  502  0.00000000000E+00  0.00000000000E+00  0.11953665215E+03  0.11953665215E+03  0.00000000000E+00 0. -1.
         21   -1    0    0  501  503 -0.00000000000E+00 -0.00000000000E+00 -0.13257844033E+03  0.13257844033E+03  0.00000000000E+00 0. -1.
         24    1    1    2    0    0  0.24048171120E+02 -0.47613010485E+02 -0.66878032483E+00  0.96503764295E+02  0.80419002446E+02 0. -1.
          1    1    1    2  501    0 -0.65323728212E+01  0.32077429700E+02 -0.78719563025E+02  0.85254929439E+02  0.00000000000E+00 0. -1.
         -2    1    1    2    0  502 -0.17515798299E+02  0.15535580784E+02  0.66346555175E+02  0.70356398742E+02  0.00000000000E+00 0.  1.
<mgrwt>
<rscale>  2 0.76325011E+02</rscale>
<asrwt>0</asrwt>
<pdfrwt beam="1">  1       21 0.18390254E-01 0.76325011E+02</pdfrwt>
<pdfrwt beam="2">  1       21 0.20396683E-01 0.76325011E+02</pdfrwt>
<totfact> 0.60325377E+05</totfact>
</mgrwt>
</event>
<event>
 5    1  0.1624116E+000  0.7739560E+02  0.7546771E-02  0.1336609E+00
         21   -1    0    0  501  502  0.00000000000E+00  0.00000000000E+00  0.43076978785E+03  0.43076978785E+03  0.00000000000E+00 0. -1.
         21   -1    0    0  502  503 -0.00000000000E+00 -0.00000000000E+00 -0.13909810187E+02  0.13909810187E+02  0.00000000000E+00 0.  1.
         24    1    1    2    0    0  0.36986783573E+02 -0.30223294814E+02  0.25482564577E+03  0.27144943434E+03  0.80419002446E+02 0. -1.
          1    1    1    2  501    0 -0.23653696471E+02 -0.44854550728E+01  0.62194268168E+02  0.66691406169E+02  0.00000000000E+00 0. -1.
         -2    1    1    2    0  503 -0.13333087102E+02  0.34708749887E+02  0.99840063727E+02  0.10653875753E+03  0.00000000000E+00 0.  1.
<mgrwt>
<rscale>  2 0.77395600E+02</rscale>
<asrwt>0</asrwt>
<pdfrwt beam="1">  1       21 0.66272265E-01 0.77395600E+02</pdfrwt>
<pdfrwt beam="2">  1       21 0.21399711E-02 0.77395600E+02</pdfrwt>
<totfact> 0.22563968E+06</totfact>
</mgrwt>
</event>
<event>
 5    1  0.1624116E+000  0.6391651E+02  0.7546771E-02  0.1382094E+00
         21   -1    0    0  503  502  0.00000000000E+00  0.00000000000E+00  0.12886661855E+03  0.12886661855E+03  0.00000000000E+00 0.  1.
         21   -1    0    0  501  503 -0.00000000000E+00 -0.00000000000E+00 -0.21253036971E+03  0.21253036971E+03  0.00000000000E+00 0.  1.
         24    1    1    2    0    0 -0.59296792372E+01 -0.72970865097E+01 -0.84723010986E+02  0.11719049924E+03  0.80419002446E+02 0.  1.
          1    1    1    2  501    0  0.15670539156E+02 -0.15520960108E+02 -0.10909016470E+03  0.11129748440E+03  0.00000000000E+00 0. -1.
         -2    1    1    2    0  502 -0.97408599185E+01  0.22818046618E+02  0.11014942452E+03  0.11290900463E+03  0.00000000000E+00 0.  1.
<mgrwt>
<rscale>  2 0.63916509E+02</rscale>
<asrwt>0</asrwt>
<pdfrwt beam="1">  1       21 0.19825634E-01 0.63916509E+02</pdfrwt>
<pdfrwt beam="2">  1       21 0.32696980E-01 0.63916509E+02</pdfrwt>
<totfact> 0.21851734E+05</totfact>
</mgrwt>
</event>
<event>
 5    1  0.1624116E+000  0.6404681E+02  0.7546771E-02  0.1381593E+00
         21   -1    0    0  501  502  0.00000000000E+00  0.00000000000E+00  0.95878395600E+02  0.95878395600E+02  0.00000000000E+00 0.  1.
         21   -1    0    0  502  503 -0.00000000000E+00 -0.00000000000E+00 -0.68047217595E+02  0.68047217595E+02  0.00000000000E+00 0. -1.
         24    1    1    2    0    0 -0.47948962854E+01 -0.12846027174E+02  0.21429428233E+02  0.84347186043E+02  0.80419002446E+02 0.  1.
          1    1    1    2  501    0  0.24748592349E+02  0.68580670912E+01  0.35485286692E+02  0.43803327260E+02  0.00000000000E+00 0. -1.
         -2    1    1    2    0  503 -0.19953696063E+02  0.59879600833E+01 -0.29083536920E+02  0.35775099892E+02  0.00000000000E+00 0.  1.
<mgrwt>
<rscale>  2 0.64046808E+02</rscale>
<asrwt>0</asrwt>
<pdfrwt beam="1">  1       21 0.14750522E-01 0.64046808E+02</pdfrwt>
<pdfrwt beam="2">  1       21 0.10468803E-01 0.64046808E+02</pdfrwt>
<totfact> 0.28922753E+06</totfact>
</mgrwt>
</event>
<event>
 5    1  0.1624116E+000  0.7791016E+02  0.7546771E-02  0.1335089E+00
         21   -1    0    0  503  502  0.00000000000E+00  0.00000000000E+00  0.36493982538E+03  0.36493982538E+03  0.00000000000E+00 0.  1.
         21   -1    0    0  501  503 -0.00000000000E+00 -0.00000000000E+00 -0.35023661489E+02  0.35023661489E+02  0.00000000000E+00 0.  1.
         24    1    1    2    0    0  0.20017956208E+01 -0.56938982533E+02  0.84628336282E+02  0.12990468111E+03  0.80419002446E+02 0.  1.
          1    1    1    2  501    0 -0.40166654688E+01  0.33795128759E+02  0.12718194815E+02  0.36331760330E+02  0.00000000000E+00 0. -1.
         -2    1    1    2    0  502  0.20148698480E+01  0.23143853774E+02  0.23256963279E+03  0.23372704543E+03  0.00000000000E+00 0.  1.
<mgrwt>
<rscale>  2 0.77910155E+02</rscale>
<asrwt>0</asrwt>
<pdfrwt beam="1">  1       21 0.56144586E-01 0.77910155E+02</pdfrwt>
<pdfrwt beam="2">  1       21 0.53882559E-02 0.77910155E+02</pdfrwt>
<totfact> 0.71021154E+05</totfact>
</mgrwt>
</event>
<event>
 5    1  0.1624116E+000  0.1656285E+03  0.7546771E-02  0.1182485E+00
         21   -1    0    0  503  502  0.00000000000E+00  0.00000000000E+00  0.22143442025E+03  0.22143442025E+03  0.00000000000E+00 0.  1.
         21   -1    0    0  501  503 -0.00000000000E+00 -0.00000000000E+00 -0.24968205239E+03  0.24968205239E+03  0.00000000000E+00 0. -1.
         24    1    1    2    0    0  0.64676643577E+02  0.12285958553E+03 -0.12652498250E+03  0.20433632358E+03  0.80419002446E+02 0.  0.
          1    1    1    2  501    0 -0.89008412052E+02 -0.11460862564E+03 -0.19334332431E+02  0.14639484587E+03  0.00000000000E+00 0. -1.
         -2    1    1    2    0  502  0.24331768475E+02 -0.82509598882E+01  0.11761168279E+03  0.12038530320E+03  0.00000000000E+00 0.  1.
<mgrwt>
<rscale>  2 0.16562845E+03</rscale>
<asrwt>0</asrwt>
<pdfrwt beam="1">  1       21 0.34066834E-01 0.16562845E+03</pdfrwt>
<pdfrwt beam="2">  1       21 0.38412624E-01 0.16562845E+03</pdfrwt>
<totfact> 0.54956689E+04</totfact>
</mgrwt>
</event>
<event>
 5    1  0.1624116E+000  0.6915964E+02  0.7546771E-02  0.1362974E+00
         21   -1    0    0  503  502  0.00000000000E+00  0.00000000000E+00  0.31073570586E+02  0.31073570586E+02  0.00000000000E+00 0. -1.
         21   -1    0    0  501  503 -0.00000000000E+00 -0.00000000000E+00 -0.18221519387E+03  0.18221519387E+03  0.00000000000E+00 0. -1.
         24    1    1    2    0    0  0.89137986261E+01 -0.81909604603E+01 -0.12210910767E+03  0.14671195511E+03  0.80419002446E+02 0.  0.
          1    1    1    2  501    0  0.11358168248E+02  0.27030370757E+02 -0.25155256574E+02  0.38632057447E+02  0.00000000000E+00 0. -1.
         -2    1    1    2    0  502 -0.20271966875E+02 -0.18839410297E+02 -0.38772590332E+01  0.27944751903E+02  0.00000000000E+00 0.  1.
<mgrwt>
<rscale>  2 0.69159642E+02</rscale>
<asrwt>0</asrwt>
<pdfrwt beam="1">  1       21 0.47805492E-02 0.69159642E+02</pdfrwt>
<pdfrwt beam="2">  1       21 0.28033107E-01 0.69159642E+02</pdfrwt>
<totfact> 0.33803064E+06</totfact>
</mgrwt>
</event>
<event>
 5    1  0.1624116E+000  0.6946417E+02  0.7546771E-02  0.1361925E+00
         21   -1    0    0  501  502  0.00000000000E+00  0.00000000000E+00  0.27181889957E+03  0.27181889957E+03  0.00000000000E+00 0.  1.
         21   -1    0    0  502  503 -0.00000000000E+00 -0.00000000000E+00 -0.18437396222E+02  0.18437396222E+02  0.00000000000E+00 0. -1.
         24    1    1    2    0    0  0.25177346781E+02 -0.23346988234E+02  0.17520706185E+03  0.19581550277E+03  0.80419002446E+02 0.  0.
          1    1    1    2  501    0 -0.24467175846E+02 -0.34238212704E+01  0.48758786580E+02  0.54660630391E+02  0.00000000000E+00 0. -1.
         -2    1    1    2    0  503 -0.71017093418E+00  0.26770809505E+02  0.29415654921E+02  0.39780162628E+02  0.00000000000E+00 0.  1.
<mgrwt>
<rscale>  2 0.69464166E+02</rscale>
<asrwt>0</asrwt>
<pdfrwt beam="1">  1       21 0.41818289E-01 0.69464166E+02</pdfrwt>
<pdfrwt beam="2">  1       21 0.28365227E-02 0.69464166E+02</pdfrwt>
<totfact> 0.36637884E+06</totfact>
</mgrwt>
</event>
<event>
 5    1  0.1624116E+000  0.7176832E+02  0.7546771E-02  0.1354181E+00
         21   -1    0    0  501  502  0.00000000000E+00  0.00000000000E+00  0.11752321214E+02  0.11752321214E+02  0.00000000000E+00 0. -1.
         21   -1    0    0  502  503 -0.00000000000E+00 -0.00000000000E+00 -0.56093590983E+03  0.56093590983E+03  0.00000000000E+00 0.  1.
         24    1    1    2    0    0 -0.83889777682E+01  0.45610180136E+01 -0.24380898148E+03  0.25690701282E+03  0.80419002446E+02 0. -1.
          1    1    1    2  501    0  0.37701225764E+01  0.28713100444E+02 -0.46812893234E+02  0.55046370764E+02  0.00000000000E+00 0. -1.
         -2    1    1    2    0  503  0.46188551918E+01 -0.33274118457E+02 -0.25856171391E+03  0.26073484746E+03  0.00000000000E+00 0.  1.
<mgrwt>
<rscale>  2 0.71768317E+02</rscale>
<asrwt>0</asrwt>
<pdfrwt beam="1">  1       21 0.18080496E-02 0.71768317E+02</pdfrwt>
<pdfrwt beam="2">  1       21 0.86297825E-01 0.71768317E+02</pdfrwt>
<totfact> 0.16571824E+06</totfact>
</mgrwt>
</event>
<event>
 5    1  0.1624116E+000  0.8275307E+02  0.7546771E-02  0.1321415E+00
         21   -1    0    0  503  502  0.00000000000E+00  0.00000000000E+00  0.31354236628E+02  0.31354236628E+02  0.00000000000E+00 0.  1.
         21   -1    0    0  501  503 -0.00000000000E+00 -0.00000000000E+00 -0.31242368489E+03  0.31242368489E+03  0.00000000000E+00 0.  1.
         24    1    1    2    0    0  0.82953369794E+01 -0.20568873287E+02 -0.23393840659E+03  0.24836723857E+03  0.80419002446E+02 0.  1.
          1    1    1    2  501    0  0.24031130756E+01 -0.30152186861E+02 -0.24158618780E+02  0.38711344414E+02  0.00000000000E+00 0. -1.
         -2    1    1    2    0  502 -0.10698450055E+02  0.50721060148E+02 -0.22972422890E+02  0.56699338529E+02  0.00000000000E+00 0.  1.
<mgrwt>
<rscale>  2 0.82753070E+02</rscale>
<asrwt>0</asrwt>
<pdfrwt beam="1">  1       21 0.48237288E-02 0.82753070E+02</pdfrwt>
<pdfrwt beam="2">  1       21 0.48065182E-01 0.82753070E+02</pdfrwt>
<totfact> 0.11741528E+06</totfact>
</mgrwt>
</event>
<event>
 5    1  0.1624116E+000  0.1054634E+03  0.7546771E-02  0.1269209E+00
         21   -1    0    0  501  502  0.00000000000E+00  0.00000000000E+00  0.16024278684E+03  0.16024278684E+03  0.00000000000E+00 0. -1.
         21   -1    0    0  502  503 -0.00000000000E+00 -0.00000000000E+00 -0.32374155293E+03  0.32374155293E+03  0.00000000000E+00 0.  1.
         24    1    1    2    0    0  0.17115632667E+01 -0.56398754240E+02 -0.92767698337E+01  0.98676356548E+02  0.80419002446E+02 0. -1.
          1    1    1    2  501    0 -0.78733759755E+01  0.84019597394E+02  0.99241471811E+02  0.13026953797E+03  0.00000000000E+00 0. -1.
         -2    1    1    2    0  503  0.61618127088E+01 -0.27620843154E+02 -0.25346346807E+03  0.25503844526E+03  0.00000000000E+00 0.  1.
<mgrwt>
<rscale>  2 0.10546341E+03</rscale>
<asrwt>0</asrwt>
<pdfrwt beam="1">  1       21 0.24652737E-01 0.10546341E+03</pdfrwt>
<pdfrwt beam="2">  1       21 0.49806392E-01 0.10546341E+03</pdfrwt>
<totfact> 0.62368346E+04</totfact>
</mgrwt>
</event>
<event>
 5    1  0.1624116E+000  0.1029513E+03  0.7546771E-02  0.1274209E+00
         21   -1    0    0  503  502  0.00000000000E+00  0.00000000000E+00  0.27622999295E+03  0.27622999295E+03  0.00000000000E+00 0.  1.
         21   -1    0    0  501  503 -0.00000000000E+00 -0.00000000000E+00 -0.13890345345E+03  0.13890345345E+03  0.00000000000E+00 0.  1.
         24    1    1    2    0    0  0.29367075294E+02 -0.61658462747E+02 -0.33305443959E+02  0.11063751485E+03  0.80419002446E+02 0.  1.
          1    1    1    2  501    0 -0.60160237692E+01  0.73822896748E+02 -0.45393995290E+02  0.86871326885E+02  0.00000000000E+00 0. -1.
         -2    1    1    2    0  502 -0.23351051525E+02 -0.12164434001E+02  0.21602597875E+03  0.21762460467E+03  0.00000000000E+00 0.  1.
<mgrwt>
<rscale>  2 0.10295133E+03</rscale>
<asrwt>0</asrwt>
<pdfrwt beam="1">  1       21 0.42496922E-01 0.10295133E+03</pdfrwt>
<pdfrwt beam="2">  1       21 0.21369762E-01 0.10295133E+03</pdfrwt>
<totfact> 0.11241047E+05</totfact>
</mgrwt>
</event>
<event>
 5    1  0.1624116E+000  0.1484122E+03  0.7546771E-02  0.1202438E+00
         21   -1    0    0  503  502  0.00000000000E+00  0.00000000000E+00  0.35256858612E+02  0.35256858612E+02  0.00000000000E+00 0. -1.
         21   -1    0    0  501  503 -0.00000000000E+00 -0.00000000000E+00 -0.10838951411E+04  0.10838951411E+04  0.00000000000E+00 0.  1.
         24    1    1    2    0    0  0.64085858366E+02  0.63563207827E+02 -0.11444895195E+03  0.16647239167E+03  0.80419002446E+02 0.  0.
          1    1    1    2  501    0  0.49817076998E+02 -0.14256081575E+02 -0.44431749149E+03  0.44732874966E+03  0.00000000000E+00 0. -1.
         -2    1    1    2    0  502 -0.11390293536E+03 -0.49307126252E+02 -0.48987183908E+03  0.50535085842E+03  0.00000000000E+00 0.  1.
<mgrwt>
<rscale>  2 0.14841218E+03</rscale>
<asrwt>0</asrwt>
<pdfrwt beam="1">  1       21 0.54241324E-02 0.14841218E+03</pdfrwt>
<pdfrwt beam="2">  1       21 0.16675309E+00 0.14841218E+03</pdfrwt>
<totfact> 0.54135124E+04</totfact>
</mgrwt>
</event>
<event>
 5    1  0.1624116E+000  0.1022126E+03  0.7546771E-02  0.1275711E+00
         21   -1    0    0  501  502  0.00000000000E+00  0.00000000000E+00  0.11045785127E+02  0.11045785127E+02  0.00000000000E+00 0.  1.
         21   -1    0    0  502  503 -0.00000000000E+00 -0.00000000000E+00 -0.15403569329E+04  0.15403569329E+04  0.00000000000E+00 0.  1.
         24    1    1    2    0    0  0.83824942945E+02  0.16464201573E+02 -0.74419697337E+03  0.75338837403E+03  0.80419002446E+02 0.  1.
          1    1    1    2  501    0 -0.57373187741E+02 -0.19218465207E+02 -0.14203887850E+03  0.15438936195E+03  0.00000000000E+00 0. -1.
         -2    1    1    2    0  503 -0.26451755204E+02  0.27542636344E+01 -0.64307529592E+03  0.64362498207E+03  0.00000000000E+00 0.  1.
<mgrwt>
<rscale>  2 0.10221258E+03</rscale>
<asrwt>0</asrwt>
<pdfrwt beam="1">  1       21 0.16993517E-02 0.10221258E+03</pdfrwt>
<pdfrwt beam="2">  1       21 0.23697796E+00 0.10221258E+03</pdfrwt>
<totfact> 0.13617124E+05</totfact>
</mgrwt>
</event>
<event>
 5    1  0.1624116E+000  0.7976904E+02  0.7546771E-02  0.1329708E+00
         21   -1    0    0  503  502  0.00000000000E+00  0.00000000000E+00  0.89522089779E+02  0.89522089779E+02  0.00000000000E+00 0.  1.
         21   -1    0    0  501  503 -0.00000000000E+00 -0.00000000000E+00 -0.34471025521E+03  0.34471025521E+03  0.00000000000E+00 0.  1.
         24    1    1    2    0    0 -0.39383291864E+02 -0.80463930410E+01 -0.12857352786E+03  0.15688899305E+03  0.80419002446E+02 0.  1.
          1    1    1    2  501    0  0.34683106178E+01  0.28224899276E+02 -0.19524143035E+03  0.19730152114E+03  0.00000000000E+00 0. -1.
         -2    1    1    2    0  502  0.35914981246E+02 -0.20178506235E+02  0.68626792777E+02  0.80041830806E+02  0.00000000000E+00 0.  1.
<mgrwt>
<rscale>  2 0.79769044E+02</rscale>
<asrwt>0</asrwt>
<pdfrwt beam="1">  1       21 0.13772629E-01 0.79769044E+02</pdfrwt>
<pdfrwt beam="2">  1       21 0.53032347E-01 0.79769044E+02</pdfrwt>
<totfact> 0.16024790E+05</totfact>
</mgrwt>
</event>
<event>
 5    1  0.1624116E+000  0.6684414E+02  0.7546771E-02  0.1371166E+00
         21   -1    0    0  503  502  0.00000000000E+00  0.00000000000E+00  0.37770078233E+03  0.37770078233E+03  0.00000000000E+00 0.  1.
         21   -1    0    0  501  503 -0.00000000000E+00 -0.00000000000E+00 -0.22383270423E+02  0.22383270423E+02  0.00000000000E+00 0.  1.
         24    1    1    2    0    0 -0.17389739071E+02 -0.30747402931E+02  0.85362532198E+02  0.12248176872E+03  0.80419002446E+02 0.  1.
          1    1    1    2  501    0  0.21534323009E+02  0.83839603633E+01  0.37578013537E+02  0.44114906326E+02  0.00000000000E+00 0. -1.
         -2    1    1    2    0  502 -0.41445839385E+01  0.22363442568E+02  0.23237696617E+03  0.23348737770E+03  0.00000000000E+00 0.  1.
<mgrwt>
<rscale>  2 0.66844139E+02</rscale>
<asrwt>0</asrwt>
<pdfrwt beam="1">  1       21 0.58107808E-01 0.66844139E+02</pdfrwt>
<pdfrwt beam="2">  1       21 0.34435803E-02 0.66844139E+02</pdfrwt>
<totfact> 0.13749198E+06</totfact>
</mgrwt>
</event>
<event>
 5    1  0.1624116E+000  0.1509205E+03  0.7546771E-02  0.1199346E+00
         21   -1    0    0  503  502  0.00000000000E+00  0.00000000000E+00  0.23904511728E+03  0.23904511728E+03  0.00000000000E+00 0.  1.
         21   -1    0    0  501  503 -0.00000000000E+00 -0.00000000000E+00 -0.21211812628E+03  0.21211812628E+03  0.00000000000E+00 0. -1.
         24    1    1    2    0    0  0.97877913461E+02 -0.68744902524E+02  0.72687145241E+02  0.16142052101E+03  0.80419002446E+02 0. -1.
          1    1    1    2  501    0 -0.11774030028E+03  0.71361414974E+02 -0.13824823128E+03  0.19510972121E+03  0.00000000000E+00 0. -1.
         -2    1    1    2    0  502  0.19862386821E+02 -0.26165124504E+01  0.92488077042E+02  0.94633001340E+02  0.00000000000E+00 0.  1.
<mgrwt>
<rscale>  2 0.15092048E+03</rscale>
<asrwt>0</asrwt>
<pdfrwt beam="1">  1       21 0.36776172E-01 0.15092048E+03</pdfrwt>
<pdfrwt beam="2">  1       21 0.32633558E-01 0.15092048E+03</pdfrwt>
<totfact> 0.65657150E+04</totfact>
</mgrwt>
</event>
<event>
 5    1  0.1624116E+000  0.6911871E+02  0.7546771E-02  0.1363116E+00
         21   -1    0    0  501  502  0.00000000000E+00  0.00000000000E+00  0.47608407450E+02  0.47608407450E+02  0.00000000000E+00 0.  1.
         21   -1    0    0  502  503 -0.00000000000E+00 -0.00000000000E+00 -0.11760753353E+03  0.11760753353E+03  0.00000000000E+00 0. -1.
         24    1    1    2    0    0  0.26807743195E+02  0.22527096076E+02 -0.17916436358E+02  0.89522845123E+02  0.80419002446E+02 0.  0.
          1    1    1    2  501    0 -0.19041007119E+02  0.67760545455E+01 -0.70454177150E+01  0.21403569284E+02  0.00000000000E+00 0. -1.
         -2    1    1    2    0  503 -0.77667360753E+01 -0.29303150621E+02 -0.45037272003E+02  0.54289526569E+02  0.00000000000E+00 0.  1.
<mgrwt>
<rscale>  2 0.69118707E+02</rscale>
<asrwt>0</asrwt>
<pdfrwt beam="1">  1       21 0.73243704E-02 0.69118707E+02</pdfrwt>
<pdfrwt beam="2">  1       21 0.18093467E-01 0.69118707E+02</pdfrwt>
<totfact> 0.37113678E+06</totfact>
</mgrwt>
</event>
<event>
 5    1  0.1624116E+000  0.7847802E+02  0.7546771E-02  0.1333427E+00
         21   -1    0    0  501  502  0.00000000000E+00  0.00000000000E+00  0.18569342342E+04  0.18569342342E+04  0.00000000000E+00 0.  1.
         21   -1    0    0  502  503 -0.00000000000E+00 -0.00000000000E+00 -0.24357946475E+02  0.24357946475E+02  0.00000000000E+00 0. -1.
         24    1    1    2    0    0  0.36308837738E+02 -0.27956427009E+02  0.17733738152E+04  0.17757876556E+04  0.80419002446E+02 0.  1.
          1    1    1    2  501    0 -0.40511240863E+02  0.47215036114E+01  0.68829110481E+02  0.80005622816E+02  0.00000000000E+00 0. -1.
         -2    1    1    2    0  503  0.42024031244E+01  0.23234923397E+02 -0.96266379433E+01  0.25498902239E+02  0.00000000000E+00 0.  1.
<mgrwt>
<rscale>  2 0.78478018E+02</rscale>
<asrwt>0</asrwt>
<pdfrwt beam="1">  1       21 0.28568208E+00 0.78478018E+02</pdfrwt>
<pdfrwt beam="2">  1       21 0.37473778E-02 0.78478018E+02</pdfrwt>
<totfact> 0.21115001E+04</totfact>
</mgrwt>
</event>
<event>
 5    1  0.1624116E+000  0.8878890E+02  0.7546771E-02  0.1305811E+00
         21   -1    0    0  503  502  0.00000000000E+00  0.00000000000E+00  0.12748675010E+04  0.12748675010E+04  0.00000000000E+00 0. -1.
         21   -1    0    0  501  503 -0.00000000000E+00 -0.00000000000E+00 -0.20431856277E+02  0.20431856277E+02  0.00000000000E+00 0. -1.
         24    1    1    2    0    0 -0.16199092922E+02  0.60191323062E+02  0.60954785268E+03  0.61798155850E+03  0.80419002446E+02 0. -1.
          1    1    1    2  501    0  0.28644600501E+02 -0.23389877734E+02  0.62572187181E+01  0.37506696794E+02  0.00000000000E+00 0. -1.
         -2    1    1    2    0  502 -0.12445507579E+02 -0.36801445328E+02  0.63863057332E+03  0.63981110198E+03  0.00000000000E+00 0.  1.
<mgrwt>
<rscale>  2 0.88788902E+02</rscale>
<asrwt>0</asrwt>
<pdfrwt beam="1">  1       21 0.19613340E+00 0.88788902E+02</pdfrwt>
<pdfrwt beam="2">  1       21 0.31433635E-02 0.88788902E+02</pdfrwt>
<totfact> 0.89623325E+04</totfact>
</mgrwt>
</event>
<event>
 5    1  0.1624116E+000  0.8011970E+02  0.7546771E-02  0.1328712E+00
         21   -1    0    0  501  502  0.00000000000E+00  0.00000000000E+00  0.82038599852E+02  0.82038599852E+02  0.00000000000E+00 0.  1.
         21   -1    0    0  502  503 -0.00000000000E+00 -0.00000000000E+00 -0.78557182897E+02  0.78557182897E+02  0.00000000000E+00 0.  1.
         24    1    1    2    0    0 -0.45234556169E+02  0.37657828378E+02  0.70579335776E+01  0.99906493736E+02  0.80419002446E+02 0.  1.
          1    1    1    2  501    0  0.24064245420E+02 -0.10779938780E+02 -0.17529965404E+01  0.26426652921E+02  0.00000000000E+00 0. -1.
         -2    1    1    2    0  503  0.21170310749E+02 -0.26877889598E+02 -0.18235200822E+01  0.34262636092E+02  0.00000000000E+00 0.  1.
<mgrwt>
<rscale>  2 0.80119700E+02</rscale>
<asrwt>0</asrwt>
<pdfrwt beam="1">  1       21 0.12621323E-01 0.80119700E+02</pdfrwt>
<pdfrwt beam="2">  1       21 0.12085720E-01 0.80119700E+02</pdfrwt>
<totfact> 0.30063181E+06</totfact>
</mgrwt>
</event>
<event>
 5    1  0.1624116E+000  0.1351245E+03  0.7546771E-02  0.1220044E+00
         21   -1    0    0  503  502  0.00000000000E+00  0.00000000000E+00  0.12596958707E+03  0.12596958707E+03  0.00000000000E+00 0. -1.
         21   -1    0    0  501  503 -0.00000000000E+00 -0.00000000000E+00 -0.33342729644E+03  0.33342729644E+03  0.00000000000E+00 0. -1.
         24    1    1    2    0    0  0.11617143485E+03  0.39421660916E+02  0.29431323004E+02  0.14961045536E+03  0.80419002446E+02 0. -1.
          1    1    1    2  501    0 -0.96997838996E+02 -0.26889206811E+02 -0.25904795439E+03  0.27791626956E+03  0.00000000000E+00 0. -1.
         -2    1    1    2    0  502 -0.19173595854E+02 -0.12532454104E+02  0.22158922019E+02  0.31870158596E+02  0.00000000000E+00 0.  1.
<mgrwt>
<rscale>  2 0.13512451E+03</rscale>
<asrwt>0</asrwt>
<pdfrwt beam="1">  1       21 0.19379937E-01 0.13512451E+03</pdfrwt>
<pdfrwt beam="2">  1       21 0.51296506E-01 0.13512451E+03</pdfrwt>
<totfact> 0.90495502E+04</totfact>
</mgrwt>
</event>
<event>
 5    1  0.1624116E+000  0.1032703E+03  0.7546771E-02  0.1273565E+00
         21   -1    0    0  501  502  0.00000000000E+00  0.00000000000E+00  0.49784964463E+03  0.49784964463E+03  0.00000000000E+00 0. -1.
         21   -1    0    0  502  503 -0.00000000000E+00 -0.00000000000E+00 -0.27521837216E+02  0.27521837216E+02  0.00000000000E+00 0.  1.
         24    1    1    2    0    0  0.62505332430E+02 -0.27052523630E+01  0.23954718208E+03  0.26031577626E+03  0.80419002446E+02 0.  0.
          1    1    1    2  501    0 -0.58467731738E+01  0.37637949594E+02  0.17227771199E+03  0.17643811962E+03  0.00000000000E+00 0. -1.
         -2    1    1    2    0  503 -0.56658559256E+02 -0.34932697231E+02  0.58502913342E+02  0.88617585965E+02  0.00000000000E+00 0.  1.
<mgrwt>
<rscale>  2 0.10327033E+03</rscale>
<asrwt>0</asrwt>
<pdfrwt beam="1">  1       21 0.76592246E-01 0.10327033E+03</pdfrwt>
<pdfrwt beam="2">  1       21 0.42341292E-02 0.10327033E+03</pdfrwt>
<totfact> 0.54658624E+05</totfact>
</mgrwt>
</event>
<event>
 5    1  0.1624116E+000  0.6511839E+02  0.7546771E-02  0.1377527E+00
         21   -1    0    0  501  502  0.00000000000E+00  0.00000000000E+00  0.78971955658E+02  0.78971955658E+02  0.00000000000E+00 0.  1.
         21   -1    0    0  502  503 -0.00000000000E+00 -0.00000000000E+00 -0.17386322261E+03  0.17386322261E+03  0.00000000000E+00 0.  1.
         24    1    1    2    0    0 -0.23396112122E+02 -0.10355528515E+02  0.55259743134E+01  0.84571670078E+02  0.80419002446E+02 0.  1.
          1    1    1    2  501    0  0.50257643935E+01  0.23001126919E+02  0.28764196880E+02  0.37171079745E+02  0.00000000000E+00 0. -1.
         -2    1    1    2    0  503  0.18370347728E+02 -0.12645598404E+02 -0.12918143815E+03  0.13109242845E+03  0.00000000000E+00 0.  1.
<mgrwt>
<rscale>  2 0.65118385E+02</rscale>
<asrwt>0</asrwt>
<pdfrwt beam="1">  1       21 0.12149532E-01 0.65118385E+02</pdfrwt>
<pdfrwt beam="2">  1       21 0.26748188E-01 0.65118385E+02</pdfrwt>
<totfact> 0.76065683E+05</totfact>
</mgrwt>
</event>
<event>
 5    1  0.1624116E+000  0.8204922E+02  0.7546771E-02  0.1323335E+00
         21   -1    0    0  501  502  0.00000000000E+00  0.00000000000E+00  0.40090479015E+03  0.40090479015E+03  0.00000000000E+00 0.  1.
         21   -1    0    0  502  503 -0.00000000000E+00 -0.00000000000E+00 -0.40130708886E+02  0.40130708886E+02  0.00000000000E+00 0.  1.
         24    1    1    2    0    0  0.14839487832E+02 -0.11864580870E+02  0.13283503226E+03  0.15643957437E+03  0.80419002446E+02 0.  1.
          1    1    1    2  501    0  0.27768765831E+02  0.24490977932E+02  0.23646458285E+03  0.23934579858E+03  0.00000000000E+00 0. -1.
         -2    1    1    2    0  503 -0.42608253664E+02 -0.12626397061E+02 -0.85255338518E+01  0.45250126082E+02  0.00000000000E+00 0.  1.
<mgrwt>
<rscale>  2 0.82049225E+02</rscale>
<asrwt>0</asrwt>
<pdfrwt beam="1">  1       21 0.61677657E-01 0.82049225E+02</pdfrwt>
<pdfrwt beam="2">  1       21 0.61739555E-02 0.82049225E+02</pdfrwt>
<totfact> 0.46504053E+05</totfact>
</mgrwt>
</event>
<event>
 5    1  0.1624116E+000  0.6759076E+02  0.7546771E-02  0.1368483E+00
         21   -1    0    0  501  502  0.00000000000E+00  0.00000000000E+00  0.84414316463E+01  0.84414316463E+01  0.00000000000E+00 0.  1.
         21   -1    0    0  502  503 -0.00000000000E+00 -0.00000000000E+00 -0.97875838603E+03  0.97875838603E+03  0.00000000000E+00 0. -1.
         24    1    1    2    0    0  0.39391692671E+02  0.17357679992E+01 -0.30476928687E+03  0.31765744524E+03  0.80419002446E+02 0.  0.
          1    1    1    2  501    0 -0.23078048618E+02  0.10370779027E+02 -0.86145453384E+02  0.89784121783E+02  0.00000000000E+00 0. -1.
         -2    1    1    2    0  503 -0.16313644053E+02 -0.12106547026E+02 -0.57940221413E+03  0.57975825066E+03  0.00000000000E+00 0.  1.
<mgrwt>
<rscale>  2 0.67590765E+02</rscale>
<asrwt>0</asrwt>
<pdfrwt beam="1">  1       21 0.12986816E-02 0.67590765E+02</pdfrwt>
<pdfrwt beam="2">  1       21 0.15057824E+00 0.67590765E+02</pdfrwt>
<totfact> 0.74909038E+05</totfact>
</mgrwt>
</event>
<event>
 5    1  0.1624116E+000  0.8315207E+02  0.7546771E-02  0.1320337E+00
         21   -1    0    0  503  502  0.00000000000E+00  0.00000000000E+00  0.32254319732E+03  0.32254319732E+03  0.00000000000E+00 0.  1.
         21   -1    0    0  501  503 -0.00000000000E+00 -0.00000000000E+00 -0.12154544590E+03  0.12154544590E+03  0.00000000000E+00 0. -1.
         24    1    1    2    0    0  0.34116381249E+01 -0.54842533730E+02 -0.45872612522E+02  0.10766083464E+03  0.80419002446E+02 0.  0.
          1    1    1    2  501    0 -0.21392087523E+02  0.40884426335E+02 -0.32304153963E+02  0.56326868265E+02  0.00000000000E+00 0. -1.
         -2    1    1    2    0  502  0.17980449398E+02  0.13958107394E+02  0.27917451790E+03  0.28010094032E+03  0.00000000000E+00 0.  1.
<mgrwt>
<rscale>  2 0.83152065E+02</rscale>
<asrwt>0</asrwt>
<pdfrwt beam="1">  1       21 0.49622030E-01 0.83152065E+02</pdfrwt>
<pdfrwt beam="2">  1       21 0.18699299E-01 0.83152065E+02</pdfrwt>
<totfact> 0.10600942E+05</totfact>
</mgrwt>
</event>
<event>
 5    1  0.1624116E+000  0.7777707E+02  0.7546771E-02  0.1335481E+00
         21   -1    0    0  503  502  0.00000000000E+00  0.00000000000E+00  0.47356152819E+03  0.47356152819E+03  0.00000000000E+00 0. -1.
         21   -1    0    0  501  503 -0.00000000000E+00 -0.00000000000E+00 -0.31937815528E+02  0.31937815528E+02  0.00000000000E+00 0. -1.
         24    1    1    2    0    0  0.19944729672E+02  0.38963885339E+02  0.25463161576E+03  0.27059277947E+03  0.80419002446E+02 0. -1.
          1    1    1    2  501    0 -0.34755647340E+02 -0.20599356828E+02 -0.56768727259E+01  0.40798473105E+02  0.00000000000E+00 0. -1.
         -2    1    1    2    0  502  0.14810917668E+02 -0.18364528511E+02  0.19266896963E+03  0.19410809114E+03  0.00000000000E+00 0.  1.
<mgrwt>
<rscale>  2 0.77777072E+02</rscale>
<asrwt>0</asrwt>
<pdfrwt beam="1">  1       21 0.72855614E-01 0.77777072E+02</pdfrwt>
<pdfrwt beam="2">  1       21 0.49135104E-02 0.77777072E+02</pdfrwt>
<totfact> 0.47708861E+05</totfact>
</mgrwt>
</event>
<event>
 5    1  0.1624116E+000  0.9201281E+02  0.7546771E-02  0.1298049E+00
         21   -1    0    0  503  502  0.00000000000E+00  0.00000000000E+00  0.78018869978E+03  0.78018869978E+03  0.00000000000E+00 0.  1.
         21   -1    0    0  501  503 -0.00000000000E+00 -0.00000000000E+00 -0.41419742109E+02  0.41419742109E+02  0.00000000000E+00 0. -1.
         24    1    1    2    0    0  0.40057681477E+02 -0.48685618077E+02  0.17436298501E+03  0.20210040512E+03  0.80419002446E+02 0.  1.
          1    1    1    2  501    0 -0.42468305850E+02  0.10724734076E+02 -0.91043171465E+01  0.44737741489E+02  0.00000000000E+00 0. -1.
         -2    1    1    2    0  502  0.24106243731E+01  0.37960884001E+02  0.57351028980E+03  0.57477029528E+03  0.00000000000E+00 0.  1.
<mgrwt>
<rscale>  2 0.92012809E+02</rscale>
<asrwt>0</asrwt>
<pdfrwt beam="1">  1       21 0.12002902E+00 0.92012809E+02</pdfrwt>
<pdfrwt beam="2">  1       21 0.63722686E-02 0.92012809E+02</pdfrwt>
<totfact> 0.98630835E+04</totfact>
</mgrwt>
</event>
<event>
 5    1  0.1624116E+000  0.7596262E+02  0.7546771E-02  0.1340916E+00
         21   -1    0    0  501  502  0.00000000000E+00  0.00000000000E+00  0.44123913176E+02  0.44123913176E+02  0.00000000000E+00 0. -1.
         21   -1    0    0  502  503 -0.00000000000E+00 -0.00000000000E+00 -0.13526913956E+03  0.13526913956E+03  0.00000000000E+00 0.  1.
         24    1    1    2    0    0 -0.33868573092E+02  0.51932289909E+01 -0.40662046937E+02  0.96408857923E+02  0.80419002446E+02 0. -1.
          1    1    1    2  501    0 -0.25505338300E+01  0.20041757209E+02 -0.23974796561E+02  0.31352322482E+02  0.00000000000E+00 0. -1.
         -2    1    1    2    0  503  0.36419106922E+02 -0.25234986200E+02 -0.26508382890E+02  0.51631872336E+02  0.00000000000E+00 0.  1.
<mgrwt>
<rscale>  2 0.75962623E+02</rscale>
<asrwt>0</asrwt>
<pdfrwt beam="1">  1       21 0.67882945E-02 0.75962623E+02</pdfrwt>
<pdfrwt beam="2">  1       21 0.20810636E-01 0.75962623E+02</pdfrwt>
<totfact> 0.32934954E+06</totfact>
</mgrwt>
</event>
<event>
 5    1  0.1624116E+000  0.1276501E+03  0.7546771E-02  0.1230985E+00
         21   -1    0    0  501  502  0.00000000000E+00  0.00000000000E+00  0.48775893360E+03  0.48775893360E+03  0.00000000000E+00 0.  1.
         21   -1    0    0  502  503 -0.00000000000E+00 -0.00000000000E+00 -0.52378524618E+02  0.52378524618E+02  0.00000000000E+00 0.  1.
         24    1    1    2    0    0 -0.55924497567E+01  0.10174568481E+03  0.21928182421E+03  0.25482384946E+03  0.80419002446E+02 0.  1.
          1    1    1    2  501    0 -0.29760712509E+02 -0.18483841271E+02  0.18705701871E+03  0.19030943394E+03  0.00000000000E+00 0. -1.
         -2    1    1    2    0  503  0.35353162266E+02 -0.83261843542E+02  0.29041566055E+02  0.95004174809E+02  0.00000000000E+00 0.  1.
<mgrwt>
<rscale>  2 0.12765013E+03</rscale>
<asrwt>0</asrwt>
<pdfrwt beam="1">  1       21 0.75039833E-01 0.12765013E+03</pdfrwt>
<pdfrwt beam="2">  1       21 0.80582349E-02 0.12765013E+03</pdfrwt>
<totfact> 0.19190601E+05</totfact>
</mgrwt>
</event>
<event>
 5    1  0.1624116E+000  0.7781023E+02  0.7546771E-02  0.1335383E+00
         21   -1    0    0  503  502  0.00000000000E+00  0.00000000000E+00  0.53289998617E+03  0.53289998617E+03  0.00000000000E+00 0. -1.
         21   -1    0    0  501  503 -0.00000000000E+00 -0.00000000000E+00 -0.15657283761E+02  0.15657283761E+02  0.00000000000E+00 0. -1.
         24    1    1    2    0    0 -0.34202278123E+02 -0.12616676775E+02  0.39542036990E+03  0.40515856309E+03  0.80419002446E+02 0. -1.
          1    1    1    2  501    0  0.45794257131E+02 -0.51790678078E+01  0.47836476192E+02  0.66424883772E+02  0.00000000000E+00 0. -1.
         -2    1    1    2    0  502 -0.11591979009E+02  0.17795744583E+02  0.73985856323E+02  0.76973823073E+02  0.00000000000E+00 0.  1.
<mgrwt>
<rscale>  2 0.77810235E+02</rscale>
<asrwt>0</asrwt>
<pdfrwt beam="1">  1       21 0.81984599E-01 0.77810235E+02</pdfrwt>
<pdfrwt beam="2">  1       21 0.24088133E-02 0.77810235E+02</pdfrwt>
<totfact> 0.11775743E+06</totfact>
</mgrwt>
</event>
<event>
 5    1  0.1624116E+000  0.9591642E+02  0.7546771E-02  0.1289125E+00
         21   -1    0    0  503  502  0.00000000000E+00  0.00000000000E+00  0.51962080205E+02  0.51962080205E+02  0.00000000000E+00 0.  1.
         21   -1    0    0  501  503 -0.00000000000E+00 -0.00000000000E+00 -0.64571132609E+03  0.64571132609E+03  0.00000000000E+00 0. -1.
         24    1    1    2    0    0 -0.51035874688E+02 -0.99496473925E+01 -0.20520365744E+03  0.22644958151E+03  0.80419002446E+02 0. -1.
          1    1    1    2  501    0  0.66184495165E+02 -0.14076681279E+02 -0.42197020708E+03  0.42736096689E+03  0.00000000000E+00 0. -1.
         -2    1    1    2    0  502 -0.15148620477E+02  0.24026328671E+02  0.33424618632E+02  0.43862857892E+02  0.00000000000E+00 0.  1.
<mgrwt>
<rscale>  2 0.95916421E+02</rscale>
<asrwt>0</asrwt>
<pdfrwt beam="1">  1       21 0.79941663E-02 0.95916421E+02</pdfrwt>
<pdfrwt beam="2">  1       21 0.99340202E-01 0.95916421E+02</pdfrwt>
<totfact> 0.10462475E+05</totfact>
</mgrwt>
</event>
<event>
 5    1  0.1624116E+000  0.1847794E+03  0.7546771E-02  0.1163256E+00
         21   -1    0    0  501  502  0.00000000000E+00  0.00000000000E+00  0.49730612723E+03  0.49730612723E+03  0.00000000000E+00 0.  1.
         21   -1    0    0  502  503 -0.00000000000E+00 -0.00000000000E+00 -0.85781689124E+02  0.85781689124E+02  0.00000000000E+00 0.  1.
         24    1    1    2    0    0 -0.16321132487E+03  0.14250473280E+01  0.88247777288E+02  0.20222475980E+03  0.80419002446E+02 0.  1.
          1    1    1    2  501    0  0.37217138139E+01 -0.25972116964E+02  0.11188150078E+03  0.11491680569E+03  0.00000000000E+00 0. -1.
         -2    1    1    2    0  503  0.15948961105E+03  0.24547069636E+02  0.21139516004E+03  0.26594625086E+03  0.00000000000E+00 0.  1.
<mgrwt>
<rscale>  2 0.18477939E+03</rscale>
<asrwt>0</asrwt>
<pdfrwt beam="1">  1       21 0.76508633E-01 0.18477939E+03</pdfrwt>
<pdfrwt beam="2">  1       21 0.13197183E-01 0.18477939E+03</pdfrwt>
<totfact> 0.75480405E+04</totfact>
</mgrwt>
</event>
<event>
 5    1  0.1624116E+000  0.9457474E+02  0.7546771E-02  0.1292137E+00
         21   -1    0    0  501  502  0.00000000000E+00  0.00000000000E+00  0.76414906099E+03  0.76414906099E+03  0.00000000000E+00 0.  1.
         21   -1    0    0  502  503 -0.00000000000E+00 -0.00000000000E+00 -0.13680623919E+02  0.13680623919E+02  0.00000000000E+00 0.  1.
         24    1    1    2    0    0 -0.32903747511E+02  0.16640296108E+02  0.23793749851E+03  0.25385236892E+03  0.80419002446E+02 0.  0.
          1    1    1    2  501    0  0.34711071598E+02  0.34833150252E+02  0.35115237410E+03  0.35457890051E+03  0.00000000000E+00 0. -1.
         -2    1    1    2    0  503 -0.18073240871E+01 -0.51473446360E+02  0.16137856446E+03  0.16939841548E+03  0.00000000000E+00 0.  1.
<mgrwt>
<rscale>  2 0.94574739E+02</rscale>
<asrwt>0</asrwt>
<pdfrwt beam="1">  1       21 0.11756136E+00 0.94574739E+02</pdfrwt>
<pdfrwt beam="2">  1       21 0.21047120E-02 0.94574739E+02</pdfrwt>
<totfact> 0.63910816E+05</totfact>
</mgrwt>
</event>
<event>
 5    1  0.1624116E+000  0.8861481E+02  0.7546771E-02  0.1306241E+00
         21   -1    0    0  501  502  0.00000000000E+00  0.00000000000E+00  0.60182461822E+02  0.60182461822E+02  0.00000000000E+00 0. -1.
         21   -1    0    0  502  503 -0.00000000000E+00 -0.00000000000E+00 -0.69993864842E+03  0.69993864842E+03  0.00000000000E+00 0.  1.
         24    1    1    2    0    0  0.32965954461E+02 -0.60081874278E+02 -0.18584378638E+03  0.21377959365E+03  0.80419002446E+02 0.  1.
          1    1    1    2  501    0 -0.20519395489E+02  0.16753555745E+02  0.41308709146E+02  0.49072769156E+02  0.00000000000E+00 0. -1.
         -2    1    1    2    0  503 -0.12446558972E+02  0.43328318534E+02 -0.49522110936E+03  0.49726874744E+03  0.00000000000E+00 0.  1.
<mgrwt>
<rscale>  2 0.88614811E+02</rscale>
<asrwt>0</asrwt>
<pdfrwt beam="1">  1       21 0.92588405E-02 0.88614811E+02</pdfrwt>
<pdfrwt beam="2">  1       21 0.10768287E+00 0.88614811E+02</pdfrwt>
<totfact> 0.67668359E+04</totfact>
</mgrwt>
</event>
<event>
 5    1  0.1624116E+000  0.7552978E+02  0.7546771E-02  0.1342238E+00
         21   -1    0    0  503  502  0.00000000000E+00  0.00000000000E+00  0.77022371746E+02  0.77022371746E+02  0.00000000000E+00 0. -1.
         21   -1    0    0  501  503 -0.00000000000E+00 -0.00000000000E+00 -0.30039192367E+03  0.30039192367E+03  0.00000000000E+00 0.  1.
         24    1    1    2    0    0 -0.35548342778E+02  0.24544153783E+02 -0.25600886735E+03  0.27179745450E+03  0.80419002446E+02 0.  1.
          1    1    1    2  501    0  0.16055543866E+02 -0.34375999046E+02 -0.24014542500E+02  0.44901982704E+02  0.00000000000E+00 0. -1.
         -2    1    1    2    0  502  0.19492798912E+02  0.98318452630E+01  0.56653857919E+02  0.60714858213E+02  0.00000000000E+00 0.  1.
<mgrwt>
<rscale>  2 0.75529783E+02</rscale>
<asrwt>0</asrwt>
<pdfrwt beam="1">  1       21 0.11849596E-01 0.75529783E+02</pdfrwt>
<pdfrwt beam="2">  1       21 0.46214142E-01 0.75529783E+02</pdfrwt>
<totfact> 0.27626490E+05</totfact>
</mgrwt>
</event>
<event>
 5    1  0.1624116E+000  0.1016876E+03  0.7546771E-02  0.1276787E+00
         21   -1    0    0  503  502  0.00000000000E+00  0.00000000000E+00  0.36175110610E+03  0.36175110610E+03  0.00000000000E+00 0.  1.
         21   -1    0    0  501  503 -0.00000000000E+00 -0.00000000000E+00 -0.13380546986E+03  0.13380546986E+03  0.00000000000E+00 0.  1.
         24    1    1    2    0    0 -0.24883837893E+02 -0.75240080683E+02 -0.76998100497E+02  0.13666088893E+03  0.80419002446E+02 0.  1.
          1    1    1    2  501    0  0.37270724795E+02  0.50083921761E+02  0.10725934990E+02  0.63344706386E+02  0.00000000000E+00 0. -1.
         -2    1    1    2    0  502 -0.12386886902E+02  0.25156158922E+02  0.29421780174E+03  0.29555098065E+03  0.00000000000E+00 0.  1.
<mgrwt>
<rscale>  2 0.10168763E+03</rscale>
<asrwt>0</asrwt>
<pdfrwt beam="1">  1       21 0.55654016E-01 0.10168763E+03</pdfrwt>
<pdfrwt beam="2">  1       21 0.20585457E-01 0.10168763E+03</pdfrwt>
<totfact> 0.69485824E+04</totfact>
</mgrwt>
</event>
<event>
 5    1  0.1624116E+000  0.1155977E+03  0.7546771E-02  0.1250541E+00
         21   -1    0    0  501  502  0.00000000000E+00  0.00000000000E+00  0.40249537935E+03  0.40249537935E+03  0.00000000000E+00 0. -1.
         21   -1    0    0  502  503 -0.00000000000E+00 -0.00000000000E+00 -0.13268385900E+03  0.13268385900E+03  0.00000000000E+00 0.  1.
         24    1    1    2    0    0  0.52925228575E+01 -0.91184441361E+02 -0.58552808622E+02  0.13504910402E+03  0.80419002446E+02 0. -1.
          1    1    1    2  501    0 -0.23901117067E+02  0.94955897862E+01  0.31409013597E+03  0.31514130662E+03  0.00000000000E+00 0. -1.
         -2    1    1    2    0  503  0.18608594210E+02  0.81688851575E+02  0.14274193005E+02  0.84988827713E+02  0.00000000000E+00 0.  1.
<mgrwt>
<rscale>  2 0.11559773E+03</rscale>
<asrwt>0</asrwt>
<pdfrwt beam="1">  1       21 0.61922365E-01 0.11559773E+03</pdfrwt>
<pdfrwt beam="2">  1       21 0.20412902E-01 0.11559773E+03</pdfrwt>
<totfact> 0.55908742E+04</totfact>
</mgrwt>
</event>
<event>
 5    1  0.1624116E+000  0.8731660E+02  0.7546771E-02  0.1309483E+00
         21   -1    0    0  503  502  0.00000000000E+00  0.00000000000E+00  0.42615577153E+02  0.42615577153E+02  0.00000000000E+00 0.  1.
         21   -1    0    0  501  503 -0.00000000000E+00 -0.00000000000E+00 -0.35644383349E+03  0.35644383349E+03  0.00000000000E+00 0.  1.
         24    1    1    2    0    0 -0.58194454773E+02  0.32757240405E+02 -0.27020961314E+03  0.28972414873E+03  0.80419002446E+02 0.  1.
          1    1    1    2  501    0  0.18834075557E+02 -0.22662987909E+02 -0.58950236040E+02  0.65904959997E+02  0.00000000000E+00 0. -1.
         -2    1    1    2    0  502  0.39360379216E+02 -0.10094252496E+02  0.15331592848E+02  0.43430301918E+02  0.00000000000E+00 0.  1.
<mgrwt>
<rscale>  2 0.87316600E+02</rscale>
<asrwt>0</asrwt>
<pdfrwt beam="1">  1       21 0.65562428E-02 0.87316600E+02</pdfrwt>
<pdfrwt beam="2">  1       21 0.54837511E-01 0.87316600E+02</pdfrwt>
<totfact> 0.53712236E+05</totfact>
</mgrwt>
</event>
<event>
 5    1  0.1624116E+000  0.6709366E+02  0.7546771E-02  0.1370265E+00
         21   -1    0    0  501  502  0.00000000000E+00  0.00000000000E+00  0.79395871525E+01  0.79395871525E+01  0.00000000000E+00 0. -1.
         21   -1    0    0  502  503 -0.00000000000E+00 -0.00000000000E+00 -0.88393247012E+03  0.88393247012E+03  0.00000000000E+00 0. -1.
         24    1    1    2    0    0 -0.28450786147E+02 -0.29721717034E+02 -0.69320450838E+03  0.69906547196E+03  0.80419002446E+02 0. -1.
          1    1    1    2  501    0  0.81658693680E+01  0.19497491531E+02 -0.22330452800E+02  0.30748702750E+02  0.00000000000E+00 0. -1.
         -2    1    1    2    0  503  0.20284916779E+02  0.10224225503E+02 -0.16045792179E+03  0.16205788257E+03  0.00000000000E+00 0.  1.
<mgrwt>
<rscale>  2 0.67093655E+02</rscale>
<asrwt>0</asrwt>
<pdfrwt beam="1">  1       21 0.12214743E-02 0.67093655E+02</pdfrwt>
<pdfrwt beam="2">  1       21 0.13598969E+00 0.67093655E+02</pdfrwt>
<totfact> 0.10619689E+06</totfact>
</mgrwt>
</event>
<event>
 5    1  0.1624116E+000  0.7644101E+02  0.7546771E-02  0.1339466E+00
         21   -1    0    0  501  502  0.00000000000E+00  0.00000000000E+00  0.11416773881E+02  0.11416773881E+02  0.00000000000E+00 0. -1.
         21   -1    0    0  502  503 -0.00000000000E+00 -0.00000000000E+00 -0.53664753905E+03  0.53664753905E+03  0.00000000000E+00 0.  1.
         24    1    1    2    0    0 -0.65949324545E+01  0.19079293179E+02 -0.23624855714E+03  0.25037593587E+03  0.80419002446E+02 0. -1.
          1    1    1    2  501    0 -0.23013930726E+02  0.12902960536E+02 -0.81005678090E+02  0.85194173985E+02  0.00000000000E+00 0. -1.
         -2    1    1    2    0  503  0.29608863180E+02 -0.31982253715E+02 -0.20797652995E+03  0.21249420308E+03  0.00000000000E+00 0.  1.
<mgrwt>
<rscale>  2 0.76441014E+02</rscale>
<asrwt>0</asrwt>
<pdfrwt beam="1">  1       21 0.17564268E-02 0.76441014E+02</pdfrwt>
<pdfrwt beam="2">  1       21 0.82561160E-01 0.76441014E+02</pdfrwt>
<totfact> 0.19180337E+06</totfact>
</mgrwt>
</event>
<event>
 5    1  0.1624116E+000  0.7922065E+02  0.7546771E-02  0.1331278E+00
         21   -1    0    0  503  502  0.00000000000E+00  0.00000000000E+00  0.10163759132E+04  0.10163759132E+04  0.00000000000E+00 0.  1.
         21   -1    0    0  501  503 -0.00000000000E+00 -0.00000000000E+00 -0.78686763033E+01  0.78686763033E+01  0.00000000000E+00 0.  1.
         24    1    1    2    0    0 -0.60333251483E+01 -0.42654030824E+02  0.52883374799E+03  0.53664524253E+03  0.80419002446E+02 0.  1.
          1    1    1    2  501    0 -0.20622600860E+02  0.52497210217E+01  0.38072075803E+02  0.43615756247E+02  0.00000000000E+00 0. -1.
         -2    1    1    2    0  502  0.26655926008E+02  0.37404309803E+02  0.44160141311E+03  0.44398359074E+03  0.00000000000E+00 0.  1.
<mgrwt>
<rscale>  2 0.79220648E+02</rscale>
<asrwt>0</asrwt>
<pdfrwt beam="1">  1       21 0.15636542E+00 0.79220648E+02</pdfrwt>
<pdfrwt beam="2">  1       21 0.12105664E-02 0.79220648E+02</pdfrwt>
<totfact> 0.75876090E+05</totfact>
</mgrwt>
</event>
<event>
 5    1  0.1624116E+000  0.9028865E+02  0.7546771E-02  0.1302154E+00
         21   -1    0    0  503  502  0.00000000000E+00  0.00000000000E+00  0.13874976113E+02  0.13874976113E+02  0.00000000000E+00 0.  1.
         21   -1    0    0  501  503 -0.00000000000E+00 -0.00000000000E+00 -0.12752315421E+04  0.12752315421E+04  0.00000000000E+00 0. -1.
         24    1    1    2    0    0 -0.45064332717E+02 -0.20186159268E+01 -0.10712994408E+04  0.10752602368E+04  0.80419002446E+02 0. -1.
          1    1    1    2  501    0 -0.16608652884E+02  0.18170720002E+02 -0.10324499170E+03  0.10613929870E+03  0.00000000000E+00 0. -1.
         -2    1    1    2    0  502  0.61672985601E+02 -0.16152104075E+02 -0.86812133465E+02  0.10770698276E+03  0.00000000000E+00 0.  1.
<mgrwt>
<rscale>  2 0.90288647E+02</rscale>
<asrwt>0</asrwt>
<pdfrwt beam="1">  1       21 0.21346107E-02 0.90288647E+02</pdfrwt>
<pdfrwt beam="2">  1       21 0.19618956E+00 0.90288647E+02</pdfrwt>
<totfact> 0.16711826E+05</totfact>
</mgrwt>
</event>
<event>
 5    1  0.1624116E+000  0.7898959E+02  0.7546771E-02  0.1331944E+00
         21   -1    0    0  503  502  0.00000000000E+00  0.00000000000E+00  0.74223227612E+03  0.74223227612E+03  0.00000000000E+00 0.  1.
         21   -1    0    0  501  503 -0.00000000000E+00 -0.00000000000E+00 -0.98108666414E+01  0.98108666414E+01  0.00000000000E+00 0.  1.
         24    1    1    2    0    0 -0.40801647154E+02  0.37541485904E+02  0.31501093440E+03  0.32980788699E+03  0.80419002446E+02 0.  1.
          1    1    1    2  501    0  0.21945542786E+02 -0.47206823564E+01  0.95281667929E+02  0.97890183029E+02  0.00000000000E+00 0. -1.
         -2    1    1    2    0  502  0.18856104368E+02 -0.32820803547E+02  0.32212880715E+03  0.32434507275E+03  0.00000000000E+00 0.  1.
<mgrwt>
<rscale>  2 0.78989586E+02</rscale>
<asrwt>0</asrwt>
<pdfrwt beam="1">  1       21 0.11418954E+00 0.78989586E+02</pdfrwt>
<pdfrwt beam="2">  1       21 0.15093647E-02 0.78989586E+02</pdfrwt>
<totfact> 0.11621670E+06</totfact>
</mgrwt>
</event>
<event>
 5    1  0.1624116E+000  0.8435608E+02  0.7546771E-02  0.1317125E+00
         21   -1    0    0  503  502  0.00000000000E+00  0.00000000000E+00  0.11169878280E+03  0.11169878280E+03  0.00000000000E+00 0.  1.
         21   -1    0    0  501  503 -0.00000000000E+00 -0.00000000000E+00 -0.14352260318E+03  0.14352260318E+03  0.00000000000E+00 0. -1.
         24    1    1    2    0    0  0.26542314594E+02  0.18171482266E+02 -0.10949535261E+03  0.13961069239E+03  0.80419002446E+02 0. -1.
          1    1    1    2  501    0  0.24684107516E+02 -0.18539237870E+02  0.14020446415E+02  0.33905477763E+02  0.00000000000E+00 0. -1.
         -2    1    1    2    0  502 -0.51226422109E+02  0.36775560461E+00  0.63651085827E+02  0.81705215826E+02  0.00000000000E+00 0.  1.
<mgrwt>
<rscale>  2 0.84356082E+02</rscale>
<asrwt>0</asrwt>
<pdfrwt beam="1">  1       21 0.17184428E-01 0.84356082E+02</pdfrwt>
<pdfrwt beam="2">  1       21 0.22080400E-01 0.84356082E+02</pdfrwt>
<totfact> 0.58987799E+05</totfact>
</mgrwt>
</event>
<event>
 5    1  0.1624116E+000  0.9769149E+02  0.7546771E-02  0.1285227E+00
         21   -1    0    0  503  502  0.00000000000E+00  0.00000000000E+00  0.11011918671E+04  0.11011918671E+04  0.00000000000E+00 0. -1.
         21   -1    0    0  501  503 -0.00000000000E+00 -0.00000000000E+00 -0.12047629760E+02  0.12047629760E+02  0.00000000000E+00 0. -1.
         24    1    1    2    0    0  0.58768035663E+01 -0.80714614351E+02  0.56301958403E+03  0.57446292634E+03  0.80419002446E+02 0. -1.
          1    1    1    2  501    0  0.17601458763E+01  0.24272248697E+02  0.26747116421E+02  0.36161421531E+02  0.00000000000E+00 0. -1.
         -2    1    1    2    0  502 -0.76369494426E+01  0.56442365654E+02  0.49937753692E+03  0.50261514902E+03  0.00000000000E+00 0.  1.
<mgrwt>
<rscale>  2 0.97691495E+02</rscale>
<asrwt>0</asrwt>
<pdfrwt beam="1">  1       21 0.16941405E+00 0.97691495E+02</pdfrwt>
<pdfrwt beam="2">  1       21 0.18534824E-02 0.97691495E+02</pdfrwt>
<totfact> 0.31161448E+05</totfact>
</mgrwt>
</event>
<event>
 5    1  0.1624116E+000  0.9875640E+02  0.7546771E-02  0.1282933E+00
         21   -1    0    0  501  502  0.00000000000E+00  0.00000000000E+00  0.30049461479E+03  0.30049461479E+03  0.00000000000E+00 0. -1.
         21   -1    0    0  502  503 -0.00000000000E+00 -0.00000000000E+00 -0.99625460060E+02  0.99625460060E+02  0.00000000000E+00 0.  1.
         24    1    1    2    0    0 -0.68037867256E+02  0.55092020130E+01  0.10099442001E+03  0.14603626780E+03  0.80419002446E+02 0. -1.
          1    1    1    2  501    0  0.57261065769E+02  0.22880516958E+02  0.16829046253E+03  0.17923177031E+03  0.00000000000E+00 0. -1.
         -2    1    1    2    0  503  0.10776801487E+02 -0.28389718971E+02 -0.68415727802E+02  0.74852036740E+02  0.00000000000E+00 0.  1.
<mgrwt>
<rscale>  2 0.98756399E+02</rscale>
<asrwt>0</asrwt>
<pdfrwt beam="1">  1       21 0.46229940E-01 0.98756399E+02</pdfrwt>
<pdfrwt beam="2">  1       21 0.15326994E-01 0.98756399E+02</pdfrwt>
<totfact> 0.17401860E+05</totfact>
</mgrwt>
</event>
<event>
 5    1  0.1624116E+000  0.1142220E+03  0.7546771E-02  0.1252945E+00
         21   -1    0    0  501  502  0.00000000000E+00  0.00000000000E+00  0.39737213985E+03  0.39737213985E+03  0.00000000000E+00 0.  1.
         21   -1    0    0  502  503 -0.00000000000E+00 -0.00000000000E+00 -0.39184620992E+02  0.39184620992E+02  0.00000000000E+00 0. -1.
         24    1    1    2    0    0  0.17923162545E+02  0.66951588242E+01  0.80205787361E+02  0.11517920467E+03  0.80419002446E+02 0. -1.
          1    1    1    2  501    0 -0.70481136030E+02  0.34999164264E+02  0.21657913726E+03  0.23043232137E+03  0.00000000000E+00 0. -1.
         -2    1    1    2    0  503  0.52557973485E+02 -0.41694323088E+02  0.61402594236E+02  0.90945234804E+02  0.00000000000E+00 0.  1.
<mgrwt>
<rscale>  2 0.11422199E+03</rscale>
<asrwt>0</asrwt>
<pdfrwt beam="1">  1       21 0.61134173E-01 0.11422199E+03</pdfrwt>
<pdfrwt beam="2">  1       21 0.60284035E-02 0.11422199E+03</pdfrwt>
<totfact> 0.49214881E+05</totfact>
</mgrwt>
</event>
<event>
 5    1  0.1846162E+000  0.8055072E+02  0.7546771E-02  0.1327496E+00
         21   -1    0    0  503  502  0.00000000000E+00  0.00000000000E+00  0.53662133475E+02  0.53662133475E+02  0.00000000000E+00 0. -1.
         21   -1    0    0  501  503 -0.00000000000E+00 -0.00000000000E+00 -0.63829525688E+03  0.63829525688E+03  0.00000000000E+00 0. -1.
         24    1    1    2    0    0 -0.38571108484E+02 -0.21431978126E+02 -0.12164378291E+02  0.92532416750E+02  0.80419002446E+02 0. -1.
          1    1    1    2  501    0  0.23416873848E+02  0.39420469159E+02 -0.57402430536E+03  0.57585260832E+03  0.00000000000E+00 0. -1.
         -2    1    1    2    0  502  0.15154234637E+02 -0.17988491033E+02  0.15555602490E+01  0.23572365277E+02  0.00000000000E+00 0.  1.
<mgrwt>
<rscale>  2 0.80550723E+02</rscale>
<asrwt>0</asrwt>
<pdfrwt beam="1">  1       21 0.82557127E-02 0.80550723E+02</pdfrwt>
<pdfrwt beam="2">  1       21 0.98199272E-01 0.80550723E+02</pdfrwt>
<totfact> 0.10261387E+05</totfact>
</mgrwt>
</event>
<event>
 5    1  0.1624116E+000  0.8384965E+02  0.7546771E-02  0.1318469E+00
         21   -1    0    0  503  502  0.00000000000E+00  0.00000000000E+00  0.11257677866E+03  0.11257677866E+03  0.00000000000E+00 0.  1.
         21   -1    0    0  501  503 -0.00000000000E+00 -0.00000000000E+00 -0.12897114666E+03  0.12897114666E+03  0.00000000000E+00 0. -1.
         24    1    1    2    0    0  0.20185838005E+01 -0.14991808582E+02  0.50544391037E+02  0.96180977458E+02  0.80419002446E+02 0.  1.
          1    1    1    2  501    0 -0.24517859417E+02 -0.28078917876E+02 -0.85560188405E+02  0.93327899898E+02  0.00000000000E+00 0. -1.
         -2    1    1    2    0  502  0.22499275617E+02  0.43070726457E+02  0.18621429371E+02  0.52039047961E+02  0.00000000000E+00 0.  1.
<mgrwt>
<rscale>  2 0.83849654E+02</rscale>
<asrwt>0</asrwt>
<pdfrwt beam="1">  1       21 0.17319504E-01 0.83849654E+02</pdfrwt>
<pdfrwt beam="2">  1       21 0.19841715E-01 0.83849654E+02</pdfrwt>
<totfact> 0.70761667E+05</totfact>
</mgrwt>
</event>
<event>
 5    1  0.1624116E+000  0.1261691E+03  0.7546771E-02  0.1233253E+00
         21   -1    0    0  501  502  0.00000000000E+00  0.00000000000E+00  0.34372449217E+02  0.34372449217E+02  0.00000000000E+00 0. -1.
         21   -1    0    0  502  503 -0.00000000000E+00 -0.00000000000E+00 -0.59989680091E+03  0.59989680091E+03  0.00000000000E+00 0. -1.
         24    1    1    2    0    0  0.88830020293E+02  0.55595175682E+02 -0.41222898222E+03  0.43287590115E+03  0.80419002446E+02 0. -1.
          1    1    1    2  501    0 -0.53471048677E+02 -0.64499358598E+02 -0.65562594970E+02  0.10638502792E+03  0.00000000000E+00 0. -1.
         -2    1    1    2    0  503 -0.35358971615E+02  0.89041829158E+01 -0.87732774504E+02  0.95008321053E+02  0.00000000000E+00 0.  1.
<mgrwt>
<rscale>  2 0.12616911E+03</rscale>
<asrwt>0</asrwt>
<pdfrwt beam="1">  1       21 0.52880697E-02 0.12616911E+03</pdfrwt>
<pdfrwt beam="2">  1       21 0.92291806E-01 0.12616911E+03</pdfrwt>
<totfact> 0.24695155E+05</totfact>
</mgrwt>
</event>
<event>
 5    1  0.1624116E+000  0.7439893E+02  0.7546771E-02  0.1345743E+00
         21   -1    0    0  503  502  0.00000000000E+00  0.00000000000E+00  0.83760278966E+03  0.83760278966E+03  0.00000000000E+00 0. -1.
         21   -1    0    0  501  503 -0.00000000000E+00 -0.00000000000E+00 -0.95357840323E+01  0.95357840323E+01  0.00000000000E+00 0.  1.
         24    1    1    2    0    0  0.67975710043E+01 -0.31190220107E+02  0.26610140474E+03  0.27981459998E+03  0.80419002446E+02 0.  1.
          1    1    1    2  501    0 -0.30228957261E+02  0.14637782483E+02  0.12549860735E+03  0.12991518379E+03  0.00000000000E+00 0. -1.
         -2    1    1    2    0  502  0.23431386256E+02  0.16552437624E+02  0.43646699353E+03  0.43740878992E+03  0.00000000000E+00 0.  1.
<mgrwt>
<rscale>  2 0.74398931E+02</rscale>
<asrwt>0</asrwt>
<pdfrwt beam="1">  1       21 0.12886191E+00 0.74398931E+02</pdfrwt>
<pdfrwt beam="2">  1       21 0.14670444E-02 0.74398931E+02</pdfrwt>
<totfact> 0.90918577E+05</totfact>
</mgrwt>
</event>
<event>
 5    1  0.1624116E+000  0.1025837E+03  0.7546771E-02  0.1274955E+00
         21   -1    0    0  503  502  0.00000000000E+00  0.00000000000E+00  0.88279298747E+02  0.88279298747E+02  0.00000000000E+00 0.  1.
         21   -1    0    0  501  503 -0.00000000000E+00 -0.00000000000E+00 -0.20394778583E+03  0.20394778583E+03  0.00000000000E+00 0. -1.
         24    1    1    2    0    0 -0.28137317543E+02  0.38303359159E+02 -0.17668393434E+02  0.95069679931E+02  0.80419002446E+02 0.  0.
          1    1    1    2  501    0  0.66243765503E+02 -0.18343769874E+02 -0.12760276147E+03  0.14493859077E+03  0.00000000000E+00 0. -1.
         -2    1    1    2    0  502 -0.38106447960E+02 -0.19959589284E+02  0.29602667817E+02  0.52218813874E+02  0.00000000000E+00 0.  1.
<mgrwt>
<rscale>  2 0.10258370E+03</rscale>
<asrwt>0</asrwt>
<pdfrwt beam="1">  1       21 0.13581431E-01 0.10258370E+03</pdfrwt>
<pdfrwt beam="2">  1       21 0.31376582E-01 0.10258370E+03</pdfrwt>
<totfact> 0.46360449E+05</totfact>
</mgrwt>
</event>
<event>
 5    1  0.1624116E+000  0.7914414E+02  0.7546771E-02  0.1331498E+00
         21   -1    0    0  501  502  0.00000000000E+00  0.00000000000E+00  0.51346558627E+02  0.51346558627E+02  0.00000000000E+00 0. -1.
         21   -1    0    0  502  503 -0.00000000000E+00 -0.00000000000E+00 -0.17563029116E+03  0.17563029116E+03  0.00000000000E+00 0. -1.
         24    1    1    2    0    0 -0.31188760713E+02 -0.47471484189E+02 -0.16221049130E+02  0.99782859225E+02  0.80419002446E+02 0. -1.
          1    1    1    2  501    0  0.13351970784E+02  0.36563071113E+02 -0.39263255292E+02  0.55287760935E+02  0.00000000000E+00 0. -1.
         -2    1    1    2    0  503  0.17836789930E+02  0.10908413076E+02 -0.68799428113E+02  0.71906229630E+02  0.00000000000E+00 0.  1.
<mgrwt>
<rscale>  2 0.79144136E+02</rscale>
<asrwt>0</asrwt>
<pdfrwt beam="1">  1       21 0.78994705E-02 0.79144136E+02</pdfrwt>
<pdfrwt beam="2">  1       21 0.27020045E-01 0.79144136E+02</pdfrwt>
<totfact> 0.15737626E+06</totfact>
</mgrwt>
</event>
<event>
 5    1  0.1624116E+000  0.1196099E+03  0.7546771E-02  0.1243742E+00
         21   -1    0    0  503  502  0.00000000000E+00  0.00000000000E+00  0.18128169116E+04  0.18128169116E+04  0.00000000000E+00 0.  1.
         21   -1    0    0  501  503 -0.00000000000E+00 -0.00000000000E+00 -0.22720234849E+02  0.22720234849E+02  0.00000000000E+00 0. -1.
         24    1    1    2    0    0 -0.10025018428E+03  0.32943167151E+02  0.25452906817E+03  0.28703242710E+03  0.80419002446E+02 0. -1.
          1    1    1    2  501    0  0.63531032189E+02 -0.13323393926E+02  0.16506785427E+03  0.17737277523E+03  0.00000000000E+00 0. -1.
         -2    1    1    2    0  502  0.36719152094E+02 -0.19619773225E+02  0.13704997543E+04  0.13711319442E+04  0.00000000000E+00 0.  1.
<mgrwt>
<rscale>  2 0.11960991E+03</rscale>
<asrwt>0</asrwt>
<pdfrwt beam="1">  1       21 0.27889480E+00 0.11960991E+03</pdfrwt>
<pdfrwt beam="2">  1       21 0.34954222E-02 0.11960991E+03</pdfrwt>
<totfact> 0.24026570E+04</totfact>
</mgrwt>
</event>
<event>
 5    1  0.1624116E+000  0.8079350E+02  0.7546771E-02  0.1326815E+00
         21   -1    0    0  503  502  0.00000000000E+00  0.00000000000E+00  0.26883018780E+02  0.26883018780E+02  0.00000000000E+00 0. -1.
         21   -1    0    0  501  503 -0.00000000000E+00 -0.00000000000E+00 -0.39047467062E+03  0.39047467062E+03  0.00000000000E+00 0.  1.
         24    1    1    2    0    0  0.26766346804E+02  0.45126962780E+02 -0.32993681283E+03  0.34362537232E+03  0.80419002446E+02 0.  1.
          1    1    1    2  501    0  0.55199593963E+01 -0.28915908523E+02 -0.16356177689E+02  0.33676761514E+02  0.00000000000E+00 0. -1.
         -2    1    1    2    0  502 -0.32286306200E+02 -0.16211054257E+02 -0.17298661329E+02  0.40055555569E+02  0.00000000000E+00 0.  1.
<mgrwt>
<rscale>  2 0.80793501E+02</rscale>
<asrwt>0</asrwt>
<pdfrwt beam="1">  1       21 0.41358494E-02 0.80793501E+02</pdfrwt>
<pdfrwt beam="2">  1       21 0.60073022E-01 0.80793501E+02</pdfrwt>
<totfact> 0.95597642E+05</totfact>
</mgrwt>
</event>
<event>
 5    1  0.1624116E+000  0.1134227E+03  0.7546771E-02  0.1254360E+00
         21   -1    0    0  503  502  0.00000000000E+00  0.00000000000E+00  0.14615315164E+04  0.14615315164E+04  0.00000000000E+00 0.  1.
         21   -1    0    0  501  503 -0.00000000000E+00 -0.00000000000E+00 -0.21157260330E+03  0.21157260330E+03  0.00000000000E+00 0. -1.
         24    1    1    2    0    0 -0.38037676383E+02 -0.68527167766E+02  0.46851665024E+03  0.48178616113E+03  0.80419002446E+02 0. -1.
          1    1    1    2  501    0  0.64850217155E+02  0.45667776725E+02 -0.19693443569E+03  0.21230701462E+03  0.00000000000E+00 0. -1.
         -2    1    1    2    0  502 -0.26812540772E+02  0.22859391041E+02  0.97837669857E+03  0.97901094397E+03  0.00000000000E+00 0.  1.
<mgrwt>
<rscale>  2 0.11342267E+03</rscale>
<asrwt>0</asrwt>
<pdfrwt beam="1">  1       21 0.22485100E+00 0.11342267E+03</pdfrwt>
<pdfrwt beam="2">  1       21 0.32549632E-01 0.11342267E+03</pdfrwt>
<totfact> 0.96029802E+02</totfact>
</mgrwt>
</event>
<event>
 5    1  0.1624116E+000  0.1193027E+03  0.7546771E-02  0.1244252E+00
         21   -1    0    0  501  502  0.00000000000E+00  0.00000000000E+00  0.14644974113E+03  0.14644974113E+03  0.00000000000E+00 0. -1.
         21   -1    0    0  502  503 -0.00000000000E+00 -0.00000000000E+00 -0.13769707457E+03  0.13769707457E+03  0.00000000000E+00 0. -1.
         24    1    1    2    0    0 -0.59214803635E+02  0.27083082057E+02 -0.15398433356E+02  0.10461459749E+03  0.80419002446E+02 0. -1.
          1    1    1    2  501    0  0.74303919969E+02 -0.62204675661E+02  0.70218256635E+02  0.11967078909E+03  0.00000000000E+00 0. -1.
         -2    1    1    2    0  503 -0.15089116333E+02  0.35121593605E+02 -0.46067156712E+02  0.59861429123E+02  0.00000000000E+00 0.  1.
<mgrwt>
<rscale>  2 0.11930272E+03</rscale>
<asrwt>0</asrwt>
<pdfrwt beam="1">  1       21 0.22530729E-01 0.11930272E+03</pdfrwt>
<pdfrwt beam="2">  1       21 0.21184165E-01 0.11930272E+03</pdfrwt>
<totfact> 0.38698770E+05</totfact>
</mgrwt>
</event>
<event>
 5    1  0.1624116E+000  0.8200397E+02  0.7546771E-02  0.1323459E+00
         21   -1    0    0  503  502  0.00000000000E+00  0.00000000000E+00  0.20370373676E+04  0.20370373676E+04  0.00000000000E+00 0.  1.
         21   -1    0    0  501  503 -0.00000000000E+00 -0.00000000000E+00 -0.10287553013E+02  0.10287553013E+02  0.00000000000E+00 0. -1.
         24    1    1    2    0    0 -0.16799388108E+02  0.30055418294E+02  0.42031471334E+03  0.42932181614E+03  0.80419002446E+02 0.  0.
          1    1    1    2  501    0  0.26322040614E+01 -0.51095163903E+02  0.10960664337E+03  0.12095974761E+03  0.00000000000E+00 0. -1.
         -2    1    1    2    0  502  0.14167184047E+02  0.21039745609E+02  0.14968284578E+04  0.14970433568E+04  0.00000000000E+00 0.  1.
<mgrwt>
<rscale>  2 0.82003965E+02</rscale>
<asrwt>0</asrwt>
<pdfrwt beam="1">  1       21 0.31339004E+00 0.82003965E+02</pdfrwt>
<pdfrwt beam="2">  1       21 0.15827021E-02 0.82003965E+02</pdfrwt>
<totfact> 0.59232305E+04</totfact>
</mgrwt>
</event>
<event>
 5    1  0.1624116E+000  0.1534711E+03  0.7546771E-02  0.1196271E+00
         21   -1    0    0  503  502  0.00000000000E+00  0.00000000000E+00  0.55725761586E+03  0.55725761586E+03  0.00000000000E+00 0. -1.
         21   -1    0    0  501  503 -0.00000000000E+00 -0.00000000000E+00 -0.46394770818E+02  0.46394770818E+02  0.00000000000E+00 0.  1.
         24    1    1    2    0    0  0.87575089590E+02 -0.66493475283E+02  0.14331461969E+03  0.19772980236E+03  0.80419002446E+02 0. -1.
          1    1    1    2  501    0 -0.28988753243E+02 -0.39863182480E+02  0.82712025641E+02  0.96284475996E+02  0.00000000000E+00 0. -1.
         -2    1    1    2    0  502 -0.58586336346E+02  0.10635665776E+03  0.28483619971E+03  0.30963810832E+03  0.00000000000E+00 0.  1.
<mgrwt>
<rscale>  2 0.15347108E+03</rscale>
<asrwt>0</asrwt>
<pdfrwt beam="1">  1       21 0.85731936E-01 0.15347108E+03</pdfrwt>
<pdfrwt beam="2">  1       21 0.71376574E-02 0.15347108E+03</pdfrwt>
<totfact> 0.17411269E+05</totfact>
</mgrwt>
</event>
<event>
 5    1  0.1624116E+000  0.7712182E+02  0.7546771E-02  0.1337424E+00
         21   -1    0    0  501  502  0.00000000000E+00  0.00000000000E+00  0.26297340519E+03  0.26297340519E+03  0.00000000000E+00 0.  1.
         21   -1    0    0  502  503 -0.00000000000E+00 -0.00000000000E+00 -0.32652640994E+02  0.32652640994E+02  0.00000000000E+00 0. -1.
         24    1    1    2    0    0 -0.23066846126E+02 -0.27707924598E+02  0.13379086485E+03  0.16020930044E+03  0.80419002446E+02 0. -1.
          1    1    1    2  501    0 -0.15801839107E+02  0.21606517514E+02  0.91996505130E+02  0.95811777326E+02  0.00000000000E+00 0. -1.
         -2    1    1    2    0  503  0.38868685233E+02  0.61014070833E+01  0.45333942139E+01  0.39604968416E+02  0.00000000000E+00 0.  1.
<mgrwt>
<rscale>  2 0.77121819E+02</rscale>
<asrwt>0</asrwt>
<pdfrwt beam="1">  1       21 0.40457446E-01 0.77121819E+02</pdfrwt>
<pdfrwt beam="2">  1       21 0.50234834E-02 0.77121819E+02</pdfrwt>
<totfact> 0.15459312E+06</totfact>
</mgrwt>
</event>
<event>
 5    1  0.1624116E+000  0.8732918E+02  0.7546771E-02  0.1309451E+00
         21   -1    0    0  503  502  0.00000000000E+00  0.00000000000E+00  0.16238550153E+03  0.16238550153E+03  0.00000000000E+00 0.  1.
         21   -1    0    0  501  503 -0.00000000000E+00 -0.00000000000E+00 -0.92249199004E+02  0.92249199004E+02  0.00000000000E+00 0. -1.
         24    1    1    2    0    0 -0.13681733444E+02 -0.30089787864E+02  0.19604742792E+01  0.86969216263E+02  0.80419002446E+02 0. -1.
          1    1    1    2  501    0 -0.18993061081E+02  0.47163749029E+02 -0.32572858850E+02  0.60383331519E+02  0.00000000000E+00 0. -1.
         -2    1    1    2    0  502  0.32674794525E+02 -0.17073961166E+02  0.10074868710E+03  0.10728215275E+03  0.00000000000E+00 0.  1.
<mgrwt>
<rscale>  2 0.87329181E+02</rscale>
<asrwt>0</asrwt>
<pdfrwt beam="1">  1       21 0.24982385E-01 0.87329181E+02</pdfrwt>
<pdfrwt beam="2">  1       21 0.14192184E-01 0.87329181E+02</pdfrwt>
<totfact> 0.66059443E+05</totfact>
</mgrwt>
</event>
<event>
 5    1  0.1624116E+000  0.6464678E+02  0.7546771E-02  0.1379305E+00
         21   -1    0    0  501  502  0.00000000000E+00  0.00000000000E+00  0.21843480344E+03  0.21843480344E+03  0.00000000000E+00 0.  1.
         21   -1    0    0  502  503 -0.00000000000E+00 -0.00000000000E+00 -0.20446322574E+02  0.20446322574E+02  0.00000000000E+00 0. -1.
         24    1    1    2    0    0 -0.13589959217E+02 -0.28356548726E+02  0.13278415692E+03  0.15839074825E+03  0.80419002446E+02 0.  1.
          1    1    1    2  501    0 -0.71708057611E+01  0.18740967975E+02  0.47488614772E+02  0.51553980145E+02  0.00000000000E+00 0. -1.
         -2    1    1    2    0  503  0.20760764978E+02  0.96155807511E+01  0.17715709172E+02  0.28936397618E+02  0.00000000000E+00 0.  1.
<mgrwt>
<rscale>  2 0.64646777E+02</rscale>
<asrwt>0</asrwt>
<pdfrwt beam="1">  1       21 0.33605353E-01 0.64646777E+02</pdfrwt>
<pdfrwt beam="2">  1       21 0.31455882E-02 0.64646777E+02</pdfrwt>
<totfact> 0.47204474E+06</totfact>
</mgrwt>
</event>
<event>
 5    1  0.1624116E+000  0.8423454E+02  0.7546771E-02  0.1317447E+00
         21   -1    0    0  503  502  0.00000000000E+00  0.00000000000E+00  0.47580570854E+03  0.47580570854E+03  0.00000000000E+00 0. -1.
         21   -1    0    0  501  503 -0.00000000000E+00 -0.00000000000E+00 -0.23633899713E+02  0.23633899713E+02  0.00000000000E+00 0. -1.
         24    1    1    2    0    0 -0.58923251537E+01 -0.41699213624E+02  0.28116181018E+03  0.29545341997E+03  0.80419002446E+02 0. -1.
          1    1    1    2  501    0  0.32082633165E+02  0.47976137377E+01  0.61352758731E+01  0.33014452266E+02  0.00000000000E+00 0. -1.
         -2    1    1    2    0  502 -0.26190308012E+02  0.36901599886E+02  0.16487472277E+03  0.17097173602E+03  0.00000000000E+00 0.  1.
<mgrwt>
<rscale>  2 0.84234539E+02</rscale>
<asrwt>0</asrwt>
<pdfrwt beam="1">  1       21 0.73200871E-01 0.84234539E+02</pdfrwt>
<pdfrwt beam="2">  1       21 0.36359849E-02 0.84234539E+02</pdfrwt>
<totfact> 0.77531839E+05</totfact>
</mgrwt>
</event>
<event>
 5    1  0.1624116E+000  0.9051191E+02  0.7546771E-02  0.1301617E+00
         21   -1    0    0  503  502  0.00000000000E+00  0.00000000000E+00  0.96595805955E+02  0.96595805955E+02  0.00000000000E+00 0.  1.
         21   -1    0    0  501  503 -0.00000000000E+00 -0.00000000000E+00 -0.13064848264E+03  0.13064848264E+03  0.00000000000E+00 0. -1.
         24    1    1    2    0    0 -0.57931248966E+01 -0.36034987889E+02 -0.39491275626E+02  0.96741187987E+02  0.80419002446E+02 0.  0.
          1    1    1    2  501    0  0.84030376827E+01 -0.27687362161E+02 -0.42011776243E+02  0.51011669340E+02  0.00000000000E+00 0. -1.
         -2    1    1    2    0  502 -0.26099127861E+01  0.63722350050E+02  0.47450375180E+02  0.79491431270E+02  0.00000000000E+00 0.  1.
<mgrwt>
<rscale>  2 0.90511914E+02</rscale>
<asrwt>0</asrwt>
<pdfrwt beam="1">  1       21 0.14860893E-01 0.90511914E+02</pdfrwt>
<pdfrwt beam="2">  1       21 0.20099767E-01 0.90511914E+02</pdfrwt>
<totfact> 0.91054451E+05</totfact>
</mgrwt>
</event>
<event>
 5    1  0.1624116E+000  0.1121774E+03  0.7546771E-02  0.1256590E+00
         21   -1    0    0  503  502  0.00000000000E+00  0.00000000000E+00  0.36092932582E+02  0.36092932582E+02  0.00000000000E+00 0. -1.
         21   -1    0    0  501  503 -0.00000000000E+00 -0.00000000000E+00 -0.10567991476E+04  0.10567991476E+04  0.00000000000E+00 0. -1.
         24    1    1    2    0    0 -0.39019628193E-01  0.66890268460E+02 -0.87117470699E+02  0.13612853923E+03  0.80419002446E+02 0. -1.
          1    1    1    2  501    0  0.35980554681E+02  0.78437264167E+01 -0.79067779535E+03  0.79153490158E+03  0.00000000000E+00 0. -1.
         -2    1    1    2    0  502 -0.35941535053E+02 -0.74733994877E+02 -0.14291094893E+03  0.16522863933E+03  0.00000000000E+00 0.  1.
<mgrwt>
<rscale>  2 0.11217740E+03</rscale>
<asrwt>0</asrwt>
<pdfrwt beam="1">  1       21 0.55527595E-02 0.11217740E+03</pdfrwt>
<pdfrwt beam="2">  1       21 0.16258447E+00 0.11217740E+03</pdfrwt>
<totfact> 0.57101446E+04</totfact>
</mgrwt>
</event>
<event>
 5    1  0.1624116E+000  0.1227967E+03  0.7546771E-02  0.1238553E+00
         21   -1    0    0  503  502  0.00000000000E+00  0.00000000000E+00  0.34486407654E+02  0.34486407654E+02  0.00000000000E+00 0.  1.
         21   -1    0    0  501  503 -0.00000000000E+00 -0.00000000000E+00 -0.55074500542E+03  0.55074500542E+03  0.00000000000E+00 0.  1.
         24    1    1    2    0    0  0.50316029132E+02  0.92547280437E+02 -0.40369895209E+03  0.42489617765E+03  0.80419002446E+02 0.  1.
          1    1    1    2  501    0 -0.27879455086E+02 -0.13655370868E+02 -0.41415894538E+02  0.51759148852E+02  0.00000000000E+00 0. -1.
         -2    1    1    2    0  502 -0.22436574046E+02 -0.78891909569E+02 -0.71143751132E+02  0.10857608657E+03  0.00000000000E+00 0.  1.
<mgrwt>
<rscale>  2 0.12279665E+03</rscale>
<asrwt>0</asrwt>
<pdfrwt beam="1">  1       21 0.53056013E-02 0.12279665E+03</pdfrwt>
<pdfrwt beam="2">  1       21 0.84729999E-01 0.12279665E+03</pdfrwt>
<totfact> 0.29857496E+05</totfact>
</mgrwt>
</event>
<event>
 5    1  0.1624116E+000  0.7465686E+02  0.7546771E-02  0.1344937E+00
         21   -1    0    0  501  502  0.00000000000E+00  0.00000000000E+00  0.67055496753E+02  0.67055496753E+02  0.00000000000E+00 0. -1.
         21   -1    0    0  502  503 -0.00000000000E+00 -0.00000000000E+00 -0.86026566819E+02  0.86026566819E+02  0.00000000000E+00 0.  1.
         24    1    1    2    0    0  0.10312308547E+02  0.30361837158E+02 -0.17277957145E+02  0.88283229555E+02  0.80419002446E+02 0.  1.
          1    1    1    2  501    0  0.57880037194E+01 -0.42300080650E+02  0.64226100915E+01  0.43174619054E+02  0.00000000000E+00 0. -1.
         -2    1    1    2    0  503 -0.16100312267E+02  0.11938243492E+02 -0.81157230130E+01  0.21624214964E+02  0.00000000000E+00 0.  1.
<mgrwt>
<rscale>  2 0.74656857E+02</rscale>
<asrwt>0</asrwt>
<pdfrwt beam="1">  1       21 0.10316230E-01 0.74656857E+02</pdfrwt>
<pdfrwt beam="2">  1       21 0.13234856E-01 0.74656857E+02</pdfrwt>
<totfact> 0.36268123E+06</totfact>
</mgrwt>
</event>
<event>
 5    1  0.1624116E+000  0.1268321E+03  0.7546771E-02  0.1232233E+00
         21   -1    0    0  503  502  0.00000000000E+00  0.00000000000E+00  0.20741686197E+02  0.20741686197E+02  0.00000000000E+00 0.  1.
         21   -1    0    0  501  503 -0.00000000000E+00 -0.00000000000E+00 -0.83037440555E+03  0.83037440555E+03  0.00000000000E+00 0.  1.
         24    1    1    2    0    0 -0.43829040786E+02 -0.17066701496E+02 -0.25698471577E+03  0.27335072199E+03  0.80419002446E+02 0.  1.
          1    1    1    2  501    0 -0.57838771911E+02  0.36871729557E+01 -0.29150529762E+03  0.29721079610E+03  0.00000000000E+00 0. -1.
         -2    1    1    2    0  502  0.10166781270E+03  0.13379528541E+02 -0.26114270596E+03  0.28055457366E+03  0.00000000000E+00 0.  1.
<mgrwt>
<rscale>  2 0.12683214E+03</rscale>
<asrwt>0</asrwt>
<pdfrwt beam="1">  1       21 0.31910285E-02 0.12683214E+03</pdfrwt>
<pdfrwt beam="2">  1       21 0.12774991E+00 0.12683214E+03</pdfrwt>
<totfact> 0.26349474E+05</totfact>
</mgrwt>
</event>
<event>
 5    1  0.1624116E+000  0.7091901E+02  0.7546771E-02  0.1356996E+00
         21   -1    0    0  503  502  0.00000000000E+00  0.00000000000E+00  0.45409169684E+02  0.45409169684E+02  0.00000000000E+00 0.  1.
         21   -1    0    0  501  503 -0.00000000000E+00 -0.00000000000E+00 -0.15027869076E+04  0.15027869076E+04  0.00000000000E+00 0. -1.
         24    1    1    2    0    0 -0.98465549541E+01  0.65669977570E+01 -0.32320254832E+03  0.33326743510E+03  0.80419002446E+02 0.  1.
          1    1    1    2  501    0  0.27701053365E+02 -0.23213729986E+02 -0.11705577377E+04  0.11711155549E+04  0.00000000000E+00 0. -1.
         -2    1    1    2    0  502 -0.17854498411E+02  0.16646732229E+02  0.36382548130E+02  0.43813087267E+02  0.00000000000E+00 0.  1.
<mgrwt>
<rscale>  2 0.70919008E+02</rscale>
<asrwt>0</asrwt>
<pdfrwt beam="1">  1       21 0.69860254E-02 0.70919008E+02</pdfrwt>
<pdfrwt beam="2">  1       21 0.23119801E+00 0.70919008E+02</pdfrwt>
<totfact> 0.15238595E+04</totfact>
</mgrwt>
</event>
<event>
 5    1  0.1624116E+000  0.2378697E+03  0.7546771E-02  0.1121220E+00
         21   -1    0    0  503  502  0.00000000000E+00  0.00000000000E+00  0.10466583722E+03  0.10466583722E+03  0.00000000000E+00 0. -1.
         21   -1    0    0  501  503 -0.00000000000E+00 -0.00000000000E+00 -0.74327730997E+03  0.74327730997E+03  0.00000000000E+00 0. -1.
         24    1    1    2    0    0  0.18299538980E+03 -0.66839852721E+02 -0.24609956992E+03  0.32401711817E+03  0.80419002446E+02 0. -1.
          1    1    1    2  501    0 -0.18581376699E+03  0.11382410137E+03 -0.41727165836E+03  0.47074230629E+03  0.00000000000E+00 0. -1.
         -2    1    1    2    0  502  0.28183771894E+01 -0.46984248651E+02  0.24759755528E+02  0.53183722745E+02  0.00000000000E+00 0.  1.
<mgrwt>
<rscale>  2 0.23786971E+03</rscale>
<asrwt>0</asrwt>
<pdfrwt beam="1">  1       21 0.16102437E-01 0.23786971E+03</pdfrwt>
<pdfrwt beam="2">  1       21 0.11435035E+00 0.23786971E+03</pdfrwt>
<totfact> 0.19945113E+04</totfact>
</mgrwt>
</event>
<event>
 5    1  0.1624116E+000  0.6934728E+02  0.7546771E-02  0.1362327E+00
         21   -1    0    0  503  502  0.00000000000E+00  0.00000000000E+00  0.45862605434E+02  0.45862605434E+02  0.00000000000E+00 0. -1.
         21   -1    0    0  501  503 -0.00000000000E+00 -0.00000000000E+00 -0.25237300908E+03  0.25237300908E+03  0.00000000000E+00 0. -1.
         24    1    1    2    0    0 -0.94826604020E+01 -0.33103317945E+02 -0.94954253761E+01  0.87995054206E+02  0.80419002446E+02 0. -1.
          1    1    1    2  501    0  0.22814375694E+02  0.10828611570E+02 -0.17313804452E+03  0.17497010323E+03  0.00000000000E+00 0. -1.
         -2    1    1    2    0  502 -0.13331715292E+02  0.22274706376E+02 -0.23876933754E+02  0.35270457075E+02  0.00000000000E+00 0.  1.
<mgrwt>
<rscale>  2 0.69347284E+02</rscale>
<asrwt>0</asrwt>
<pdfrwt beam="1">  1       21 0.70557854E-02 0.69347284E+02</pdfrwt>
<pdfrwt beam="2">  1       21 0.38826617E-01 0.69347284E+02</pdfrwt>
<totfact> 0.94723795E+05</totfact>
</mgrwt>
</event>
<event>
 5    1  0.1624116E+000  0.8033859E+02  0.7546771E-02  0.1328093E+00
         21   -1    0    0  503  502  0.00000000000E+00  0.00000000000E+00  0.10864707187E+04  0.10864707187E+04  0.00000000000E+00 0.  1.
         21   -1    0    0  501  503 -0.00000000000E+00 -0.00000000000E+00 -0.17562203175E+02  0.17562203175E+02  0.00000000000E+00 0. -1.
         24    1    1    2    0    0 -0.18094800476E+02 -0.11598525386E+02  0.36818025806E+03  0.37747300033E+03  0.80419002446E+02 0.  0.
          1    1    1    2  501    0  0.47128976339E+02  0.33275011817E+01  0.31801229562E+02  0.56952005026E+02  0.00000000000E+00 0. -1.
         -2    1    1    2    0  502 -0.29034175863E+02  0.82710242041E+01  0.66892702786E+03  0.66960791648E+03  0.00000000000E+00 0.  1.
<mgrwt>
<rscale>  2 0.80338593E+02</rscale>
<asrwt>0</asrwt>
<pdfrwt beam="1">  1       21 0.16714929E+00 0.80338593E+02</pdfrwt>
<pdfrwt beam="2">  1       21 0.27018783E-02 0.80338593E+02</pdfrwt>
<totfact> 0.17801456E+05</totfact>
</mgrwt>
</event>
<event>
 5    1  0.1989812E+000  0.1397643E+03  0.7546771E-02  0.1213647E+00
         21   -1    0    0  501  502  0.00000000000E+00  0.00000000000E+00  0.76453360463E+02  0.76453360463E+02  0.00000000000E+00 0. -1.
         21   -1    0    0  502  503 -0.00000000000E+00 -0.00000000000E+00 -0.47797012157E+03  0.47797012157E+03  0.00000000000E+00 0. -1.
         24    1    1    2    0    0 -0.40556144248E+02 -0.28587047442E+02 -0.91298738065E+02  0.13139518882E+03  0.80419002446E+02 0. -1.
          1    1    1    2  501    0  0.18916181024E+02  0.10444785926E+03 -0.33682705374E+01  0.10620038821E+03  0.00000000000E+00 0. -1.
         -2    1    1    2    0  503  0.21639963224E+02 -0.75860811822E+02 -0.30684975251E+03  0.31682790501E+03  0.00000000000E+00 0.  1.
<mgrwt>
<rscale>  2 0.13976427E+03</rscale>
<asrwt>0</asrwt>
<pdfrwt beam="1">  1       21 0.11762055E-01 0.13976427E+03</pdfrwt>
<pdfrwt beam="2">  1       21 0.73533868E-01 0.13976427E+03</pdfrwt>
<totfact> 0.10317577E+05</totfact>
</mgrwt>
</event>
<event>
 5    1  0.1624116E+000  0.6385390E+02  0.7546771E-02  0.1382335E+00
         21   -1    0    0  501  502  0.00000000000E+00  0.00000000000E+00  0.13491019523E+02  0.13491019523E+02  0.00000000000E+00 0.  1.
         21   -1    0    0  502  503 -0.00000000000E+00 -0.00000000000E+00 -0.12654853653E+04  0.12654853653E+04  0.00000000000E+00 0.  1.
         24    1    1    2    0    0 -0.12901486275E+02  0.22738014087E+02 -0.26270037800E+03  0.27597494486E+03  0.80419002446E+02 0.  1.
          1    1    1    2  501    0 -0.94063674060E+01 -0.18045659514E+02 -0.86822739139E+01  0.22124815376E+02  0.00000000000E+00 0. -1.
         -2    1    1    2    0  503  0.22307853681E+02 -0.46923545726E+01 -0.98061169386E+03  0.98087662459E+03  0.00000000000E+00 0.  1.
<mgrwt>
<rscale>  2 0.63853899E+02</rscale>
<asrwt>0</asrwt>
<pdfrwt beam="1">  1       21 0.20755412E-02 0.63853899E+02</pdfrwt>
<pdfrwt beam="2">  1       21 0.19469008E+00 0.63853899E+02</pdfrwt>
<totfact> 0.18266404E+05</totfact>
</mgrwt>
</event>
<event>
 5    1  0.1795239E+000  0.1148852E+03  0.7546771E-02  0.1251782E+00
         21   -1    0    0  501  502  0.00000000000E+00  0.00000000000E+00  0.17757641573E+03  0.17757641573E+03  0.00000000000E+00 0. -1.
         21   -1    0    0  502  503 -0.00000000000E+00 -0.00000000000E+00 -0.22217146053E+03  0.22217146053E+03  0.00000000000E+00 0.  1.
         24    1    1    2    0    0  0.72205651333E+02 -0.48625572070E+02  0.10033417309E+03  0.15528124352E+03  0.80419002446E+02 0. -1.
          1    1    1    2  501    0 -0.23901746981E+02  0.57386897915E+02  0.25436991958E+02  0.67168371433E+02  0.00000000000E+00 0. -1.
         -2    1    1    2    0  503 -0.48303904353E+02 -0.87613258456E+01 -0.17036620985E+03  0.17729826131E+03  0.00000000000E+00 0.  1.
<mgrwt>
<rscale>  2 0.11488524E+03</rscale>
<asrwt>0</asrwt>
<pdfrwt beam="1">  1       21 0.27319448E-01 0.11488524E+03</pdfrwt>
<pdfrwt beam="2">  1       21 0.34180225E-01 0.11488524E+03</pdfrwt>
<totfact> 0.10853078E+05</totfact>
</mgrwt>
</event>
<event>
 5    1  0.1624116E+000  0.8021216E+02  0.7546771E-02  0.1328450E+00
         21   -1    0    0  501  502  0.00000000000E+00  0.00000000000E+00  0.31472927597E+02  0.31472927597E+02  0.00000000000E+00 0.  1.
         21   -1    0    0  502  503 -0.00000000000E+00 -0.00000000000E+00 -0.23187287670E+03  0.23187287670E+03  0.00000000000E+00 0. -1.
         24    1    1    2    0    0 -0.30243114781E+02 -0.22353749796E+02 -0.11281985357E+03  0.14356138560E+03  0.80419002446E+02 0.  1.
          1    1    1    2  501    0 -0.66562487544E+00  0.37305208555E+02 -0.16400885262E+02  0.40756725570E+02  0.00000000000E+00 0. -1.
         -2    1    1    2    0  503  0.30908739657E+02 -0.14951458759E+02 -0.71179210269E+02  0.79027693125E+02  0.00000000000E+00 0.  1.
<mgrwt>
<rscale>  2 0.80212156E+02</rscale>
<asrwt>0</asrwt>
<pdfrwt beam="1">  1       21 0.48419889E-02 0.80212156E+02</pdfrwt>
<pdfrwt beam="2">  1       21 0.35672750E-01 0.80212156E+02</pdfrwt>
<totfact> 0.21051362E+06</totfact>
</mgrwt>
</event>
<event>
 5    1  0.1624116E+000  0.6481779E+02  0.7546771E-02  0.1378658E+00
         21   -1    0    0  501  502  0.00000000000E+00  0.00000000000E+00  0.20133022468E+02  0.20133022468E+02  0.00000000000E+00 0. -1.
         21   -1    0    0  502  503 -0.00000000000E+00 -0.00000000000E+00 -0.27613506274E+03  0.27613506274E+03  0.00000000000E+00 0. -1.
         24    1    1    2    0    0 -0.24163354959E-01  0.91241870448E+01 -0.20036142570E+03  0.21609064819E+03  0.80419002446E+02 0. -1.
          1    1    1    2  501    0 -0.23865879116E+02 -0.59878948575E+01 -0.65034219499E+01  0.25450531779E+02  0.00000000000E+00 0. -1.
         -2    1    1    2    0  503  0.23890042470E+02 -0.31362921873E+01 -0.49137192622E+02  0.54726905236E+02  0.00000000000E+00 0.  1.
<mgrwt>
<rscale>  2 0.64817789E+02</rscale>
<asrwt>0</asrwt>
<pdfrwt beam="1">  1       21 0.30973883E-02 0.64817789E+02</pdfrwt>
<pdfrwt beam="2">  1       21 0.42482315E-01 0.64817789E+02</pdfrwt>
<totfact> 0.30687851E+06</totfact>
</mgrwt>
</event>
<event>
 5    1  0.1624116E+000  0.6980636E+02  0.7546771E-02  0.1360753E+00
         21   -1    0    0  501  502  0.00000000000E+00  0.00000000000E+00  0.16108555778E+02  0.16108555778E+02  0.00000000000E+00 0.  1.
         21   -1    0    0  502  503 -0.00000000000E+00 -0.00000000000E+00 -0.40476580058E+03  0.40476580058E+03  0.00000000000E+00 0. -1.
         24    1    1    2    0    0  0.84221820741E+01 -0.10262637428E+02 -0.13514673177E+03  0.15782303362E+03  0.80419002446E+02 0.  1.
          1    1    1    2  501    0  0.19192561877E+02 -0.11999036164E+02 -0.35004848941E+02  0.41685378128E+02  0.00000000000E+00 0. -1.
         -2    1    1    2    0  503 -0.27614743951E+02  0.22261673592E+02 -0.21850566409E+03  0.22136594461E+03  0.00000000000E+00 0.  1.
<mgrwt>
<rscale>  2 0.69806362E+02</rscale>
<asrwt>0</asrwt>
<pdfrwt beam="1">  1       21 0.24782394E-02 0.69806362E+02</pdfrwt>
<pdfrwt beam="2">  1       21 0.62271661E-01 0.69806362E+02</pdfrwt>
<totfact> 0.20260235E+06</totfact>
</mgrwt>
</event>
<event>
 5    1  0.1624116E+000  0.6661199E+02  0.7546771E-02  0.1372008E+00
         21   -1    0    0  501  502  0.00000000000E+00  0.00000000000E+00  0.42450805356E+03  0.42450805356E+03  0.00000000000E+00 0. -1.
         21   -1    0    0  502  503 -0.00000000000E+00 -0.00000000000E+00 -0.21183478349E+02  0.21183478349E+02  0.00000000000E+00 0. -1.
         24    1    1    2    0    0 -0.32114883187E+02 -0.10399646064E+01  0.99669978474E+02  0.13203699410E+03  0.80419002446E+02 0. -1.
          1    1    1    2  501    0  0.11585375358E+02  0.17032989744E+02  0.27153664775E+03  0.27231690130E+03  0.00000000000E+00 0. -1.
         -2    1    1    2    0  503  0.20529507830E+02 -0.15993025138E+02  0.32117948982E+02  0.41337636502E+02  0.00000000000E+00 0.  1.
<mgrwt>
<rscale>  2 0.66611994E+02</rscale>
<asrwt>0</asrwt>
<pdfrwt beam="1">  1       21 0.65308925E-01 0.66611994E+02</pdfrwt>
<pdfrwt beam="2">  1       21 0.32589970E-02 0.66611994E+02</pdfrwt>
<totfact> 0.11773757E+06</totfact>
</mgrwt>
</event>
<event>
 5    1  0.1624116E+000  0.9613124E+02  0.7546771E-02  0.1288648E+00
         21   -1    0    0  501  502  0.00000000000E+00  0.00000000000E+00  0.19220945176E+03  0.19220945176E+03  0.00000000000E+00 0. -1.
         21   -1    0    0  502  503 -0.00000000000E+00 -0.00000000000E+00 -0.17664878735E+03  0.17664878735E+03  0.00000000000E+00 0.  1.
         24    1    1    2    0    0  0.35208942311E+02  0.70999597611E+02  0.10142774004E+03  0.15177422339E+03  0.80419002446E+02 0. -1.
          1    1    1    2  501    0 -0.21646688969E+02 -0.48008241933E+02  0.53566584128E+02  0.75118235948E+02  0.00000000000E+00 0. -1.
         -2    1    1    2    0  503 -0.13562253343E+02 -0.22991355678E+02 -0.13943365977E+03  0.14196577978E+03  0.00000000000E+00 0.  1.
<mgrwt>
<rscale>  2 0.96131236E+02</rscale>
<asrwt>0</asrwt>
<pdfrwt beam="1">  1       21 0.29570685E-01 0.96131236E+02</pdfrwt>
<pdfrwt beam="2">  1       21 0.27176736E-01 0.96131236E+02</pdfrwt>
<totfact> 0.14611193E+05</totfact>
</mgrwt>
</event>
<event>
 5    1  0.1624116E+000  0.7818884E+02  0.7546771E-02  0.1334271E+00
         21   -1    0    0  503  502  0.00000000000E+00  0.00000000000E+00  0.13237202859E+03  0.13237202859E+03  0.00000000000E+00 0. -1.
         21   -1    0    0  501  503 -0.00000000000E+00 -0.00000000000E+00 -0.14104901596E+03  0.14104901596E+03  0.00000000000E+00 0. -1.
         24    1    1    2    0    0  0.24018726419E+02 -0.41645398900E+02  0.63460192183E+02  0.11316205377E+03  0.80419002446E+02 0. -1.
          1    1    1    2  501    0 -0.20179956015E+02 -0.67390941897E+00 -0.10475962499E+03  0.10668769285E+03  0.00000000000E+00 0. -1.
         -2    1    1    2    0  502 -0.38387704036E+01  0.42319308319E+02  0.32622445441E+02  0.53571297925E+02  0.00000000000E+00 0.  1.
<mgrwt>
<rscale>  2 0.78188835E+02</rscale>
<asrwt>0</asrwt>
<pdfrwt beam="1">  1       21 0.20364928E-01 0.78188835E+02</pdfrwt>
<pdfrwt beam="2">  1       21 0.21699848E-01 0.78188835E+02</pdfrwt>
<totfact> 0.44751150E+05</totfact>
</mgrwt>
</event>
<event>
 5    1  0.1624116E+000  0.6780172E+02  0.7546771E-02  0.1367732E+00
         21   -1    0    0  501  502  0.00000000000E+00  0.00000000000E+00  0.81855125429E+02  0.81855125429E+02  0.00000000000E+00 0. -1.
         21   -1    0    0  502  503 -0.00000000000E+00 -0.00000000000E+00 -0.13165905389E+03  0.13165905389E+03  0.00000000000E+00 0. -1.
         24    1    1    2    0    0 -0.24958452675E+02  0.28389002558E+02 -0.87925470119E+02  0.12500785606E+03  0.80419002446E+02 0. -1.
          1    1    1    2  501    0  0.52545139589E+00 -0.21295085736E+02  0.54318592297E+02  0.58346090227E+02  0.00000000000E+00 0. -1.
         -2    1    1    2    0  503  0.24433001279E+02 -0.70939168226E+01 -0.16197050642E+02  0.30160233037E+02  0.00000000000E+00 0.  1.
<mgrwt>
<rscale>  2 0.67801715E+02</rscale>
<asrwt>0</asrwt>
<pdfrwt beam="1">  1       21 0.12593096E-01 0.67801715E+02</pdfrwt>
<pdfrwt beam="2">  1       21 0.20255239E-01 0.67801715E+02</pdfrwt>
<totfact> 0.11935384E+06</totfact>
</mgrwt>
</event>
<event>
 5    1  0.1624116E+000  0.8725207E+02  0.7546771E-02  0.1309646E+00
         21   -1    0    0  501  502  0.00000000000E+00  0.00000000000E+00  0.21476904265E+03  0.21476904265E+03  0.00000000000E+00 0. -1.
         21   -1    0    0  502  503 -0.00000000000E+00 -0.00000000000E+00 -0.89138398539E+02  0.89138398539E+02  0.00000000000E+00 0. -1.
         24    1    1    2    0    0  0.61502771434E+02 -0.18667110524E+02 -0.46106338381E+02  0.11280098538E+03  0.80419002446E+02 0. -1.
          1    1    1    2  501    0 -0.37044227495E+02 -0.51699875127E+01  0.13845689242E+03  0.14342006352E+03  0.00000000000E+00 0. -1.
         -2    1    1    2    0  503 -0.24458543939E+02  0.23837098037E+02  0.33280090071E+02  0.47686392289E+02  0.00000000000E+00 0.  1.
<mgrwt>
<rscale>  2 0.87252074E+02</rscale>
<asrwt>0</asrwt>
<pdfrwt beam="1">  1       21 0.33041391E-01 0.87252074E+02</pdfrwt>
<pdfrwt beam="2">  1       21 0.13713600E-01 0.87252074E+02</pdfrwt>
<totfact> 0.41287885E+05</totfact>
</mgrwt>
</event>
<event>
 5    1  0.1624116E+000  0.8547217E+02  0.7546771E-02  0.1314202E+00
         21   -1    0    0  501  502  0.00000000000E+00  0.00000000000E+00  0.58980772159E+02  0.58980772159E+02  0.00000000000E+00 0.  1.
         21   -1    0    0  502  503 -0.00000000000E+00 -0.00000000000E+00 -0.41842299320E+03  0.41842299320E+03  0.00000000000E+00 0.  1.
         24    1    1    2    0    0 -0.65100210413E+02  0.22704173050E+01 -0.58151100447E+02  0.11870955576E+03  0.80419002446E+02 0.  1.
          1    1    1    2  501    0  0.41499931074E+02 -0.98738575292E+01  0.12086215899E+02  0.44337500566E+02  0.00000000000E+00 0. -1.
         -2    1    1    2    0  503  0.23600279339E+02  0.76034402242E+01 -0.31337733649E+03  0.31435670903E+03  0.00000000000E+00 0.  1.
<mgrwt>
<rscale>  2 0.85472175E+02</rscale>
<asrwt>0</asrwt>
<pdfrwt beam="1">  1       21 0.90739651E-02 0.85472175E+02</pdfrwt>
<pdfrwt beam="2">  1       21 0.64372767E-01 0.85472175E+02</pdfrwt>
<totfact> 0.22080336E+05</totfact>
</mgrwt>
</event>
<event>
 5    1  0.1624116E+000  0.1166509E+03  0.7546771E-02  0.1248726E+00
         21   -1    0    0  503  502  0.00000000000E+00  0.00000000000E+00  0.23013027392E+03  0.23013027392E+03  0.00000000000E+00 0.  1.
         21   -1    0    0  501  503 -0.00000000000E+00 -0.00000000000E+00 -0.79099127263E+02  0.79099127263E+02  0.00000000000E+00 0.  1.
         24    1    1    2    0    0 -0.44517611624E+02 -0.90778686441E+02  0.48536296147E+01  0.12928016604E+03  0.80419002446E+02 0.  1.
          1    1    1    2  501    0  0.15697001829E+02  0.59693329919E+02  0.75318183786E+02  0.97378222987E+02  0.00000000000E+00 0. -1.
         -2    1    1    2    0  502  0.28820609796E+02  0.31085356522E+02  0.70859333259E+02  0.82571012159E+02  0.00000000000E+00 0.  1.
<mgrwt>
<rscale>  2 0.11665094E+03</rscale>
<asrwt>0</asrwt>
<pdfrwt beam="1">  1       21 0.35404657E-01 0.11665094E+03</pdfrwt>
<pdfrwt beam="2">  1       21 0.12169097E-01 0.11665094E+03</pdfrwt>
<totfact> 0.44488930E+05</totfact>
</mgrwt>
</event>
<event>
 5    1  0.1624116E+000  0.7542383E+02  0.7546771E-02  0.1342564E+00
         21   -1    0    0  501  502  0.00000000000E+00  0.00000000000E+00  0.72960254331E+02  0.72960254331E+02  0.00000000000E+00 0.  1.
         21   -1    0    0  502  503 -0.00000000000E+00 -0.00000000000E+00 -0.13667908749E+03  0.13667908749E+03  0.00000000000E+00 0.  1.
         24    1    1    2    0    0  0.10177844083E+02 -0.53015046007E+02  0.27351764902E+02  0.10064550964E+03  0.80419002446E+02 0.  1.
          1    1    1    2  501    0 -0.61351729470E+01  0.29693493927E+02 -0.26669143345E+02  0.40380529163E+02  0.00000000000E+00 0. -1.
         -2    1    1    2    0  503 -0.40426711356E+01  0.23321552080E+02 -0.64401454713E+02  0.68613303013E+02  0.00000000000E+00 0.  1.
<mgrwt>
<rscale>  2 0.75423828E+02</rscale>
<asrwt>0</asrwt>
<pdfrwt beam="1">  1       21 0.11224655E-01 0.75423828E+02</pdfrwt>
<pdfrwt beam="2">  1       21 0.21027552E-01 0.75423828E+02</pdfrwt>
<totfact> 0.13674703E+06</totfact>
</mgrwt>
</event>
<event>
 5    1  0.1624116E+000  0.6844010E+02  0.7546771E-02  0.1365479E+00
         21   -1    0    0  503  502  0.00000000000E+00  0.00000000000E+00  0.61995639633E+03  0.61995639633E+03  0.00000000000E+00 0.  1.
         21   -1    0    0  501  503 -0.00000000000E+00 -0.00000000000E+00 -0.16410120805E+02  0.16410120805E+02  0.00000000000E+00 0. -1.
         24    1    1    2    0    0  0.13464284725E+02 -0.23085313165E+02  0.38122386570E+03  0.39052921835E+03  0.80419002446E+02 0.  1.
          1    1    1    2  501    0  0.15472805398E+02  0.16179525488E+02  0.87893207879E+00  0.22404402994E+02  0.00000000000E+00 0. -1.
         -2    1    1    2    0  502 -0.28937090123E+02  0.69057876775E+01  0.22144347774E+03  0.22343289579E+03  0.00000000000E+00 0.  1.
<mgrwt>
<rscale>  2 0.68440104E+02</rscale>
<asrwt>0</asrwt>
<pdfrwt beam="1">  1       21 0.95377889E-01 0.68440104E+02</pdfrwt>
<pdfrwt beam="2">  1       21 0.25246345E-02 0.68440104E+02</pdfrwt>
<totfact> 0.77698403E+05</totfact>
</mgrwt>
</event>
<event>
 5    1  0.1624116E+000  0.1283857E+03  0.7546771E-02  0.1229871E+00
         21   -1    0    0  503  502  0.00000000000E+00  0.00000000000E+00  0.11162058774E+04  0.11162058774E+04  0.00000000000E+00 0.  1.
         21   -1    0    0  501  503 -0.00000000000E+00 -0.00000000000E+00 -0.50728354916E+02  0.50728354916E+02  0.00000000000E+00 0. -1.
         24    1    1    2    0    0  0.85219431724E+01  0.33594291951E+02  0.31583354080E+02  0.93090945728E+02  0.80419002446E+02 0. -1.
          1    1    1    2  501    0 -0.87176143390E+02 -0.18167637071E+02  0.90198336338E+02  0.12674968596E+03  0.00000000000E+00 0. -1.
         -2    1    1    2    0  502  0.78654200217E+02 -0.15426654880E+02  0.94369583206E+03  0.94709360062E+03  0.00000000000E+00 0.  1.
<mgrwt>
<rscale>  2 0.12838568E+03</rscale>
<asrwt>0</asrwt>
<pdfrwt beam="1">  1       21 0.17172396E+00 0.12838568E+03</pdfrwt>
<pdfrwt beam="2">  1       21 0.78043631E-02 0.12838568E+03</pdfrwt>
<totfact> 0.27270141E+04</totfact>
</mgrwt>
</event>
<event>
 5    1  0.1624116E+000  0.8554310E+02  0.7546771E-02  0.1314018E+00
         21   -1    0    0  501  502  0.00000000000E+00  0.00000000000E+00  0.15425636730E+03  0.15425636730E+03  0.00000000000E+00 0.  1.
         21   -1    0    0  502  503 -0.00000000000E+00 -0.00000000000E+00 -0.88795062075E+02  0.88795062075E+02  0.00000000000E+00 0.  1.
         24    1    1    2    0    0 -0.31715529755E+02 -0.73109758054E+01  0.10269970612E+03  0.13443872502E+03  0.80419002446E+02 0.  1.
          1    1    1    2  501    0  0.39149681902E+02  0.36913977405E+02  0.76302769870E+01  0.54346669151E+02  0.00000000000E+00 0. -1.
         -2    1    1    2    0  503 -0.74341521468E+01 -0.29603001600E+02 -0.44868677879E+02  0.54266035201E+02  0.00000000000E+00 0.  1.
<mgrwt>
<rscale>  2 0.85543096E+02</rscale>
<asrwt>0</asrwt>
<pdfrwt beam="1">  1       21 0.23731749E-01 0.85543096E+02</pdfrwt>
<pdfrwt beam="2">  1       21 0.13660779E-01 0.85543096E+02</pdfrwt>
<totfact> 0.77762572E+05</totfact>
</mgrwt>
</event>
<event>
 5    1  0.1624116E+000  0.1302137E+03  0.7546771E-02  0.1227139E+00
         21   -1    0    0  503  502  0.00000000000E+00  0.00000000000E+00  0.15045604263E+03  0.15045604263E+03  0.00000000000E+00 0.  1.
         21   -1    0    0  501  503 -0.00000000000E+00 -0.00000000000E+00 -0.38704662580E+03  0.38704662580E+03  0.00000000000E+00 0. -1.
         24    1    1    2    0    0 -0.48676333502E+02 -0.75222569318E+02 -0.81356274160E+02  0.14530615843E+03  0.80419002446E+02 0.  1.
          1    1    1    2  501    0 -0.68806258497E+01 -0.24734111965E+02 -0.24529361762E+03  0.24663348952E+03  0.00000000000E+00 0. -1.
         -2    1    1    2    0  502  0.55556959352E+02  0.99956681283E+02  0.90059308610E+02  0.14556302049E+03  0.00000000000E+00 0.  1.
<mgrwt>
<rscale>  2 0.13021368E+03</rscale>
<asrwt>0</asrwt>
<pdfrwt beam="1">  1       21 0.23147084E-01 0.13021368E+03</pdfrwt>
<pdfrwt beam="2">  1       21 0.59545634E-01 0.13021368E+03</pdfrwt>
<totfact> 0.47680925E+04</totfact>
</mgrwt>
</event>
<event>
 5    1  0.1624116E+000  0.6278092E+02  0.7546771E-02  0.1386519E+00
         21   -1    0    0  503  502  0.00000000000E+00  0.00000000000E+00  0.46582977833E+03  0.46582977833E+03  0.00000000000E+00 0. -1.
         21   -1    0    0  501  503 -0.00000000000E+00 -0.00000000000E+00 -0.14554388205E+02  0.14554388205E+02  0.00000000000E+00 0.  1.
         24    1    1    2    0    0  0.15991964672E+02  0.41521659159E+01  0.41258803367E+03  0.42067693649E+03  0.80419002446E+02 0. -1.
          1    1    1    2  501    0  0.11675619899E+01 -0.20042287208E+02  0.92337854641E+01  0.22097947224E+02  0.00000000000E+00 0. -1.
         -2    1    1    2    0  502 -0.17159526662E+02  0.15890121292E+02  0.29453570991E+02  0.37609282818E+02  0.00000000000E+00 0.  1.
<mgrwt>
<rscale>  2 0.62780923E+02</rscale>
<asrwt>0</asrwt>
<pdfrwt beam="1">  1       21 0.71666108E-01 0.62780923E+02</pdfrwt>
<pdfrwt beam="2">  1       21 0.22391370E-02 0.62780923E+02</pdfrwt>
<totfact> 0.17610876E+06</totfact>
</mgrwt>
</event>
<event>
 5    1  0.1624116E+000  0.8791131E+02  0.7546771E-02  0.1307990E+00
         21   -1    0    0  503  502  0.00000000000E+00  0.00000000000E+00  0.16277811439E+03  0.16277811439E+03  0.00000000000E+00 0.  1.
         21   -1    0    0  501  503 -0.00000000000E+00 -0.00000000000E+00 -0.65464349022E+02  0.65464349022E+02  0.00000000000E+00 0. -1.
         24    1    1    2    0    0 -0.12584671335E+02  0.38358942350E+02  0.10546201365E+03  0.13863345444E+03  0.80419002446E+02 0.  0.
          1    1    1    2  501    0  0.44437309333E+02 -0.17469664065E+02 -0.16673304930E+02  0.50575317306E+02  0.00000000000E+00 0. -1.
         -2    1    1    2    0  502 -0.31852637998E+02 -0.20889278285E+02  0.85250566460E+01  0.39033691672E+02  0.00000000000E+00 0.  1.
<mgrwt>
<rscale>  2 0.87911305E+02</rscale>
<asrwt>0</asrwt>
<pdfrwt beam="1">  1       21 0.25042787E-01 0.87911305E+02</pdfrwt>
<pdfrwt beam="2">  1       21 0.10071438E-01 0.87911305E+02</pdfrwt>
<totfact> 0.12000054E+06</totfact>
</mgrwt>
</event>
<event>
 5    1  0.1624116E+000  0.6928319E+02  0.7546771E-02  0.1362548E+00
         21   -1    0    0  501  502  0.00000000000E+00  0.00000000000E+00  0.15195689572E+04  0.15195689572E+04  0.00000000000E+00 0. -1.
         21   -1    0    0  502  503 -0.00000000000E+00 -0.00000000000E+00 -0.37415809072E+01  0.37415809072E+01  0.00000000000E+00 0.  1.
         24    1    1    2    0    0  0.10067039155E+02 -0.39924924530E+02  0.76183965869E+03  0.76717809301E+03  0.80419002446E+02 0.  1.
          1    1    1    2  501    0 -0.17419381583E+02  0.17801735258E+02  0.58666383711E+03  0.58719229764E+03  0.00000000000E+00 0. -1.
         -2    1    1    2    0  503  0.73523424282E+01  0.22123189272E+02  0.16732388047E+03  0.16894014745E+03  0.00000000000E+00 0.  1.
<mgrwt>
<rscale>  2 0.69283187E+02</rscale>
<asrwt>0</asrwt>
<pdfrwt beam="1">  1       21 0.23377935E+00 0.69283187E+02</pdfrwt>
<pdfrwt beam="2">  1       21 0.57562905E-03 0.69283187E+02</pdfrwt>
<totfact> 0.79103810E+05</totfact>
</mgrwt>
</event>
<event>
 5    1  0.1624116E+000  0.6789294E+02  0.7546771E-02  0.1367408E+00
         21   -1    0    0  503  502  0.00000000000E+00  0.00000000000E+00  0.57805221664E+02  0.57805221664E+02  0.00000000000E+00 0.  1.
         21   -1    0    0  501  503 -0.00000000000E+00 -0.00000000000E+00 -0.80280877496E+02  0.80280877496E+02  0.00000000000E+00 0. -1.
         24    1    1    2    0    0  0.12603839946E+02  0.32479747380E+02 -0.19474897746E+02  0.89779053057E+02  0.80419002446E+02 0.  0.
          1    1    1    2  501    0  0.10596143880E+02 -0.17723027626E+02 -0.25684478515E+01  0.20808193044E+02  0.00000000000E+00 0. -1.
         -2    1    1    2    0  502 -0.23199983826E+02 -0.14756719754E+02 -0.43231023469E+00  0.27498853059E+02  0.00000000000E+00 0.  1.
<mgrwt>
<rscale>  2 0.67892937E+02</rscale>
<asrwt>0</asrwt>
<pdfrwt beam="1">  1       21 0.88931110E-02 0.67892937E+02</pdfrwt>
<pdfrwt beam="2">  1       21 0.12350904E-01 0.67892937E+02</pdfrwt>
<totfact> 0.52441029E+06</totfact>
</mgrwt>
</event>
<event>
 5    1  0.1624116E+000  0.7326935E+02  0.7546771E-02  0.1349316E+00
         21   -1    0    0  503  502  0.00000000000E+00  0.00000000000E+00  0.11965596601E+02  0.11965596601E+02  0.00000000000E+00 0.  1.
         21   -1    0    0  501  503 -0.00000000000E+00 -0.00000000000E+00 -0.50022711873E+03  0.50022711873E+03  0.00000000000E+00 0. -1.
         24    1    1    2    0    0  0.13922093575E+02 -0.43091574192E+02 -0.28634966327E+03  0.30085553687E+03  0.80419002446E+02 0.  1.
          1    1    1    2  501    0 -0.20615585835E+02  0.15334476804E+02 -0.14913156852E+03  0.15132869287E+03  0.00000000000E+00 0. -1.
         -2    1    1    2    0  502  0.66934922602E+01  0.27757097388E+02 -0.52780290349E+02  0.60008485595E+02  0.00000000000E+00 0.  1.
<mgrwt>
<rscale>  2 0.73269352E+02</rscale>
<asrwt>0</asrwt>
<pdfrwt beam="1">  1       21 0.18408610E-02 0.73269352E+02</pdfrwt>
<pdfrwt beam="2">  1       21 0.76958019E-01 0.73269352E+02</pdfrwt>
<totfact> 0.20740423E+06</totfact>
</mgrwt>
</event>
<event>
 5    1  0.1624116E+000  0.8638467E+02  0.7546771E-02  0.1311851E+00
         21   -1    0    0  501  502  0.00000000000E+00  0.00000000000E+00  0.13717384426E+03  0.13717384426E+03  0.00000000000E+00 0. -1.
         21   -1    0    0  502  503 -0.00000000000E+00 -0.00000000000E+00 -0.31009258039E+03  0.31009258039E+03  0.00000000000E+00 0.  1.
         24    1    1    2    0    0  0.22169302957E+02 -0.61875914709E+02 -0.25256338487E+02  0.10688875246E+03  0.80419002446E+02 0. -1.
          1    1    1    2  501    0 -0.67328286225E+01  0.46965285303E+02  0.90004250130E+02  0.10174396319E+03  0.00000000000E+00 0. -1.
         -2    1    1    2    0  503 -0.15436474335E+02  0.14910629405E+02 -0.23766664777E+03  0.23863370900E+03  0.00000000000E+00 0.  1.
<mgrwt>
<rscale>  2 0.86384667E+02</rscale>
<asrwt>0</asrwt>
<pdfrwt beam="1">  1       21 0.21103668E-01 0.86384667E+02</pdfrwt>
<pdfrwt beam="2">  1       21 0.47706551E-01 0.86384667E+02</pdfrwt>
<totfact> 0.91903588E+04</totfact>
</mgrwt>
</event>
<event>
 5    1  0.1624116E+000  0.6870918E+02  0.7546771E-02  0.1364538E+00
         21   -1    0    0  501  502  0.00000000000E+00  0.00000000000E+00  0.75494742405E+02  0.75494742405E+02  0.00000000000E+00 0. -1.
         21   -1    0    0  502  503 -0.00000000000E+00 -0.00000000000E+00 -0.62990367020E+02  0.62990367020E+02  0.00000000000E+00 0.  1.
         24    1    1    2    0    0 -0.11518661859E+02 -0.37926703703E+02  0.92771719677E+01  0.90135433093E+02  0.80419002446E+02 0.  1.
          1    1    1    2  501    0 -0.77928595390E+01  0.19788561857E+02 -0.19420095743E+01  0.21356199131E+02  0.00000000000E+00 0. -1.
         -2    1    1    2    0  503  0.19311521398E+02  0.18138141847E+02  0.51692129914E+01  0.26993477200E+02  0.00000000000E+00 0.  1.
<mgrwt>
<rscale>  2 0.68709180E+02</rscale>
<asrwt>0</asrwt>
<pdfrwt beam="1">  1       21 0.11614576E-01 0.68709180E+02</pdfrwt>
<pdfrwt beam="2">  1       21 0.96908256E-02 0.68709180E+02</pdfrwt>
<totfact> 0.50433281E+06</totfact>
</mgrwt>
</event>
<event>
 5    1  0.1624116E+000  0.9202108E+02  0.7546771E-02  0.1298030E+00
         21   -1    0    0  501  502  0.00000000000E+00  0.00000000000E+00  0.47405826445E+02  0.47405826445E+02  0.00000000000E+00 0. -1.
         21   -1    0    0  502  503 -0.00000000000E+00 -0.00000000000E+00 -0.26868516722E+03  0.26868516722E+03  0.00000000000E+00 0.  1.
         24    1    1    2    0    0 -0.40828079312E+02  0.48880607541E+01 -0.15349293119E+03  0.17809581993E+03  0.80419002446E+02 0.  1.
          1    1    1    2  501    0 -0.26377824937E+02 -0.19627664259E+01  0.15715803579E+02  0.30767329793E+02  0.00000000000E+00 0. -1.
         -2    1    1    2    0  503  0.67205904248E+02 -0.29252943282E+01 -0.83502213171E+02  0.10722784395E+03  0.00000000000E+00 0.  1.
<mgrwt>
<rscale>  2 0.92021082E+02</rscale>
<asrwt>0</asrwt>
<pdfrwt beam="1">  1       21 0.72932039E-02 0.92021082E+02</pdfrwt>
<pdfrwt beam="2">  1       21 0.41336181E-01 0.92021082E+02</pdfrwt>
<totfact> 0.79571770E+05</totfact>
</mgrwt>
</event>
<event>
 5    1  0.1624116E+000  0.2517713E+03  0.7546771E-02  0.1112190E+00
         21   -1    0    0  501  502  0.00000000000E+00  0.00000000000E+00  0.24986846301E+03  0.24986846301E+03  0.00000000000E+00 0. -1.
         21   -1    0    0  502  503 -0.00000000000E+00 -0.00000000000E+00 -0.31492296178E+03  0.31492296178E+03  0.00000000000E+00 0.  1.
         24    1    1    2    0    0  0.21252955374E+03  0.12236703560E+03  0.11789226321E+02  0.25835770634E+03  0.80419002446E+02 0. -1.
          1    1    1    2  501    0 -0.23694211435E+02 -0.17483239608E+02  0.48465962050E+02  0.56710041440E+02  0.00000000000E+00 0. -1.
         -2    1    1    2    0  503 -0.18883534231E+03 -0.10488379599E+03 -0.12530968714E+03  0.24972367700E+03  0.00000000000E+00 0.  1.
<mgrwt>
<rscale>  2 0.25177133E+03</rscale>
<asrwt>0</asrwt>
<pdfrwt beam="1">  1       21 0.38441302E-01 0.25177133E+03</pdfrwt>
<pdfrwt beam="2">  1       21 0.48449686E-01 0.25177133E+03</pdfrwt>
<totfact> 0.25753222E+04</totfact>
</mgrwt>
</event>
<event>
 5    1  0.1624116E+000  0.8038418E+02  0.7546771E-02  0.1327965E+00
         21   -1    0    0  501  502  0.00000000000E+00  0.00000000000E+00  0.28096221486E+02  0.28096221486E+02  0.00000000000E+00 0.  1.
         21   -1    0    0  502  503 -0.00000000000E+00 -0.00000000000E+00 -0.38067174475E+03  0.38067174475E+03  0.00000000000E+00 0. -1.
         24    1    1    2    0    0  0.16559825138E+02  0.51743325830E+02 -0.28782233329E+03  0.30374415397E+03  0.80419002446E+02 0. -1.
          1    1    1    2  501    0  0.97124567256E+01 -0.21904317708E+02  0.52402425759E+01  0.24527353958E+02  0.00000000000E+00 0. -1.
         -2    1    1    2    0  503 -0.26272281864E+02 -0.29839008121E+02 -0.69993432549E+02  0.80496458307E+02  0.00000000000E+00 0.  1.
<mgrwt>
<rscale>  2 0.80384181E+02</rscale>
<asrwt>0</asrwt>
<pdfrwt beam="1">  1       21 0.43224956E-02 0.80384181E+02</pdfrwt>
<pdfrwt beam="2">  1       21 0.58564883E-01 0.80384181E+02</pdfrwt>
<totfact> 0.93744630E+05</totfact>
</mgrwt>
</event>
<event>
 5    1  0.1624116E+000  0.6744005E+02  0.7546771E-02  0.1369021E+00
         21   -1    0    0  503  502  0.00000000000E+00  0.00000000000E+00  0.35434310980E+03  0.35434310980E+03  0.00000000000E+00 0.  1.
         21   -1    0    0  501  503 -0.00000000000E+00 -0.00000000000E+00 -0.24220336424E+02  0.24220336424E+02  0.00000000000E+00 0.  1.
         24    1    1    2    0    0  0.57837613751E+01 -0.33301833092E+02  0.15402009333E+03  0.17700810458E+03  0.80419002446E+02 0.  0.
          1    1    1    2  501    0  0.12323422078E+02  0.24692624322E+02  0.35299328938E+01  0.27821805366E+02  0.00000000000E+00 0. -1.
         -2    1    1    2    0  502 -0.18107183454E+02  0.86092087705E+01  0.17257274715E+03  0.17373353627E+03  0.00000000000E+00 0.  1.
<mgrwt>
<rscale>  2 0.67440048E+02</rscale>
<asrwt>0</asrwt>
<pdfrwt beam="1">  1       21 0.54514321E-01 0.67440048E+02</pdfrwt>
<pdfrwt beam="2">  1       21 0.37262059E-02 0.67440048E+02</pdfrwt>
<totfact> 0.13799264E+06</totfact>
</mgrwt>
</event>
<event>
 5    1  0.1624116E+000  0.7069426E+02  0.7546771E-02  0.1357748E+00
         21   -1    0    0  501  502  0.00000000000E+00  0.00000000000E+00  0.63636180027E+03  0.63636180027E+03  0.00000000000E+00 0. -1.
         21   -1    0    0  502  503 -0.00000000000E+00 -0.00000000000E+00 -0.13097107868E+03  0.13097107868E+03  0.00000000000E+00 0. -1.
         24    1    1    2    0    0 -0.29070238956E+02 -0.14912229407E+02 -0.98414866155E+02  0.13122558902E+03  0.80419002446E+02 0. -1.
          1    1    1    2  501    0  0.68551526192E+00  0.24587959904E+02  0.60556767301E+03  0.60606702954E+03  0.00000000000E+00 0. -1.
         -2    1    1    2    0  503  0.28384723694E+02 -0.96757304962E+01 -0.17620852634E+01  0.30040260390E+02  0.00000000000E+00 0.  1.
<mgrwt>
<rscale>  2 0.70694262E+02</rscale>
<asrwt>0</asrwt>
<pdfrwt beam="1">  1       21 0.97901814E-01 0.70694262E+02</pdfrwt>
<pdfrwt beam="2">  1       21 0.20149397E-01 0.70694262E+02</pdfrwt>
<totfact> 0.21738354E+04</totfact>
</mgrwt>
</event>
<event>
 5    1  0.1624116E+000  0.8353368E+02  0.7546771E-02  0.1319312E+00
         21   -1    0    0  503  502  0.00000000000E+00  0.00000000000E+00  0.13726555578E+03  0.13726555578E+03  0.00000000000E+00 0. -1.
         21   -1    0    0  501  503 -0.00000000000E+00 -0.00000000000E+00 -0.60396287028E+02  0.60396287028E+02  0.00000000000E+00 0.  1.
         24    1    1    2    0    0  0.33984622892E+02 -0.21445110268E+01  0.66548892719E+02  0.10979765297E+03  0.80419002446E+02 0. -1.
          1    1    1    2  501    0 -0.16510968652E+02 -0.34993210300E+02 -0.12802335935E+02  0.40755817478E+02  0.00000000000E+00 0. -1.
         -2    1    1    2    0  502 -0.17473654240E+02  0.37137721327E+02  0.23122711967E+02  0.47108372362E+02  0.00000000000E+00 0.  1.
<mgrwt>
<rscale>  2 0.83533683E+02</rscale>
<asrwt>0</asrwt>
<pdfrwt beam="1">  1       21 0.21117778E-01 0.83533683E+02</pdfrwt>
<pdfrwt beam="2">  1       21 0.92917365E-02 0.83533683E+02</pdfrwt>
<totfact> 0.18880576E+06</totfact>
</mgrwt>
</event>
<event>
 5    1  0.1624116E+000  0.8565794E+02  0.7546771E-02  0.1313721E+00
         21   -1    0    0  501  502  0.00000000000E+00  0.00000000000E+00  0.97120285000E+01  0.97120285000E+01  0.00000000000E+00 0.  1.
         21   -1    0    0  502  503 -0.00000000000E+00 -0.00000000000E+00 -0.87001692046E+03  0.87001692046E+03  0.00000000000E+00 0.  1.
         24    1    1    2    0    0  0.49287199443E+02 -0.60460689673E+01 -0.34044334573E+03  0.35331950213E+03  0.80419002446E+02 0.  1.
          1    1    1    2  501    0  0.25803709784E+01  0.22298313066E+02 -0.76402252360E+02  0.79631509126E+02  0.00000000000E+00 0. -1.
         -2    1    1    2    0  503 -0.51867570422E+02 -0.16252244099E+02 -0.44345929387E+03  0.44677793770E+03  0.00000000000E+00 0.  1.
<mgrwt>
<rscale>  2 0.85657936E+02</rscale>
<asrwt>0</asrwt>
<pdfrwt beam="1">  1       21 0.14941587E-02 0.85657936E+02</pdfrwt>
<pdfrwt beam="2">  1       21 0.13384872E+00 0.85657936E+02</pdfrwt>
<totfact> 0.80491644E+05</totfact>
</mgrwt>
</event>
<event>
 5    1  0.1717185E+000  0.1944564E+03  0.7546771E-02  0.1154502E+00
         21   -1    0    0  501  502  0.00000000000E+00  0.00000000000E+00  0.58265140370E+03  0.58265140370E+03  0.00000000000E+00 0.  1.
         21   -1    0    0  502  503 -0.00000000000E+00 -0.00000000000E+00 -0.72616739412E+02  0.72616739412E+02  0.00000000000E+00 0.  1.
         24    1    1    2    0    0 -0.34385813387E+02  0.18243576657E+03  0.30988918306E+03  0.37008609109E+03  0.80419002446E+02 0.  1.
          1    1    1    2  501    0  0.14505961751E+02 -0.35946275186E+02  0.98291455065E+02  0.10565873255E+03  0.00000000000E+00 0. -1.
         -2    1    1    2    0  503  0.19879851636E+02 -0.14648949138E+03  0.10185402616E+03  0.17952331947E+03  0.00000000000E+00 0.  1.
<mgrwt>
<rscale>  2 0.19445635E+03</rscale>
<asrwt>0</asrwt>
<pdfrwt beam="1">  1       21 0.89638675E-01 0.19445635E+03</pdfrwt>
<pdfrwt beam="2">  1       21 0.11171806E-01 0.19445635E+03</pdfrwt>
<totfact> 0.70641018E+04</totfact>
</mgrwt>
</event>
<event>
 5    1  0.1624116E+000  0.8476905E+02  0.7546771E-02  0.1316038E+00
         21   -1    0    0  501  502  0.00000000000E+00  0.00000000000E+00  0.93387089726E+03  0.93387089726E+03  0.00000000000E+00 0. -1.
         21   -1    0    0  502  503 -0.00000000000E+00 -0.00000000000E+00 -0.13163384646E+02  0.13163384646E+02  0.00000000000E+00 0.  1.
         24    1    1    2    0    0 -0.31688618216E+02 -0.38374862398E+02  0.50961239259E+03  0.51831342373E+03  0.80419002446E+02 0.  1.
          1    1    1    2  501    0  0.12948718639E+02  0.50836878259E+02  0.40036717030E+03  0.40378946069E+03  0.00000000000E+00 0. -1.
         -2    1    1    2    0  503  0.18739899577E+02 -0.12462015860E+02  0.10727949727E+02  0.24931397490E+02  0.00000000000E+00 0.  1.
<mgrwt>
<rscale>  2 0.84769047E+02</rscale>
<asrwt>0</asrwt>
<pdfrwt beam="1">  1       21 0.14367239E+00 0.84769047E+02</pdfrwt>
<pdfrwt beam="2">  1       21 0.20251368E-02 0.84769047E+02</pdfrwt>
<totfact> 0.41623047E+05</totfact>
</mgrwt>
</event>
<event>
 5    1  0.1624116E+000  0.7134721E+02  0.7546771E-02  0.1355571E+00
         21   -1    0    0  503  502  0.00000000000E+00  0.00000000000E+00  0.55166482515E+03  0.55166482515E+03  0.00000000000E+00 0.  1.
         21   -1    0    0  501  503 -0.00000000000E+00 -0.00000000000E+00 -0.20745238986E+02  0.20745238986E+02  0.00000000000E+00 0. -1.
         24    1    1    2    0    0  0.12640022932E+02 -0.16025594563E+02  0.26361763400E+03  0.27636581332E+03  0.80419002446E+02 0. -1.
          1    1    1    2  501    0  0.79604052084E+00  0.35805279115E+02  0.93878639628E+01  0.37024095976E+02  0.00000000000E+00 0. -1.
         -2    1    1    2    0  502 -0.13436063452E+02 -0.19779684552E+02  0.25791408820E+03  0.25902015484E+03  0.00000000000E+00 0.  1.
<mgrwt>
<rscale>  2 0.71347206E+02</rscale>
<asrwt>0</asrwt>
<pdfrwt beam="1">  1       21 0.84871500E-01 0.71347206E+02</pdfrwt>
<pdfrwt beam="2">  1       21 0.31915756E-02 0.71347206E+02</pdfrwt>
<totfact> 0.69208564E+05</totfact>
</mgrwt>
</event>
<event>
 5    1  0.1624116E+000  0.9302008E+02  0.7546771E-02  0.1295699E+00
         21   -1    0    0  503  502  0.00000000000E+00  0.00000000000E+00  0.69122304381E+02  0.69122304381E+02  0.00000000000E+00 0.  1.
         21   -1    0    0  501  503 -0.00000000000E+00 -0.00000000000E+00 -0.13374200888E+03  0.13374200888E+03  0.00000000000E+00 0.  1.
         24    1    1    2    0    0  0.25798037737E+01 -0.72615897839E+02 -0.29046075350E+02  0.11220790727E+03  0.80419002446E+02 0.  1.
          1    1    1    2  501    0  0.11773990835E+02  0.20925116127E+02 -0.27332059622E+02  0.36380335737E+02  0.00000000000E+00 0. -1.
         -2    1    1    2    0  502 -0.14353794609E+02  0.51690781712E+02 -0.82415695256E+01  0.54276070251E+02  0.00000000000E+00 0.  1.
<mgrwt>
<rscale>  2 0.93020076E+02</rscale>
<asrwt>0</asrwt>
<pdfrwt beam="1">  1       21 0.10634201E-01 0.93020076E+02</pdfrwt>
<pdfrwt beam="2">  1       21 0.20575694E-01 0.93020076E+02</pdfrwt>
<totfact> 0.15740289E+06</totfact>
</mgrwt>
</event>
<event>
 5    1  0.1624116E+000  0.8502918E+02  0.7546771E-02  0.1315356E+00
         21   -1    0    0  501  502  0.00000000000E+00  0.00000000000E+00  0.83363059861E+01  0.83363059861E+01  0.00000000000E+00 0. -1.
         21   -1    0    0  502  503 -0.00000000000E+00 -0.00000000000E+00 -0.18127877037E+04  0.18127877037E+04  0.00000000000E+00 0.  1.
         24    1    1    2    0    0 -0.50678695574E+02 -0.37886554891E+02 -0.57741294586E+03  0.58640996515E+03  0.80419002446E+02 0. -1.
          1    1    1    2  501    0  0.35211209513E+02  0.11313909251E+02 -0.90576783186E+02  0.97836534435E+02  0.00000000000E+00 0. -1.
         -2    1    1    2    0  503  0.15467486061E+02  0.26572645640E+02 -0.11364616687E+04  0.11368775101E+04  0.00000000000E+00 0.  1.
<mgrwt>
<rscale>  2 0.85029178E+02</rscale>
<asrwt>0</asrwt>
<pdfrwt beam="1">  1       21 0.12825076E-02 0.85029178E+02</pdfrwt>
<pdfrwt beam="2">  1       21 0.27889065E+00 0.85029178E+02</pdfrwt>
<totfact> 0.12661995E+05</totfact>
</mgrwt>
</event>
<event>
 5    1  0.1624116E+000  0.7528581E+02  0.7546771E-02  0.1342988E+00
         21   -1    0    0  503  502  0.00000000000E+00  0.00000000000E+00  0.16315305984E+04  0.16315305984E+04  0.00000000000E+00 0.  1.
         21   -1    0    0  501  503 -0.00000000000E+00 -0.00000000000E+00 -0.37239121438E+01  0.37239121438E+01  0.00000000000E+00 0. -1.
         24    1    1    2    0    0 -0.91655756740E+00  0.25250225443E+01  0.98178987036E+03  0.98508161150E+03  0.80419002446E+02 0.  1.
          1    1    1    2  501    0  0.34156143245E+02 -0.10856382293E+02  0.23341573839E+03  0.23615124409E+03  0.00000000000E+00 0. -1.
         -2    1    1    2    0  502 -0.33239585678E+02  0.83313597484E+01  0.41260107751E+03  0.41402165496E+03  0.00000000000E+00 0.  1.
<mgrwt>
<rscale>  2 0.75285806E+02</rscale>
<asrwt>0</asrwt>
<pdfrwt beam="1">  1       21 0.25100414E+00 0.75285806E+02</pdfrwt>
<pdfrwt beam="2">  1       21 0.57291086E-03 0.75285806E+02</pdfrwt>
<totfact> 0.63585162E+05</totfact>
</mgrwt>
</event>
<event>
 5    1  0.1624116E+000  0.8744887E+02  0.7546771E-02  0.1309150E+00
         21   -1    0    0  501  502  0.00000000000E+00  0.00000000000E+00  0.23625157332E+02  0.23625157332E+02  0.00000000000E+00 0.  1.
         21   -1    0    0  502  503 -0.00000000000E+00 -0.00000000000E+00 -0.42125001805E+03  0.42125001805E+03  0.00000000000E+00 0. -1.
         24    1    1    2    0    0  0.33145133501E+02  0.29743465796E+02 -0.22520052863E+03  0.24324014406E+03  0.80419002446E+02 0.  0.
          1    1    1    2  501    0 -0.26052301924E+02  0.19925340596E+02 -0.14369918243E+02  0.35808325620E+02  0.00000000000E+00 0. -1.
         -2    1    1    2    0  503 -0.70928315771E+01 -0.49668806391E+02 -0.15805441385E+03  0.16582670570E+03  0.00000000000E+00 0.  1.
<mgrwt>
<rscale>  2 0.87448866E+02</rscale>
<asrwt>0</asrwt>
<pdfrwt beam="1">  1       21 0.36346395E-02 0.87448866E+02</pdfrwt>
<pdfrwt beam="2">  1       21 0.64807697E-01 0.87448866E+02</pdfrwt>
<totfact> 0.10081731E+06</totfact>
</mgrwt>
</event>
<event>
 5    1  0.1624116E+000  0.1394791E+03  0.7546771E-02  0.1214032E+00
         21   -1    0    0  501  502  0.00000000000E+00  0.00000000000E+00  0.39004414504E+03  0.39004414504E+03  0.00000000000E+00 0. -1.
         21   -1    0    0  502  503 -0.00000000000E+00 -0.00000000000E+00 -0.57596815337E+02  0.57596815337E+02  0.00000000000E+00 0. -1.
         24    1    1    2    0    0 -0.74548111711E+02  0.10140766098E+03  0.18153081549E+03  0.23507783305E+03  0.80419002446E+02 0. -1.
          1    1    1    2  501    0  0.59808510487E+02 -0.56278612498E+02  0.14232185667E+03  0.16431631397E+03  0.00000000000E+00 0. -1.
         -2    1    1    2    0  503  0.14739601224E+02 -0.45129048481E+02  0.85946575490E+01  0.48246813361E+02  0.00000000000E+00 0.  1.
<mgrwt>
<rscale>  2 0.13947909E+03</rscale>
<asrwt>0</asrwt>
<pdfrwt beam="1">  1       21 0.60006790E-01 0.13947909E+03</pdfrwt>
<pdfrwt beam="2">  1       21 0.88610488E-02 0.13947909E+03</pdfrwt>
<totfact> 0.26347830E+05</totfact>
</mgrwt>
</event>
<event>
 5    1  0.1624116E+000  0.6700225E+02  0.7546771E-02  0.1370594E+00
         21   -1    0    0  503  502  0.00000000000E+00  0.00000000000E+00  0.68811835469E+03  0.68811835469E+03  0.00000000000E+00 0.  1.
         21   -1    0    0  501  503 -0.00000000000E+00 -0.00000000000E+00 -0.49804219964E+02  0.49804219964E+02  0.00000000000E+00 0. -1.
         24    1    1    2    0    0  0.26909775029E+02  0.95283772308E+01  0.22912622540E+03  0.24450147052E+03  0.80419002446E+02 0. -1.
          1    1    1    2  501    0 -0.10247257353E+02 -0.24318486766E+02 -0.37677911682E+02  0.46000218593E+02  0.00000000000E+00 0. -1.
         -2    1    1    2    0  502 -0.16662517676E+02  0.14790109535E+02  0.44686582100E+03  0.44742088554E+03  0.00000000000E+00 0.  1.
<mgrwt>
<rscale>  2 0.67002253E+02</rscale>
<asrwt>0</asrwt>
<pdfrwt beam="1">  1       21 0.10586436E+00 0.67002253E+02</pdfrwt>
<pdfrwt beam="2">  1       21 0.76621882E-02 0.67002253E+02</pdfrwt>
<totfact> 0.98812246E+04</totfact>
</mgrwt>
</event>
<event>
 5    1  0.1624116E+000  0.7498333E+02  0.7546771E-02  0.1343923E+00
         21   -1    0    0  503  502  0.00000000000E+00  0.00000000000E+00  0.18922701558E+03  0.18922701558E+03  0.00000000000E+00 0. -1.
         21   -1    0    0  501  503 -0.00000000000E+00 -0.00000000000E+00 -0.44753853374E+02  0.44753853374E+02  0.00000000000E+00 0.  1.
         24    1    1    2    0    0  0.11406658225E+02 -0.18910862066E+02  0.90501421581E+02  0.12306687539E+03  0.80419002446E+02 0.  0.
          1    1    1    2  501    0 -0.35963604389E+02  0.21462737274E+02 -0.93823140753E+01  0.42919200241E+02  0.00000000000E+00 0. -1.
         -2    1    1    2    0  502  0.24556946164E+02 -0.25518752084E+01  0.63354054702E+02  0.67994793324E+02  0.00000000000E+00 0.  1.
<mgrwt>
<rscale>  2 0.74983328E+02</rscale>
<asrwt>0</asrwt>
<pdfrwt beam="1">  1       21 0.29111848E-01 0.74983328E+02</pdfrwt>
<pdfrwt beam="2">  1       21 0.68852083E-02 0.74983328E+02</pdfrwt>
<totfact> 0.17218317E+06</totfact>
</mgrwt>
</event>
<event>
 5    1  0.1624116E+000  0.9601986E+02  0.7546771E-02  0.1288895E+00
         21   -1    0    0  501  502  0.00000000000E+00  0.00000000000E+00  0.99245257797E+03  0.99245257797E+03  0.00000000000E+00 0. -1.
         21   -1    0    0  502  503 -0.00000000000E+00 -0.00000000000E+00 -0.66097651400E+02  0.66097651400E+02  0.00000000000E+00 0.  1.
         24    1    1    2    0    0 -0.56454707193E+02  0.46201642819E+02  0.18821390873E+03  0.21728648637E+03  0.80419002446E+02 0.  1.
          1    1    1    2  501    0  0.20629593404E+02  0.47574226069E+01  0.77069000122E+03  0.77098073334E+03  0.00000000000E+00 0. -1.
         -2    1    1    2    0  503  0.35825113789E+02 -0.50959065426E+02 -0.32548983389E+02  0.70283009659E+02  0.00000000000E+00 0.  1.
<mgrwt>
<rscale>  2 0.96019857E+02</rscale>
<asrwt>0</asrwt>
<pdfrwt beam="1">  1       21 0.15268500E+00 0.96019857E+02</pdfrwt>
<pdfrwt beam="2">  1       21 0.10168870E-01 0.96019857E+02</pdfrwt>
<totfact> 0.24284601E+04</totfact>
</mgrwt>
</event>
<event>
 5    1  0.1624116E+000  0.1319626E+03  0.7546771E-02  0.1224572E+00
         21   -1    0    0  501  502  0.00000000000E+00  0.00000000000E+00  0.31756886050E+02  0.31756886050E+02  0.00000000000E+00 0.  1.
         21   -1    0    0  502  503 -0.00000000000E+00 -0.00000000000E+00 -0.17760808929E+04  0.17760808929E+04  0.00000000000E+00 0.  1.
         24    1    1    2    0    0 -0.93953047224E+02 -0.46637038356E+01 -0.23608087949E+03  0.26655266428E+03  0.80419002446E+02 0.  1.
          1    1    1    2  501    0  0.67356127571E+02 -0.46949113329E+02 -0.89884785641E+02  0.12173882640E+03  0.00000000000E+00 0. -1.
         -2    1    1    2    0  503  0.26596919653E+02  0.51612817165E+02 -0.14183583417E+04  0.14195462883E+04  0.00000000000E+00 0.  1.
<mgrwt>
<rscale>  2 0.13196256E+03</rscale>
<asrwt>0</asrwt>
<pdfrwt beam="1">  1       21 0.48856736E-02 0.13196256E+03</pdfrwt>
<pdfrwt beam="2">  1       21 0.27324328E+00 0.13196256E+03</pdfrwt>
<totfact> 0.14566391E+04</totfact>
</mgrwt>
</event>
<event>
 5    1  0.1624116E+000  0.7486479E+02  0.7546771E-02  0.1344290E+00
         21   -1    0    0  503  502  0.00000000000E+00  0.00000000000E+00  0.16700264071E+02  0.16700264071E+02  0.00000000000E+00 0. -1.
         21   -1    0    0  501  503 -0.00000000000E+00 -0.00000000000E+00 -0.54793535451E+03  0.54793535451E+03  0.00000000000E+00 0.  1.
         24    1    1    2    0    0 -0.92956135406E+01 -0.35590058447E+02 -0.18400600281E+03  0.20415309382E+03  0.80419002446E+02 0. -1.
          1    1    1    2  501    0  0.25738685860E+02  0.45033501385E+01 -0.30229714791E+03  0.30342433282E+03  0.00000000000E+00 0. -1.
         -2    1    1    2    0  502 -0.16443072319E+02  0.31086708308E+02 -0.44931939709E+02  0.57058191934E+02  0.00000000000E+00 0.  1.
<mgrwt>
<rscale>  2 0.74864789E+02</rscale>
<asrwt>0</asrwt>
<pdfrwt beam="1">  1       21 0.25692713E-02 0.74864789E+02</pdfrwt>
<pdfrwt beam="2">  1       21 0.84297749E-01 0.74864789E+02</pdfrwt>
<totfact> 0.99761011E+05</totfact>
</mgrwt>
</event>
<event>
 5    1  0.1624116E+000  0.9140867E+02  0.7546771E-02  0.1299476E+00
         21   -1    0    0  501  502  0.00000000000E+00  0.00000000000E+00  0.29808011068E+02  0.29808011068E+02  0.00000000000E+00 0.  1.
         21   -1    0    0  502  503 -0.00000000000E+00 -0.00000000000E+00 -0.41043574293E+03  0.41043574293E+03  0.00000000000E+00 0. -1.
         24    1    1    2    0    0 -0.51449394912E+02  0.18563664498E+02 -0.12850419254E+03  0.16115890708E+03  0.80419002446E+02 0.  0.
          1    1    1    2  501    0  0.25327659424E+01 -0.34132387134E+02 -0.16613984796E+02  0.38045489162E+02  0.00000000000E+00 0. -1.
         -2    1    1    2    0  503  0.48916628970E+02  0.15568722635E+02 -0.23550955452E+03  0.24103935775E+03  0.00000000000E+00 0.  1.
<mgrwt>
<rscale>  2 0.91408670E+02</rscale>
<asrwt>0</asrwt>
<pdfrwt beam="1">  1       21 0.45858480E-02 0.91408670E+02</pdfrwt>
<pdfrwt beam="2">  1       21 0.63143958E-01 0.91408670E+02</pdfrwt>
<totfact> 0.72679294E+05</totfact>
</mgrwt>
</event>
<event>
 5    1  0.2189569E+000  0.1083712E+03  0.7546771E-02  0.1263616E+00
         21   -1    0    0  503  502  0.00000000000E+00  0.00000000000E+00  0.33876733323E+03  0.33876733323E+03  0.00000000000E+00 0.  1.
         21   -1    0    0  501  503 -0.00000000000E+00 -0.00000000000E+00 -0.14001477152E+03  0.14001477152E+03  0.00000000000E+00 0. -1.
         24    1    1    2    0    0 -0.59838716326E+02  0.73250277966E+00  0.16326386445E+03  0.19158161165E+03  0.80419002446E+02 0.  1.
          1    1    1    2  501    0  0.40039849597E+02  0.48819851424E+02 -0.11298429150E+03  0.12942958539E+03  0.00000000000E+00 0. -1.
         -2    1    1    2    0  502  0.19798866730E+02 -0.49552354203E+02  0.14847298875E+03  0.15777090771E+03  0.00000000000E+00 0.  1.
<mgrwt>
<rscale>  2 0.10837121E+03</rscale>
<asrwt>0</asrwt>
<pdfrwt beam="1">  1       21 0.52118051E-01 0.10837121E+03</pdfrwt>
<pdfrwt beam="2">  1       21 0.21540734E-01 0.10837121E+03</pdfrwt>
<totfact> 0.72943595E+04</totfact>
</mgrwt>
</event>
<event>
 5    1  0.1624116E+000  0.7589785E+02  0.7546771E-02  0.1341113E+00
         21   -1    0    0  503  502  0.00000000000E+00  0.00000000000E+00  0.11143451350E+04  0.11143451350E+04  0.00000000000E+00 0.  1.
         21   -1    0    0  501  503 -0.00000000000E+00 -0.00000000000E+00 -0.86794600799E+02  0.86794600799E+02  0.00000000000E+00 0.  1.
         24    1    1    2    0    0  0.18195348484E+02  0.13547081147E+02 -0.48120540350E+02  0.96423008001E+02  0.80419002446E+02 0.  1.
          1    1    1    2  501    0  0.20341023291E+02 -0.20724979197E+02  0.71699362003E+00  0.29048168119E+02  0.00000000000E+00 0. -1.
         -2    1    1    2    0  502 -0.38536371775E+02  0.71778980494E+01  0.10749540809E+04  0.10756685597E+04  0.00000000000E+00 0.  1.
<mgrwt>
<rscale>  2 0.75897852E+02</rscale>
<asrwt>0</asrwt>
<pdfrwt beam="1">  1       21 0.17143770E+00 0.75897852E+02</pdfrwt>
<pdfrwt beam="2">  1       21 0.13353016E-01 0.75897852E+02</pdfrwt>
<totfact> 0.11465994E+04</totfact>
</mgrwt>
</event>
<event>
 5    1  0.1624116E+000  0.8092130E+02  0.7546771E-02  0.1326457E+00
         21   -1    0    0  501  502  0.00000000000E+00  0.00000000000E+00  0.11454521881E+03  0.11454521881E+03  0.00000000000E+00 0. -1.
         21   -1    0    0  502  503 -0.00000000000E+00 -0.00000000000E+00 -0.57771179202E+02  0.57771179202E+02  0.00000000000E+00 0. -1.
         24    1    1    2    0    0  0.20157122602E+02  0.37202757939E+02  0.28155506790E+02  0.95133082084E+02  0.80419002446E+02 0.  0.
          1    1    1    2  501    0  0.20035561940E+02 -0.15211970173E+02  0.15414805665E+02  0.29503288164E+02  0.00000000000E+00 0. -1.
         -2    1    1    2    0  503 -0.40192684542E+02 -0.21990787766E+02  0.13203727158E+02  0.47680027770E+02  0.00000000000E+00 0.  1.
<mgrwt>
<rscale>  2 0.80921299E+02</rscale>
<asrwt>0</asrwt>
<pdfrwt beam="1">  1       21 0.17622341E-01 0.80921299E+02</pdfrwt>
<pdfrwt beam="2">  1       21 0.88878737E-02 0.80921299E+02</pdfrwt>
<totfact> 0.28282310E+06</totfact>
</mgrwt>
</event>
<event>
 5    1  0.1624116E+000  0.8955950E+02  0.7546771E-02  0.1303922E+00
         21   -1    0    0  501  502  0.00000000000E+00  0.00000000000E+00  0.70835534158E+03  0.70835534158E+03  0.00000000000E+00 0. -1.
         21   -1    0    0  502  503 -0.00000000000E+00 -0.00000000000E+00 -0.15043439527E+02  0.15043439527E+02  0.00000000000E+00 0. -1.
         24    1    1    2    0    0 -0.28932209337E+02  0.31927362541E+02  0.53125844610E+03  0.53903541787E+03  0.80419002446E+02 0. -1.
          1    1    1    2  501    0  0.39262726717E+02 -0.52090059255E+02  0.12225597406E+03  0.13856932985E+03  0.00000000000E+00 0. -1.
         -2    1    1    2    0  503 -0.10330517381E+02  0.20162696714E+02  0.39797481896E+02  0.45794033382E+02  0.00000000000E+00 0.  1.
<mgrwt>
<rscale>  2 0.89559496E+02</rscale>
<asrwt>0</asrwt>
<pdfrwt beam="1">  1       21 0.10897772E+00 0.89559496E+02</pdfrwt>
<pdfrwt beam="2">  1       21 0.23143759E-02 0.89559496E+02</pdfrwt>
<totfact> 0.65700035E+05</totfact>
</mgrwt>
</event>
<event>
 5    1  0.1624116E+000  0.1108602E+03  0.7546771E-02  0.1258985E+00
         21   -1    0    0  503  502  0.00000000000E+00  0.00000000000E+00  0.34916678551E+02  0.34916678551E+02  0.00000000000E+00 0. -1.
         21   -1    0    0  501  503 -0.00000000000E+00 -0.00000000000E+00 -0.40278660346E+03  0.40278660346E+03  0.00000000000E+00 0. -1.
         24    1    1    2    0    0 -0.72087245346E+02  0.43774978838E+02 -0.22621226069E+03  0.25446418718E+03  0.80419002446E+02 0. -1.
          1    1    1    2  501    0  0.10218889653E+02 -0.42071863157E+02 -0.99050826762E+02  0.10809964689E+03  0.00000000000E+00 0. -1.
         -2    1    1    2    0  502  0.61868355692E+02 -0.17031156804E+01 -0.42606837449E+02  0.75139447938E+02  0.00000000000E+00 0.  1.
<mgrwt>
<rscale>  2 0.11086016E+03</rscale>
<asrwt>0</asrwt>
<pdfrwt beam="1">  1       21 0.53717963E-02 0.11086016E+03</pdfrwt>
<pdfrwt beam="2">  1       21 0.61967174E-01 0.11086016E+03</pdfrwt>
<totfact> 0.58091905E+05</totfact>
</mgrwt>
</event>
<event>
 5    1  0.1624116E+000  0.1105649E+03  0.7546771E-02  0.1259527E+00
         21   -1    0    0  501  502  0.00000000000E+00  0.00000000000E+00  0.21270959671E+03  0.21270959671E+03  0.00000000000E+00 0. -1.
         21   -1    0    0  502  503 -0.00000000000E+00 -0.00000000000E+00 -0.49721896690E+03  0.49721896690E+03  0.00000000000E+00 0. -1.
         24    1    1    2    0    0 -0.54856244362E+02 -0.35514815351E+02 -0.34731486622E+03  0.36244357065E+03  0.80419002446E+02 0. -1.
          1    1    1    2  501    0 -0.27575939203E+02  0.18861067956E+02  0.19114694246E+03  0.19404464930E+03  0.00000000000E+00 0. -1.
         -2    1    1    2    0  503  0.82432183565E+02  0.16653747396E+02 -0.12834144644E+03  0.15344034367E+03  0.00000000000E+00 0.  1.
<mgrwt>
<rscale>  2 0.11056490E+03</rscale>
<asrwt>0</asrwt>
<pdfrwt beam="1">  1       21 0.32724554E-01 0.11056490E+03</pdfrwt>
<pdfrwt beam="2">  1       21 0.76495225E-01 0.11056490E+03</pdfrwt>
<totfact> 0.14545123E+04</totfact>
</mgrwt>
</event>
<event>
 5    1  0.1624116E+000  0.7130505E+02  0.7546771E-02  0.1355711E+00
         21   -1    0    0  503  502  0.00000000000E+00  0.00000000000E+00  0.81507051541E+02  0.81507051541E+02  0.00000000000E+00 0.  1.
         21   -1    0    0  501  503 -0.00000000000E+00 -0.00000000000E+00 -0.45503051921E+03  0.45503051921E+03  0.00000000000E+00 0. -1.
         24    1    1    2    0    0  0.23143902037E+02  0.42470057697E+02 -0.13803796342E+03  0.16691627033E+03  0.80419002446E+02 0. -1.
          1    1    1    2  501    0 -0.13622615230E+02 -0.18495696396E+02 -0.29961698147E+03  0.30049625957E+03  0.00000000000E+00 0. -1.
         -2    1    1    2    0  502 -0.95212868067E+01 -0.23974361301E+02  0.64131477219E+02  0.69125040850E+02  0.00000000000E+00 0.  1.
<mgrwt>
<rscale>  2 0.71305053E+02</rscale>
<asrwt>0</asrwt>
<pdfrwt beam="1">  1       21 0.12539547E-01 0.71305053E+02</pdfrwt>
<pdfrwt beam="2">  1       21 0.70004693E-01 0.71305053E+02</pdfrwt>
<totfact> 0.10605444E+05</totfact>
</mgrwt>
</event>
