<event>
 5    1  0.1696945E+000  0.7055876E+02  0.7546771E-02  0.1358203E+00
         21   -1    0    0  503  502  0.00000000000E+00  0.00000000000E+00  0.10028509450E+02  0.10028509450E+02  0.00000000000E+00 0. -1.
         21   -1    0    0  501  503 -0.00000000000E+00 -0.00000000000E+00 -0.51764322251E+03  0.51764322251E+03  0.00000000000E+00 0.  1.
         24    1    1    2    0    0  0.18010250456E+02  0.36274291232E+02 -0.32654662859E+03  0.33873309541E+03  0.80419002446E+02 0.  0.
          1    1    1    2  501    0 -0.25382247630E+02 -0.17291735053E+02 -0.13689121048E+03  0.14029421265E+03  0.00000000000E+00 0. -1.
         -2    1    1    2    0  502  0.73719971743E+01 -0.18982556178E+02 -0.44176873985E+02  0.48644423899E+02  0.00000000000E+00 0.  1.
<mgrwt>
<rscale>  2 0.70558760E+02</rscale>
<asrwt>0</asrwt>
<pdfrwt beam="1">  1       21 0.15428474E-02 0.70558760E+02</pdfrwt>
<pdfrwt beam="2">  1       21 0.79637427E-01 0.70558760E+02</pdfrwt>
<totfact> 0.25402532E+06</totfact>
</mgrwt>
</event>
<event>
 5    1  0.1696945E+000  0.9364286E+02  0.7546771E-02  0.1294262E+00
         21   -1    0    0  501  502  0.00000000000E+00  0.00000000000E+00  0.13312030004E+04  0.13312030004E+04  0.00000000000E+00 0.  1.
         21   -1    0    0  502  503 -0.00000000000E+00 -0.00000000000E+00 -0.69346087566E+01  0.69346087566E+01  0.00000000000E+00 0. -1.
         24    1    1    2    0    0 -0.59372915109E+01  0.60124911489E+00  0.71768750603E+03  0.72220370063E+03  0.80419002446E+02 0.  1.
          1    1    1    2  501    0  0.19187629262E+02  0.50411731781E+02  0.32926005321E+03  0.33364905283E+03  0.00000000000E+00 0. -1.
         -2    1    1    2    0  503 -0.13250337751E+02 -0.51012980896E+02  0.27732083240E+03  0.28228485569E+03  0.00000000000E+00 0.  1.
<mgrwt>
<rscale>  2 0.93642860E+02</rscale>
<asrwt>0</asrwt>
<pdfrwt beam="1">  1       21 0.20480026E+00 0.93642860E+02</pdfrwt>
<pdfrwt beam="2">  1       21 0.10668639E-02 0.93642860E+02</pdfrwt>
<totfact> 0.44298952E+05</totfact>
</mgrwt>
</event>
<event>
 5    1  0.1696945E+000  0.1161925E+03  0.7546771E-02  0.1249514E+00
         21   -1    0    0  503  502  0.00000000000E+00  0.00000000000E+00  0.86976255262E+03  0.86976255262E+03  0.00000000000E+00 0.  1.
         21   -1    0    0  501  503 -0.00000000000E+00 -0.00000000000E+00 -0.16707645366E+02  0.16707645366E+02  0.00000000000E+00 0.  1.
         24    1    1    2    0    0 -0.51901611545E+02  0.25262400074E+02  0.48002532646E+03  0.49012600026E+03  0.80419002446E+02 0.  1.
          1    1    1    2  501    0  0.14455046825E+02 -0.72039112284E+02  0.22295973961E+03  0.23475439839E+03  0.00000000000E+00 0. -1.
         -2    1    1    2    0  502  0.37446564720E+02  0.46776712211E+02  0.15006984119E+03  0.16158979934E+03  0.00000000000E+00 0.  1.
<mgrwt>
<rscale>  2 0.11619251E+03</rscale>
<asrwt>0</asrwt>
<pdfrwt beam="1">  1       21 0.13380959E+00 0.11619251E+03</pdfrwt>
<pdfrwt beam="2">  1       21 0.25704076E-02 0.11619251E+03</pdfrwt>
<totfact> 0.33553885E+05</totfact>
</mgrwt>
</event>
<event>
 5    1  0.1696945E+000  0.8922126E+02  0.7546771E-02  0.1304749E+00
         21   -1    0    0  503  502  0.00000000000E+00  0.00000000000E+00  0.30249834675E+03  0.30249834675E+03  0.00000000000E+00 0.  1.
         21   -1    0    0  501  503 -0.00000000000E+00 -0.00000000000E+00 -0.70689069796E+03  0.70689069796E+03  0.00000000000E+00 0.  1.
         24    1    1    2    0    0  0.87858919935E+01 -0.32445599835E+02 -0.61062961344E+03  0.61681897637E+03  0.80419002446E+02 0.  1.
          1    1    1    2  501    0 -0.12289113798E+02 -0.28081429556E+02 -0.87462234853E+02  0.92678107066E+02  0.00000000000E+00 0. -1.
         -2    1    1    2    0  502  0.35032218048E+01  0.60527029391E+02  0.29369949709E+03  0.29989196128E+03  0.00000000000E+00 0.  1.
<mgrwt>
<rscale>  2 0.89221264E+02</rscale>
<asrwt>0</asrwt>
<pdfrwt beam="1">  1       21 0.46538208E-01 0.89221264E+02</pdfrwt>
<pdfrwt beam="2">  1       21 0.10875241E+00 0.89221264E+02</pdfrwt>
<totfact> 0.33433317E+03</totfact>
</mgrwt>
</event>
<event>
 5    1  0.1696945E+000  0.1183354E+03  0.7546771E-02  0.1245869E+00
         21   -1    0    0  501  502  0.00000000000E+00  0.00000000000E+00  0.28477588333E+03  0.28477588333E+03  0.00000000000E+00 0.  1.
         21   -1    0    0  502  503 -0.00000000000E+00 -0.00000000000E+00 -0.12642298638E+03  0.12642298638E+03  0.00000000000E+00 0.  1.
         24    1    1    2    0    0  0.53407712469E+02  0.70966818013E+02  0.19691569224E+03  0.23050309936E+03  0.80419002446E+02 0.  1.
          1    1    1    2  501    0 -0.72502391211E+02 -0.63408752756E+02  0.36402890215E+02  0.10296813620E+03  0.00000000000E+00 0. -1.
         -2    1    1    2    0  503  0.19094678743E+02 -0.75580652564E+01 -0.74965685501E+02  0.77727634142E+02  0.00000000000E+00 0.  1.
<mgrwt>
<rscale>  2 0.11833536E+03</rscale>
<asrwt>0</asrwt>
<pdfrwt beam="1">  1       21 0.43811674E-01 0.11833536E+03</pdfrwt>
<pdfrwt beam="2">  1       21 0.19449690E-01 0.11833536E+03</pdfrwt>
<totfact> 0.12497743E+05</totfact>
</mgrwt>
</event>
<event>
 5    1  0.1696945E+000  0.7245384E+02  0.7546771E-02  0.1351942E+00
         21   -1    0    0  503  502  0.00000000000E+00  0.00000000000E+00  0.72190125062E+01  0.72190125062E+01  0.00000000000E+00 0. -1.
         21   -1    0    0  501  503 -0.00000000000E+00 -0.00000000000E+00 -0.10611394948E+04  0.10611394948E+04  0.00000000000E+00 0. -1.
         24    1    1    2    0    0 -0.15900414501E+02 -0.45792061010E+02 -0.73134219342E+03  0.73734547931E+03  0.80419002446E+02 0. -1.
          1    1    1    2  501    0  0.11484473939E+01  0.27435186018E+02 -0.28722264591E+03  0.28853224549E+03  0.00000000000E+00 0. -1.
         -2    1    1    2    0  502  0.14751967107E+02  0.18356874992E+02 -0.35355642978E+02  0.42480782519E+02  0.00000000000E+00 0.  1.
<mgrwt>
<rscale>  2 0.72453844E+02</rscale>
<asrwt>0</asrwt>
<pdfrwt beam="1">  1       21 0.11106173E-02 0.72453844E+02</pdfrwt>
<pdfrwt beam="2">  1       21 0.16325223E+00 0.72453844E+02</pdfrwt>
<totfact> 0.77752800E+05</totfact>
</mgrwt>
</event>
<event>
 5    1  0.1696945E+000  0.6717195E+02  0.7546771E-02  0.1369983E+00
         21   -1    0    0  503  502  0.00000000000E+00  0.00000000000E+00  0.24406157439E+02  0.24406157439E+02  0.00000000000E+00 0.  1.
         21   -1    0    0  501  503 -0.00000000000E+00 -0.00000000000E+00 -0.52823294471E+03  0.52823294471E+03  0.00000000000E+00 0.  1.
         24    1    1    2    0    0  0.53630046615E+01 -0.39776190639E+02 -0.49887227203E+03  0.50690400168E+03  0.80419002446E+02 0.  1.
          1    1    1    2  501    0 -0.11865751439E+02  0.16670330481E+02 -0.70447229372E+01  0.21640797047E+02  0.00000000000E+00 0. -1.
         -2    1    1    2    0  502  0.65027467778E+01  0.23105860157E+02  0.20902076982E+01  0.24094303424E+02  0.00000000000E+00 0.  1.
<mgrwt>
<rscale>  2 0.67171955E+02</rscale>
<asrwt>0</asrwt>
<pdfrwt beam="1">  1       21 0.37547934E-02 0.67171955E+02</pdfrwt>
<pdfrwt beam="2">  1       21 0.81266608E-01 0.67171955E+02</pdfrwt>
<totfact> 0.58464364E+05</totfact>
</mgrwt>
</event>
<event>
 5    1  0.1696945E+000  0.1098815E+03  0.7546771E-02  0.1260790E+00
         21   -1    0    0  503  502  0.00000000000E+00  0.00000000000E+00  0.45114979813E+02  0.45114979813E+02  0.00000000000E+00 0. -1.
         21   -1    0    0  501  503 -0.00000000000E+00 -0.00000000000E+00 -0.46621377750E+03  0.46621377750E+03  0.00000000000E+00 0.  1.
         24    1    1    2    0    0  0.38056191960E+02 -0.43825701967E+02 -0.48162538375E+02  0.11025339884E+03  0.80419002446E+02 0. -1.
          1    1    1    2  501    0 -0.46224681994E+02 -0.24127754846E+02 -0.28454713414E+03  0.28928522487E+03  0.00000000000E+00 0. -1.
         -2    1    1    2    0  502  0.81684900340E+01  0.67953456813E+02 -0.88389125172E+02  0.11179013360E+03  0.00000000000E+00 0.  1.
<mgrwt>
<rscale>  2 0.10988148E+03</rscale>
<asrwt>0</asrwt>
<pdfrwt beam="1">  1       21 0.69407653E-02 0.10988148E+03</pdfrwt>
<pdfrwt beam="2">  1       21 0.71725205E-01 0.10988148E+03</pdfrwt>
<totfact> 0.27499388E+05</totfact>
</mgrwt>
</event>
<event>
 5    1  0.1696945E+000  0.1029002E+03  0.7546771E-02  0.1274313E+00
         21   -1    0    0  503  502  0.00000000000E+00  0.00000000000E+00  0.20419884915E+03  0.20419884915E+03  0.00000000000E+00 0. -1.
         21   -1    0    0  501  503 -0.00000000000E+00 -0.00000000000E+00 -0.88041490097E+02  0.88041490097E+02  0.00000000000E+00 0.  1.
         24    1    1    2    0    0  0.75064484380E+02  0.13284761095E+02 -0.25860032725E+02  0.11378540741E+03  0.80419002446E+02 0.  0.
          1    1    1    2  501    0 -0.38146933487E+02  0.21906247462E+02  0.24511641907E+02  0.50357648885E+02  0.00000000000E+00 0. -1.
         -2    1    1    2    0  502 -0.36917550893E+02 -0.35191008557E+02  0.11750574987E+03  0.12809728295E+03  0.00000000000E+00 0.  1.
<mgrwt>
<rscale>  2 0.10290018E+03</rscale>
<asrwt>0</asrwt>
<pdfrwt beam="1">  1       21 0.31415207E-01 0.10290018E+03</pdfrwt>
<pdfrwt beam="2">  1       21 0.13544845E-01 0.10290018E+03</pdfrwt>
<totfact> 0.46472179E+05</totfact>
</mgrwt>
</event>
<event>
 5    1  0.1696945E+000  0.9233342E+02  0.7546771E-02  0.1297297E+00
         21   -1    0    0  501  502  0.00000000000E+00  0.00000000000E+00  0.29588786334E+03  0.29588786334E+03  0.00000000000E+00 0.  1.
         21   -1    0    0  502  503 -0.00000000000E+00 -0.00000000000E+00 -0.41337697915E+02  0.41337697915E+02  0.00000000000E+00 0.  1.
         24    1    1    2    0    0  0.20964326164E+02  0.45169230712E+02  0.21930450355E+03  0.23883350604E+03  0.80419002446E+02 0.  1.
          1    1    1    2  501    0 -0.44245034377E+02 -0.49506951824E+02  0.34200616439E+02  0.74687639611E+02  0.00000000000E+00 0. -1.
         -2    1    1    2    0  503  0.23280708212E+02  0.43377211120E+01  0.10450454381E+01  0.23704415607E+02  0.00000000000E+00 0.  1.
<mgrwt>
<rscale>  2 0.92333417E+02</rscale>
<asrwt>0</asrwt>
<pdfrwt beam="1">  1       21 0.45521208E-01 0.92333417E+02</pdfrwt>
<pdfrwt beam="2">  1       21 0.63596460E-02 0.92333417E+02</pdfrwt>
<totfact> 0.82722592E+05</totfact>
</mgrwt>
</event>
<event>
 5    1  0.1696945E+000  0.9749396E+02  0.7546771E-02  0.1285656E+00
         21   -1    0    0  501  502  0.00000000000E+00  0.00000000000E+00  0.17473054640E+04  0.17473054640E+04  0.00000000000E+00 0. -1.
         21   -1    0    0  502  503 -0.00000000000E+00 -0.00000000000E+00 -0.26950324133E+02  0.26950324133E+02  0.00000000000E+00 0.  1.
         24    1    1    2    0    0  0.52498432167E+02  0.18173539979E+02  0.14706183920E+04  0.14738629630E+04  0.80419002446E+02 0. -1.
          1    1    1    2  501    0  0.15835334287E+02 -0.23902442939E+02  0.22602372165E+03  0.22783504414E+03  0.00000000000E+00 0. -1.
         -2    1    1    2    0  503 -0.68333766454E+02  0.57289029593E+01  0.23713026221E+02  0.72557780971E+02  0.00000000000E+00 0.  1.
<mgrwt>
<rscale>  2 0.97493961E+02</rscale>
<asrwt>0</asrwt>
<pdfrwt beam="1">  1       21 0.26881614E+00 0.97493961E+02</pdfrwt>
<pdfrwt beam="2">  1       21 0.41462051E-02 0.97493961E+02</pdfrwt>
<totfact> 0.21332054E+04</totfact>
</mgrwt>
</event>
<event>
 5    1  0.1696945E+000  0.7830706E+02  0.7546771E-02  0.1333926E+00
         21   -1    0    0  501  502  0.00000000000E+00  0.00000000000E+00  0.12587450693E+03  0.12587450693E+03  0.00000000000E+00 0.  1.
         21   -1    0    0  502  503 -0.00000000000E+00 -0.00000000000E+00 -0.92605070724E+02  0.92605070724E+02  0.00000000000E+00 0.  1.
         24    1    1    2    0    0 -0.36182544027E+02 -0.44437888363E+02  0.60883371066E+02  0.11600820334E+03  0.80419002446E+02 0.  1.
          1    1    1    2  501    0  0.98330511530E+01  0.18170920072E+02  0.28464994201E+02  0.35172818000E+02  0.00000000000E+00 0. -1.
         -2    1    1    2    0  503  0.26349492874E+02  0.26266968291E+02 -0.56078929061E+02  0.67298556318E+02  0.00000000000E+00 0.  1.
<mgrwt>
<rscale>  2 0.78307058E+02</rscale>
<asrwt>0</asrwt>
<pdfrwt beam="1">  1       21 0.19365309E-01 0.78307058E+02</pdfrwt>
<pdfrwt beam="2">  1       21 0.14246934E-01 0.78307058E+02</pdfrwt>
<totfact> 0.10471427E+06</totfact>
</mgrwt>
</event>
<event>
 5    1  0.1696945E+000  0.6224155E+02  0.7546771E-02  0.1388659E+00
         21   -1    0    0  501  502  0.00000000000E+00  0.00000000000E+00  0.76301527832E+02  0.76301527832E+02  0.00000000000E+00 0.  1.
         21   -1    0    0  502  503 -0.00000000000E+00 -0.00000000000E+00 -0.68011715996E+02  0.68011715996E+02  0.00000000000E+00 0.  1.
         24    1    1    2    0    0 -0.71825820387E-01  0.12719454541E+02  0.27021534072E+02  0.85785598679E+02  0.80419002446E+02 0.  1.
          1    1    1    2  501    0  0.20379831755E+02 -0.95651423761E+01  0.87996591727E+01  0.24171543033E+02  0.00000000000E+00 0. -1.
         -2    1    1    2    0  503 -0.20308005935E+02 -0.31543121654E+01 -0.27531381409E+02  0.34356102115E+02  0.00000000000E+00 0.  1.
<mgrwt>
<rscale>  2 0.62241548E+02</rscale>
<asrwt>0</asrwt>
<pdfrwt beam="1">  1       21 0.11738697E-01 0.62241548E+02</pdfrwt>
<pdfrwt beam="2">  1       21 0.10463341E-01 0.62241548E+02</pdfrwt>
<totfact> 0.43072206E+06</totfact>
</mgrwt>
</event>
<event>
 5    1  0.1696945E+000  0.1079113E+03  0.7546771E-02  0.1264487E+00
         21   -1    0    0  501  502  0.00000000000E+00  0.00000000000E+00  0.50600124828E+03  0.50600124828E+03  0.00000000000E+00 0. -1.
         21   -1    0    0  502  503 -0.00000000000E+00 -0.00000000000E+00 -0.76182606736E+02  0.76182606736E+02  0.00000000000E+00 0.  1.
         24    1    1    2    0    0 -0.54012252342E+02 -0.16038596943E+02  0.52533111211E+02  0.11136203897E+03  0.80419002446E+02 0.  1.
          1    1    1    2  501    0 -0.23693744983E+02 -0.20897170589E+02  0.38327605190E+03  0.38457589271E+03  0.00000000000E+00 0. -1.
         -2    1    1    2    0  503  0.77705997325E+02  0.36935767531E+02 -0.59905215750E+01  0.86245923336E+02  0.00000000000E+00 0.  1.
<mgrwt>
<rscale>  2 0.10791133E+03</rscale>
<asrwt>0</asrwt>
<pdfrwt beam="1">  1       21 0.77846344E-01 0.10791133E+03</pdfrwt>
<pdfrwt beam="2">  1       21 0.11720401E-01 0.10791133E+03</pdfrwt>
<totfact> 0.92865188E+04</totfact>
</mgrwt>
</event>
<event>
 5    1  0.1696945E+000  0.1626571E+03  0.7546771E-02  0.1185729E+00
         21   -1    0    0  503  502  0.00000000000E+00  0.00000000000E+00  0.42649176481E+03  0.42649176481E+03  0.00000000000E+00 0. -1.
         21   -1    0    0  501  503 -0.00000000000E+00 -0.00000000000E+00 -0.10196126425E+03  0.10196126425E+03  0.00000000000E+00 0. -1.
         24    1    1    2    0    0  0.69633308453E+02 -0.10365976521E+03  0.26728690168E+03  0.30578366264E+03  0.80419002446E+02 0. -1.
          1    1    1    2  501    0 -0.87057333412E+02  0.12303864842E+03 -0.94961742831E+01  0.15102207002E+03  0.00000000000E+00 0. -1.
         -2    1    1    2    0  502  0.17424024958E+02 -0.19378883213E+02  0.66739773161E+02  0.71647296403E+02  0.00000000000E+00 0.  1.
<mgrwt>
<rscale>  2 0.16265708E+03</rscale>
<asrwt>0</asrwt>
<pdfrwt beam="1">  1       21 0.65614117E-01 0.16265708E+03</pdfrwt>
<pdfrwt beam="2">  1       21 0.15686349E-01 0.16265708E+03</pdfrwt>
<totfact> 0.78214190E+04</totfact>
</mgrwt>
</event>
<event>
 5    1  0.1696945E+000  0.6845008E+02  0.7546771E-02  0.1365444E+00
         21   -1    0    0  501  502  0.00000000000E+00  0.00000000000E+00  0.20856383026E+03  0.20856383026E+03  0.00000000000E+00 0. -1.
         21   -1    0    0  502  503 -0.00000000000E+00 -0.00000000000E+00 -0.12310224976E+03  0.12310224976E+03  0.00000000000E+00 0.  1.
         24    1    1    2    0    0  0.25491694981E+02 -0.36874745717E+02 -0.81258013034E+02  0.12279924276E+03  0.80419002446E+02 0.  1.
          1    1    1    2  501    0 -0.12616441574E+02  0.17841241856E+02  0.18066858865E+03  0.18198522861E+03  0.00000000000E+00 0. -1.
         -2    1    1    2    0  503 -0.12875253406E+02  0.19033503861E+02 -0.13948995112E+02  0.26881608660E+02  0.00000000000E+00 0.  1.
<mgrwt>
<rscale>  2 0.68450080E+02</rscale>
<asrwt>0</asrwt>
<pdfrwt beam="1">  1       21 0.32086743E-01 0.68450080E+02</pdfrwt>
<pdfrwt beam="2">  1       21 0.18938808E-01 0.68450080E+02</pdfrwt>
<totfact> 0.24579620E+05</totfact>
</mgrwt>
</event>
<event>
 5    1  0.1696945E+000  0.8345545E+02  0.7546771E-02  0.1319522E+00
         21   -1    0    0  503  502  0.00000000000E+00  0.00000000000E+00  0.33886302434E+03  0.33886302434E+03  0.00000000000E+00 0.  1.
         21   -1    0    0  501  503 -0.00000000000E+00 -0.00000000000E+00 -0.11482978404E+03  0.11482978404E+03  0.00000000000E+00 0. -1.
         24    1    1    2    0    0 -0.21736343452E+02 -0.12978380684E+02 -0.41545138997E+02  0.93990007556E+02  0.80419002446E+02 0.  0.
          1    1    1    2  501    0  0.35866219020E+02 -0.23905874091E+02 -0.35625577953E+02  0.55920106289E+02  0.00000000000E+00 0. -1.
         -2    1    1    2    0  502 -0.14129875569E+02  0.36884254775E+02  0.30120395726E+03  0.30378269454E+03  0.00000000000E+00 0.  1.
<mgrwt>
<rscale>  2 0.83455449E+02</rscale>
<asrwt>0</asrwt>
<pdfrwt beam="1">  1       21 0.52132772E-01 0.83455449E+02</pdfrwt>
<pdfrwt beam="2">  1       21 0.17666121E-01 0.83455449E+02</pdfrwt>
<totfact> 0.10621253E+05</totfact>
</mgrwt>
</event>
<event>
 5    1  0.1696945E+000  0.8170662E+02  0.7546771E-02  0.1324277E+00
         21   -1    0    0  501  502  0.00000000000E+00  0.00000000000E+00  0.23488360786E+03  0.23488360786E+03  0.00000000000E+00 0. -1.
         21   -1    0    0  502  503 -0.00000000000E+00 -0.00000000000E+00 -0.11749601513E+03  0.11749601513E+03  0.00000000000E+00 0. -1.
         24    1    1    2    0    0 -0.10198771077E+02  0.42677787864E+02 -0.79506340891E+02  0.12130079433E+03  0.80419002446E+02 0. -1.
          1    1    1    2  501    0  0.30930158179E+02 -0.40494915675E+02  0.20304736226E+03  0.20934360320E+03  0.00000000000E+00 0. -1.
         -2    1    1    2    0  503 -0.20731387101E+02 -0.21828721886E+01 -0.61534286311E+01  0.21735225466E+02  0.00000000000E+00 0.  1.
<mgrwt>
<rscale>  2 0.81706624E+02</rscale>
<asrwt>0</asrwt>
<pdfrwt beam="1">  1       21 0.36135940E-01 0.81706624E+02</pdfrwt>
<pdfrwt beam="2">  1       21 0.18076310E-01 0.81706624E+02</pdfrwt>
<totfact> 0.21196163E+05</totfact>
</mgrwt>
</event>
<event>
 5    1  0.1696945E+000  0.9026243E+02  0.7546771E-02  0.1302217E+00
         21   -1    0    0  503  502  0.00000000000E+00  0.00000000000E+00  0.75310516420E+03  0.75310516420E+03  0.00000000000E+00 0.  1.
         21   -1    0    0  501  503 -0.00000000000E+00 -0.00000000000E+00 -0.51614551509E+02  0.51614551509E+02  0.00000000000E+00 0.  1.
         24    1    1    2    0    0  0.55760715107E+02  0.21254599220E+02  0.65871695412E+02  0.11986372073E+03  0.80419002446E+02 0.  1.
          1    1    1    2  501    0 -0.27452763328E+02  0.17377421026E+02 -0.12616270540E+02  0.34853970480E+02  0.00000000000E+00 0. -1.
         -2    1    1    2    0  502 -0.28307951778E+02 -0.38632020246E+02  0.64823518782E+03  0.65000202450E+03  0.00000000000E+00 0.  1.
<mgrwt>
<rscale>  2 0.90262426E+02</rscale>
<asrwt>0</asrwt>
<pdfrwt beam="1">  1       21 0.11586233E+00 0.90262426E+02</pdfrwt>
<pdfrwt beam="2">  1       21 0.79407008E-02 0.90262426E+02</pdfrwt>
<totfact> 0.73977983E+04</totfact>
</mgrwt>
</event>
<event>
 5    1  0.1696945E+000  0.6477336E+02  0.7546771E-02  0.1378826E+00
         21   -1    0    0  501  502  0.00000000000E+00  0.00000000000E+00  0.29390911011E+02  0.29390911011E+02  0.00000000000E+00 0.  1.
         21   -1    0    0  502  503 -0.00000000000E+00 -0.00000000000E+00 -0.16156383313E+03  0.16156383313E+03  0.00000000000E+00 0. -1.
         24    1    1    2    0    0 -0.23985734782E+02  0.51080134517E+01 -0.52960767834E+02  0.99365316677E+02  0.80419002446E+02 0.  1.
          1    1    1    2  501    0  0.10950186558E+02  0.16755877515E+02 -0.28237039508E+02  0.34612084842E+02  0.00000000000E+00 0. -1.
         -2    1    1    2    0  503  0.13035548224E+02 -0.21863890966E+02 -0.50975114775E+02  0.56977342620E+02  0.00000000000E+00 0.  1.
<mgrwt>
<rscale>  2 0.64773357E+02</rscale>
<asrwt>0</asrwt>
<pdfrwt beam="1">  1       21 0.45216788E-02 0.64773357E+02</pdfrwt>
<pdfrwt beam="2">  1       21 0.24855974E-01 0.64773357E+02</pdfrwt>
<totfact> 0.46150986E+06</totfact>
</mgrwt>
</event>
<event>
 5    1  0.1696945E+000  0.1008155E+03  0.7546771E-02  0.1278590E+00
         21   -1    0    0  503  502  0.00000000000E+00  0.00000000000E+00  0.69334142996E+02  0.69334142996E+02  0.00000000000E+00 0. -1.
         21   -1    0    0  501  503 -0.00000000000E+00 -0.00000000000E+00 -0.20329291913E+03  0.20329291913E+03  0.00000000000E+00 0. -1.
         24    1    1    2    0    0  0.22820747983E+02 -0.16319298560E+02 -0.61570242658E+02  0.10509622628E+03  0.80419002446E+02 0.  1.
          1    1    1    2  501    0 -0.35074831825E+02  0.60870505555E+02 -0.93317702965E+02  0.11680606132E+03  0.00000000000E+00 0. -1.
         -2    1    1    2    0  502  0.12254083842E+02 -0.44551206995E+02  0.20929169485E+02  0.50724774527E+02  0.00000000000E+00 0.  1.
<mgrwt>
<rscale>  2 0.10081546E+03</rscale>
<asrwt>0</asrwt>
<pdfrwt beam="1">  1       21 0.10666791E-01 0.10081546E+03</pdfrwt>
<pdfrwt beam="2">  1       21 0.31275833E-01 0.10081546E+03</pdfrwt>
<totfact> 0.71383089E+05</totfact>
</mgrwt>
</event>
<event>
 5    1  0.1696945E+000  0.7219100E+02  0.7546771E-02  0.1352797E+00
         21   -1    0    0  503  502  0.00000000000E+00  0.00000000000E+00  0.11350732374E+03  0.11350732374E+03  0.00000000000E+00 0.  1.
         21   -1    0    0  501  503 -0.00000000000E+00 -0.00000000000E+00 -0.11537539062E+03  0.11537539062E+03  0.00000000000E+00 0.  1.
         24    1    1    2    0    0 -0.38887155357E+02 -0.30949408953E+02 -0.75755786531E+01  0.94840297936E+02  0.80419002446E+02 0.  1.
          1    1    1    2  501    0  0.18491781275E+02  0.12304842932E+02 -0.59344271634E+02  0.63364798667E+02  0.00000000000E+00 0. -1.
         -2    1    1    2    0  502  0.20395374082E+02  0.18644566021E+02  0.65051783417E+02  0.70677617757E+02  0.00000000000E+00 0.  1.
<mgrwt>
<rscale>  2 0.72191004E+02</rscale>
<asrwt>0</asrwt>
<pdfrwt beam="1">  1       21 0.17462665E-01 0.72191004E+02</pdfrwt>
<pdfrwt beam="2">  1       21 0.17750060E-01 0.72191004E+02</pdfrwt>
<totfact> 0.85097275E+05</totfact>
</mgrwt>
</event>
<event>
 5    1  0.1696945E+000  0.6826574E+02  0.7546771E-02  0.1366092E+00
         21   -1    0    0  501  502  0.00000000000E+00  0.00000000000E+00  0.10237003638E+03  0.10237003638E+03  0.00000000000E+00 0. -1.
         21   -1    0    0  502  503 -0.00000000000E+00 -0.00000000000E+00 -0.18710116793E+03  0.18710116793E+03  0.00000000000E+00 0. -1.
         24    1    1    2    0    0 -0.46471045926E+01 -0.38442397710E+00 -0.88561532570E+02  0.11971676728E+03  0.80419002446E+02 0. -1.
          1    1    1    2  501    0 -0.25472170573E+02  0.34405727997E+01  0.81996371943E+02  0.85930634972E+02  0.00000000000E+00 0. -1.
         -2    1    1    2    0  503  0.30119275166E+02 -0.30561488226E+01 -0.78165970924E+02  0.83823802064E+02  0.00000000000E+00 0.  1.
<mgrwt>
<rscale>  2 0.68265744E+02</rscale>
<asrwt>0</asrwt>
<pdfrwt beam="1">  1       21 0.15749237E-01 0.68265744E+02</pdfrwt>
<pdfrwt beam="2">  1       21 0.28784795E-01 0.68265744E+02</pdfrwt>
<totfact> 0.42024880E+05</totfact>
</mgrwt>
</event>
<event>
 5    1  0.1696945E+000  0.7809299E+02  0.7546771E-02  0.1334552E+00
         21   -1    0    0  501  502  0.00000000000E+00  0.00000000000E+00  0.42851975465E+03  0.42851975465E+03  0.00000000000E+00 0. -1.
         21   -1    0    0  502  503 -0.00000000000E+00 -0.00000000000E+00 -0.20462822805E+02  0.20462822805E+02  0.00000000000E+00 0. -1.
         24    1    1    2    0    0  0.16199089661E+02  0.44046370265E+02  0.35325020618E+03  0.36531550386E+03  0.80419002446E+02 0. -1.
          1    1    1    2  501    0  0.14043467381E+02 -0.19996709687E+02  0.18525622327E+02  0.30664084154E+02  0.00000000000E+00 0. -1.
         -2    1    1    2    0  503 -0.30242557042E+02 -0.24049660579E+02  0.36281103341E+02  0.53002989444E+02  0.00000000000E+00 0.  1.
<mgrwt>
<rscale>  2 0.78092991E+02</rscale>
<asrwt>0</asrwt>
<pdfrwt beam="1">  1       21 0.65926109E-01 0.78092991E+02</pdfrwt>
<pdfrwt beam="2">  1       21 0.31481269E-02 0.78092991E+02</pdfrwt>
<totfact> 0.12260465E+06</totfact>
</mgrwt>
</event>
<event>
 5    1  0.1696945E+000  0.6778353E+02  0.7546771E-02  0.1367797E+00
         21   -1    0    0  503  502  0.00000000000E+00  0.00000000000E+00  0.37393710933E+03  0.37393710933E+03  0.00000000000E+00 0.  1.
         21   -1    0    0  501  503 -0.00000000000E+00 -0.00000000000E+00 -0.57173192305E+02  0.57173192305E+02  0.00000000000E+00 0. -1.
         24    1    1    2    0    0  0.29105541899E+02 -0.11173429103E+01  0.14167691749E+03  0.16549303891E+03  0.80419002446E+02 0. -1.
          1    1    1    2  501    0 -0.15078861359E+02 -0.19777133149E+02 -0.41063067978E+02  0.48007109966E+02  0.00000000000E+00 0. -1.
         -2    1    1    2    0  502 -0.14026680540E+02  0.20894476060E+02  0.21615006752E+03  0.21761015276E+03  0.00000000000E+00 0.  1.
<mgrwt>
<rscale>  2 0.67783526E+02</rscale>
<asrwt>0</asrwt>
<pdfrwt beam="1">  1       21 0.57528785E-01 0.67783526E+02</pdfrwt>
<pdfrwt beam="2">  1       21 0.87958760E-02 0.67783526E+02</pdfrwt>
<totfact> 0.29594147E+05</totfact>
</mgrwt>
</event>
<event>
 5    1  0.1696945E+000  0.1196213E+03  0.7546771E-02  0.1243723E+00
         21   -1    0    0  501  502  0.00000000000E+00  0.00000000000E+00  0.59081927716E+03  0.59081927716E+03  0.00000000000E+00 0. -1.
         21   -1    0    0  502  503 -0.00000000000E+00 -0.00000000000E+00 -0.50280420345E+02  0.50280420345E+02  0.00000000000E+00 0.  1.
         24    1    1    2    0    0  0.12610862887E+01 -0.95615516760E+02  0.63485724064E+02  0.14014838743E+03  0.80419002446E+02 0.  1.
          1    1    1    2  501    0 -0.30909340150E+02  0.63294650988E+02  0.43334176778E+03  0.43902925626E+03  0.00000000000E+00 0. -1.
         -2    1    1    2    0  503  0.29648253861E+02  0.32320865772E+02  0.43711364975E+02  0.61922053820E+02  0.00000000000E+00 0.  1.
<mgrwt>
<rscale>  2 0.11962133E+03</rscale>
<asrwt>0</asrwt>
<pdfrwt beam="1">  1       21 0.90895268E-01 0.11962133E+03</pdfrwt>
<pdfrwt beam="2">  1       21 0.77354497E-02 0.11962133E+03</pdfrwt>
<totfact> 0.13425606E+05</totfact>
</mgrwt>
</event>
<event>
 5    1  0.1696945E+000  0.1187186E+03  0.7546771E-02  0.1245226E+00
         21   -1    0    0  501  502  0.00000000000E+00  0.00000000000E+00  0.50910988199E+02  0.50910988199E+02  0.00000000000E+00 0.  1.
         21   -1    0    0  502  503 -0.00000000000E+00 -0.00000000000E+00 -0.65130618883E+03  0.65130618883E+03  0.00000000000E+00 0.  1.
         24    1    1    2    0    0  0.64008626328E+02 -0.64669103785E+02 -0.14609985923E+03  0.18997784621E+03  0.80419002446E+02 0.  1.
          1    1    1    2  501    0 -0.40783881213E+02  0.78862441672E+02 -0.40560699621E+02  0.97610347950E+02  0.00000000000E+00 0. -1.
         -2    1    1    2    0  503 -0.23224745115E+02 -0.14193337887E+02 -0.41373464178E+03  0.41462898287E+03  0.00000000000E+00 0.  1.
<mgrwt>
<rscale>  2 0.11871862E+03</rscale>
<asrwt>0</asrwt>
<pdfrwt beam="1">  1       21 0.78324598E-02 0.11871862E+03</pdfrwt>
<pdfrwt beam="2">  1       21 0.10020095E+00 0.11871862E+03</pdfrwt>
<totfact> 0.10497111E+05</totfact>
</mgrwt>
</event>
<event>
 5    1  0.1696945E+000  0.9460154E+02  0.7546771E-02  0.1292076E+00
         21   -1    0    0  503  502  0.00000000000E+00  0.00000000000E+00  0.99802847816E+03  0.99802847816E+03  0.00000000000E+00 0.  1.
         21   -1    0    0  501  503 -0.00000000000E+00 -0.00000000000E+00 -0.11494423124E+02  0.11494423124E+02  0.00000000000E+00 0. -1.
         24    1    1    2    0    0  0.40312933871E+02  0.52553824265E+02  0.32030408451E+03  0.33682185142E+03  0.80419002446E+02 0. -1.
          1    1    1    2  501    0  0.12699747362E+02 -0.16869060326E+02  0.71642364504E+02  0.74689203846E+02  0.00000000000E+00 0. -1.
         -2    1    1    2    0  502 -0.53012681234E+02 -0.35684763939E+02  0.59458760602E+03  0.59801184602E+03  0.00000000000E+00 0.  1.
<mgrwt>
<rscale>  2 0.94601539E+02</rscale>
<asrwt>0</asrwt>
<pdfrwt beam="1">  1       21 0.15354278E+00 0.94601539E+02</pdfrwt>
<pdfrwt beam="2">  1       21 0.17683736E-02 0.94601539E+02</pdfrwt>
<totfact> 0.43516397E+05</totfact>
</mgrwt>
</event>
<event>
 5    1  0.1696945E+000  0.1691016E+03  0.7546771E-02  0.1178788E+00
         21   -1    0    0  501  502  0.00000000000E+00  0.00000000000E+00  0.12351553263E+03  0.12351553263E+03  0.00000000000E+00 0. -1.
         21   -1    0    0  502  503 -0.00000000000E+00 -0.00000000000E+00 -0.28998820746E+03  0.28998820746E+03  0.00000000000E+00 0.  1.
         24    1    1    2    0    0  0.97363565746E+02 -0.63765444969E+02 -0.16883920087E+02  0.14247097465E+03  0.80419002446E+02 0.  0.
          1    1    1    2  501    0 -0.95085463148E+02  0.11286741717E+03 -0.43099466329E+02  0.15374609965E+03  0.00000000000E+00 0. -1.
         -2    1    1    2    0  503 -0.22781025974E+01 -0.49101972198E+02 -0.10648928841E+03  0.11728666579E+03  0.00000000000E+00 0.  1.
<mgrwt>
<rscale>  2 0.16910164E+03</rscale>
<asrwt>0</asrwt>
<pdfrwt beam="1">  1       21 0.19002390E-01 0.16910164E+03</pdfrwt>
<pdfrwt beam="2">  1       21 0.44613570E-01 0.16910164E+03</pdfrwt>
<totfact> 0.12351045E+05</totfact>
</mgrwt>
</event>
<event>
 5    1  0.1696945E+000  0.8447849E+02  0.7546771E-02  0.1316802E+00
         21   -1    0    0  503  502  0.00000000000E+00  0.00000000000E+00  0.19421263276E+03  0.19421263276E+03  0.00000000000E+00 0.  1.
         21   -1    0    0  501  503 -0.00000000000E+00 -0.00000000000E+00 -0.42340014010E+03  0.42340014010E+03  0.00000000000E+00 0. -1.
         24    1    1    2    0    0  0.24074023467E+02  0.51224601569E+02 -0.16518390796E+03  0.19224062478E+03  0.80419002446E+02 0.  0.
          1    1    1    2  501    0  0.19743431946E+01 -0.43363438515E+02 -0.24171909853E+03  0.24558584736E+03  0.00000000000E+00 0. -1.
         -2    1    1    2    0  502 -0.26048366662E+02 -0.78611630545E+01  0.17771549914E+03  0.17978630072E+03  0.00000000000E+00 0.  1.
<mgrwt>
<rscale>  2 0.84478494E+02</rscale>
<asrwt>0</asrwt>
<pdfrwt beam="1">  1       21 0.29878867E-01 0.84478494E+02</pdfrwt>
<pdfrwt beam="2">  1       21 0.65138482E-01 0.84478494E+02</pdfrwt>
<totfact> 0.25184875E+04</totfact>
</mgrwt>
</event>
<event>
 5    1  0.2076700E+000  0.1325806E+03  0.7546771E-02  0.1223676E+00
         21   -1    0    0  501  502  0.00000000000E+00  0.00000000000E+00  0.21285033677E+03  0.21285033677E+03  0.00000000000E+00 0.  1.
         21   -1    0    0  502  503 -0.00000000000E+00 -0.00000000000E+00 -0.17738508221E+03  0.17738508221E+03  0.00000000000E+00 0.  1.
         24    1    1    2    0    0  0.40235041178E+02  0.92983191614E+02  0.12985349839E+03  0.18328633189E+03  0.80419002446E+02 0.  1.
          1    1    1    2  501    0 -0.18782818857E+02  0.16037341061E+02  0.30855282502E+02  0.39522639724E+02  0.00000000000E+00 0. -1.
         -2    1    1    2    0  503 -0.21452222320E+02 -0.10902053267E+03 -0.12524352633E+03  0.16742644736E+03  0.00000000000E+00 0.  1.
<mgrwt>
<rscale>  2 0.13258056E+03</rscale>
<asrwt>0</asrwt>
<pdfrwt beam="1">  1       21 0.32746206E-01 0.13258056E+03</pdfrwt>
<pdfrwt beam="2">  1       21 0.27290013E-01 0.13258056E+03</pdfrwt>
<totfact> 0.11742488E+05</totfact>
</mgrwt>
</event>
<event>
 5    1  0.1696945E+000  0.6601939E+02  0.7546771E-02  0.1374177E+00
         21   -1    0    0  503  502  0.00000000000E+00  0.00000000000E+00  0.12892316573E+02  0.12892316573E+02  0.00000000000E+00 0. -1.
         21   -1    0    0  501  503 -0.00000000000E+00 -0.00000000000E+00 -0.36539342954E+03  0.36539342954E+03  0.00000000000E+00 0.  1.
         24    1    1    2    0    0 -0.11333057865E+02 -0.25515667966E+01 -0.26072217634E+03  0.27309012776E+03  0.80419002446E+02 0.  1.
          1    1    1    2  501    0  0.30493457837E+02 -0.34953704452E+01 -0.47252630700E+02  0.56346070790E+02  0.00000000000E+00 0. -1.
         -2    1    1    2    0  502 -0.19160399972E+02  0.60469372417E+01 -0.44526305935E+02  0.48849547565E+02  0.00000000000E+00 0.  1.
<mgrwt>
<rscale>  2 0.66019395E+02</rscale>
<asrwt>0</asrwt>
<pdfrwt beam="1">  1       21 0.19834332E-02 0.66019395E+02</pdfrwt>
<pdfrwt beam="2">  1       21 0.56214377E-01 0.66019395E+02</pdfrwt>
<totfact> 0.35637758E+06</totfact>
</mgrwt>
</event>
<event>
 5    1  0.1696945E+000  0.1667026E+03  0.7546771E-02  0.1181331E+00
         21   -1    0    0  503  502  0.00000000000E+00  0.00000000000E+00  0.23366342663E+03  0.23366342663E+03  0.00000000000E+00 0. -1.
         21   -1    0    0  501  503 -0.00000000000E+00 -0.00000000000E+00 -0.18852654199E+03  0.18852654199E+03  0.00000000000E+00 0.  1.
         24    1    1    2    0    0 -0.53437174522E+02 -0.12564435414E+03  0.17431518325E+01  0.15846857695E+03  0.80419002446E+02 0. -1.
          1    1    1    2  501    0  0.26118901656E+02 -0.16040938537E+02 -0.72457533861E+02  0.78674029680E+02  0.00000000000E+00 0. -1.
         -2    1    1    2    0  502  0.27318272866E+02  0.14168529268E+03  0.11585126667E+03  0.18504736200E+03  0.00000000000E+00 0.  1.
<mgrwt>
<rscale>  2 0.16670263E+03</rscale>
<asrwt>0</asrwt>
<pdfrwt beam="1">  1       21 0.35948219E-01 0.16670263E+03</pdfrwt>
<pdfrwt beam="2">  1       21 0.29004083E-01 0.16670263E+03</pdfrwt>
<totfact> 0.85820267E+04</totfact>
</mgrwt>
</event>
<event>
 5    1  0.1696945E+000  0.8152787E+02  0.7546771E-02  0.1324771E+00
         21   -1    0    0  501  502  0.00000000000E+00  0.00000000000E+00  0.16202712598E+03  0.16202712598E+03  0.00000000000E+00 0. -1.
         21   -1    0    0  502  503 -0.00000000000E+00 -0.00000000000E+00 -0.11291472633E+03  0.11291472633E+03  0.00000000000E+00 0.  1.
         24    1    1    2    0    0  0.20433304862E+01 -0.32870679429E+02  0.46148226638E+02  0.98394773956E+02  0.80419002446E+02 0.  1.
          1    1    1    2  501    0 -0.39045978829E+01 -0.21449589952E+02  0.79634888949E+02  0.82565406386E+02  0.00000000000E+00 0. -1.
         -2    1    1    2    0  503  0.18612673967E+01  0.54320269382E+02 -0.76670715939E+02  0.93981671961E+02  0.00000000000E+00 0.  1.
<mgrwt>
<rscale>  2 0.81527871E+02</rscale>
<asrwt>0</asrwt>
<pdfrwt beam="1">  1       21 0.24927250E-01 0.81527871E+02</pdfrwt>
<pdfrwt beam="2">  1       21 0.17371496E-01 0.81527871E+02</pdfrwt>
<totfact> 0.46192276E+05</totfact>
</mgrwt>
</event>
<event>
 5    1  0.1696945E+000  0.1304494E+03  0.7546771E-02  0.1226790E+00
         21   -1    0    0  503  502  0.00000000000E+00  0.00000000000E+00  0.40890681504E+02  0.40890681504E+02  0.00000000000E+00 0. -1.
         21   -1    0    0  501  503 -0.00000000000E+00 -0.00000000000E+00 -0.46305980328E+03  0.46305980328E+03  0.00000000000E+00 0. -1.
         24    1    1    2    0    0 -0.10584144802E+03  0.85022692609E+01 -0.14142854465E+03  0.19427802217E+03  0.80419002446E+02 0. -1.
          1    1    1    2  501    0  0.26526934011E+02  0.29566848216E+02 -0.12037187233E+03  0.12675671339E+03  0.00000000000E+00 0. -1.
         -2    1    1    2    0  502  0.79314514006E+02 -0.38069117477E+02 -0.16036870479E+03  0.18291574922E+03  0.00000000000E+00 0.  1.
<mgrwt>
<rscale>  2 0.13044942E+03</rscale>
<asrwt>0</asrwt>
<pdfrwt beam="1">  1       21 0.62908739E-02 0.13044942E+03</pdfrwt>
<pdfrwt beam="2">  1       21 0.71239971E-01 0.13044942E+03</pdfrwt>
<totfact> 0.32849312E+05</totfact>
</mgrwt>
</event>
<event>
 5    1  0.1696945E+000  0.8680982E+02  0.7546771E-02  0.1310766E+00
         21   -1    0    0  503  502  0.00000000000E+00  0.00000000000E+00  0.35723189533E+02  0.35723189533E+02  0.00000000000E+00 0. -1.
         21   -1    0    0  501  503 -0.00000000000E+00 -0.00000000000E+00 -0.28744572189E+03  0.28744572189E+03  0.00000000000E+00 0.  1.
         24    1    1    2    0    0  0.21126820449E+00  0.19739954106E+02 -0.18557904633E+03  0.20321542464E+03  0.80419002446E+02 0.  1.
          1    1    1    2  501    0 -0.40144000652E+02 -0.29363778587E+02 -0.60767995483E+02  0.78527202652E+02  0.00000000000E+00 0. -1.
         -2    1    1    2    0  502  0.39932732447E+02  0.96238244806E+01 -0.53754905483E+01  0.41426284132E+02  0.00000000000E+00 0.  1.
<mgrwt>
<rscale>  2 0.86809816E+02</rscale>
<asrwt>0</asrwt>
<pdfrwt beam="1">  1       21 0.54958753E-02 0.86809816E+02</pdfrwt>
<pdfrwt beam="2">  1       21 0.44222419E-01 0.86809816E+02</pdfrwt>
<totfact> 0.11190149E+06</totfact>
</mgrwt>
</event>
<event>
 5    1  0.1696945E+000  0.1087670E+03  0.7546771E-02  0.1262870E+00
         21   -1    0    0  501  502  0.00000000000E+00  0.00000000000E+00  0.48679150812E+03  0.48679150812E+03  0.00000000000E+00 0.  1.
         21   -1    0    0  502  503 -0.00000000000E+00 -0.00000000000E+00 -0.29150937913E+02  0.29150937913E+02  0.00000000000E+00 0. -1.
         24    1    1    2    0    0  0.88613686428E+00  0.28295108363E+02  0.85894226257E+02  0.12102244608E+03  0.80419002446E+02 0. -1.
          1    1    1    2  501    0  0.17800958641E+02  0.49325638096E+02  0.17173445508E+03  0.17956228937E+03  0.00000000000E+00 0. -1.
         -2    1    1    2    0  503 -0.18687095505E+02 -0.77620746459E+02  0.20001188887E+03  0.21535771058E+03  0.00000000000E+00 0.  1.
<mgrwt>
<rscale>  2 0.10876705E+03</rscale>
<asrwt>0</asrwt>
<pdfrwt beam="1">  1       21 0.74890995E-01 0.10876705E+03</pdfrwt>
<pdfrwt beam="2">  1       21 0.44847600E-02 0.10876705E+03</pdfrwt>
<totfact> 0.52175898E+05</totfact>
</mgrwt>
</event>
<event>
 5    1  0.1696945E+000  0.1037438E+03  0.7546771E-02  0.1272614E+00
         21   -1    0    0  503  502  0.00000000000E+00  0.00000000000E+00  0.20296304788E+03  0.20296304788E+03  0.00000000000E+00 0. -1.
         21   -1    0    0  501  503 -0.00000000000E+00 -0.00000000000E+00 -0.73124931987E+02  0.73124931987E+02  0.00000000000E+00 0. -1.
         24    1    1    2    0    0  0.19512131478E+02  0.74954976965E+02  0.55412982460E+02  0.12464664627E+03  0.80419002446E+02 0. -1.
          1    1    1    2  501    0  0.20063327198E+02 -0.22919648410E+02 -0.20112206019E+02  0.36501345351E+02  0.00000000000E+00 0. -1.
         -2    1    1    2    0  502 -0.39575458676E+02 -0.52035328555E+02  0.94537339448E+02  0.11493998824E+03  0.00000000000E+00 0.  1.
<mgrwt>
<rscale>  2 0.10374384E+03</rscale>
<asrwt>0</asrwt>
<pdfrwt beam="1">  1       21 0.31225084E-01 0.10374384E+03</pdfrwt>
<pdfrwt beam="2">  1       21 0.11249990E-01 0.10374384E+03</pdfrwt>
<totfact> 0.65248309E+05</totfact>
</mgrwt>
</event>
<event>
 5    1  0.1696945E+000  0.7114417E+02  0.7546771E-02  0.1356245E+00
         21   -1    0    0  501  502  0.00000000000E+00  0.00000000000E+00  0.84487269718E+01  0.84487269718E+01  0.00000000000E+00 0. -1.
         21   -1    0    0  502  503 -0.00000000000E+00 -0.00000000000E+00 -0.90706424238E+03  0.90706424238E+03  0.00000000000E+00 0.  1.
         24    1    1    2    0    0  0.18454278590E+01 -0.36777207150E+02 -0.61094323786E+03  0.61731258242E+03  0.80419002446E+02 0.  0.
          1    1    1    2  501    0 -0.18624482814E+02  0.74652614244E+01 -0.19738401672E+02  0.28146154067E+02  0.00000000000E+00 0. -1.
         -2    1    1    2    0  503  0.16779054955E+02  0.29311945725E+02 -0.26793387587E+03  0.27005423287E+03  0.00000000000E+00 0.  1.
<mgrwt>
<rscale>  2 0.71144174E+02</rscale>
<asrwt>0</asrwt>
<pdfrwt beam="1">  1       21 0.12998045E-02 0.71144174E+02</pdfrwt>
<pdfrwt beam="2">  1       21 0.13954831E+00 0.71144174E+02</pdfrwt>
<totfact> 0.90450689E+05</totfact>
</mgrwt>
</event>
<event>
 5    1  0.1696945E+000  0.1095100E+03  0.7546771E-02  0.1261480E+00
         21   -1    0    0  501  502  0.00000000000E+00  0.00000000000E+00  0.19793776356E+02  0.19793776356E+02  0.00000000000E+00 0.  1.
         21   -1    0    0  502  503 -0.00000000000E+00 -0.00000000000E+00 -0.99440628332E+03  0.99440628332E+03  0.00000000000E+00 0.  1.
         24    1    1    2    0    0 -0.87881327464E+02  0.28492438105E+02 -0.21394947283E+03  0.24652898333E+03  0.80419002446E+02 0.  1.
          1    1    1    2  501    0  0.24059338651E+02 -0.21619136122E+02 -0.13953755516E+03  0.14323745364E+03  0.00000000000E+00 0. -1.
         -2    1    1    2    0  503  0.63821988814E+02 -0.68733019833E+01 -0.62112547898E+03  0.62443362271E+03  0.00000000000E+00 0.  1.
<mgrwt>
<rscale>  2 0.10950998E+03</rscale>
<asrwt>0</asrwt>
<pdfrwt beam="1">  1       21 0.30451965E-02 0.10950998E+03</pdfrwt>
<pdfrwt beam="2">  1       21 0.15298557E+00 0.10950998E+03</pdfrwt>
<totfact> 0.18158108E+05</totfact>
</mgrwt>
</event>
<event>
 5    1  0.1696945E+000  0.7526328E+02  0.7546771E-02  0.1343058E+00
         21   -1    0    0  501  502  0.00000000000E+00  0.00000000000E+00  0.95648847622E+01  0.95648847622E+01  0.00000000000E+00 0. -1.
         21   -1    0    0  502  503 -0.00000000000E+00 -0.00000000000E+00 -0.18475780381E+04  0.18475780381E+04  0.00000000000E+00 0. -1.
         24    1    1    2    0    0 -0.29558720200E+02  0.23944516218E+02 -0.12741123312E+04  0.12772143541E+04  0.80419002446E+02 0. -1.
          1    1    1    2  501    0  0.33065156650E+02  0.40848455404E+01 -0.28673501340E+02  0.43956344553E+02  0.00000000000E+00 0. -1.
         -2    1    1    2    0  503 -0.35064364499E+01 -0.28029361758E+02 -0.53522732081E+03  0.53597222424E+03  0.00000000000E+00 0.  1.
<mgrwt>
<rscale>  2 0.75263280E+02</rscale>
<asrwt>0</asrwt>
<pdfrwt beam="1">  1       21 0.14715217E-02 0.75263280E+02</pdfrwt>
<pdfrwt beam="2">  1       21 0.28424259E+00 0.75263280E+02</pdfrwt>
<totfact> 0.96850109E+04</totfact>
</mgrwt>
</event>
<event>
 5    1  0.1696945E+000  0.1348590E+03  0.7546771E-02  0.1220419E+00
         21   -1    0    0  503  502  0.00000000000E+00  0.00000000000E+00  0.46379579828E+02  0.46379579828E+02  0.00000000000E+00 0.  1.
         21   -1    0    0  501  503 -0.00000000000E+00 -0.00000000000E+00 -0.51541910598E+03  0.51541910598E+03  0.00000000000E+00 0.  1.
         24    1    1    2    0    0 -0.11711643190E+03  0.29758328971E+02 -0.12295990405E+03  0.19023188671E+03  0.80419002446E+02 0.  1.
          1    1    1    2  501    0  0.29837221954E+02 -0.21744397164E+02 -0.18033005814E+03  0.18407066168E+03  0.00000000000E+00 0. -1.
         -2    1    1    2    0  502  0.87279209946E+02 -0.80139318063E+01 -0.16574956396E+03  0.18749613742E+03  0.00000000000E+00 0.  1.
<mgrwt>
<rscale>  2 0.13485900E+03</rscale>
<asrwt>0</asrwt>
<pdfrwt beam="1">  1       21 0.71353198E-02 0.13485900E+03</pdfrwt>
<pdfrwt beam="2">  1       21 0.79295249E-01 0.13485900E+03</pdfrwt>
<totfact> 0.20884830E+05</totfact>
</mgrwt>
</event>
<event>
 5    1  0.1696945E+000  0.9808373E+02  0.7546771E-02  0.1284378E+00
         21   -1    0    0  503  502  0.00000000000E+00  0.00000000000E+00  0.11081127799E+04  0.11081127799E+04  0.00000000000E+00 0.  1.
         21   -1    0    0  501  503 -0.00000000000E+00 -0.00000000000E+00 -0.19880723023E+03  0.19880723023E+03  0.00000000000E+00 0. -1.
         24    1    1    2    0    0 -0.13033098456E+01  0.23355035789E+02  0.10756194604E+03  0.13632294196E+03  0.80419002446E+02 0. -1.
          1    1    1    2  501    0 -0.34818139878E+02 -0.54532371876E+02 -0.17815383279E+03  0.18953857281E+03  0.00000000000E+00 0. -1.
         -2    1    1    2    0  502  0.36121449724E+02  0.31177336087E+02  0.97989743639E+03  0.98105849533E+03  0.00000000000E+00 0.  1.
<mgrwt>
<rscale>  2 0.98083732E+02</rscale>
<asrwt>0</asrwt>
<pdfrwt beam="1">  1       21 0.17047889E+00 0.98083732E+02</pdfrwt>
<pdfrwt beam="2">  1       21 0.30585728E-01 0.98083732E+02</pdfrwt>
<totfact> 0.24490938E+03</totfact>
</mgrwt>
</event>
<event>
 5    1  0.1696945E+000  0.8034400E+02  0.7546771E-02  0.1328078E+00
         21   -1    0    0  501  502  0.00000000000E+00  0.00000000000E+00  0.14272243271E+03  0.14272243271E+03  0.00000000000E+00 0. -1.
         21   -1    0    0  502  503 -0.00000000000E+00 -0.00000000000E+00 -0.65419745391E+02  0.65419745391E+02  0.00000000000E+00 0.  1.
         24    1    1    2    0    0  0.49054119028E+02 -0.11448787996E+02  0.11214116618E+02  0.95552884342E+02  0.80419002446E+02 0.  1.
          1    1    1    2  501    0 -0.30370943673E+02 -0.14633101327E+02  0.72424667637E+02  0.79886509227E+02  0.00000000000E+00 0. -1.
         -2    1    1    2    0  503 -0.18683175355E+02  0.26081889323E+02 -0.63360969352E+01  0.32702784535E+02  0.00000000000E+00 0.  1.
<mgrwt>
<rscale>  2 0.80344004E+02</rscale>
<asrwt>0</asrwt>
<pdfrwt beam="1">  1       21 0.21957297E-01 0.80344004E+02</pdfrwt>
<pdfrwt beam="2">  1       21 0.10064576E-01 0.80344004E+02</pdfrwt>
<totfact> 0.15290649E+06</totfact>
</mgrwt>
</event>
<event>
 5    1  0.1696945E+000  0.2104706E+03  0.7546771E-02  0.1141194E+00
         21   -1    0    0  503  502  0.00000000000E+00  0.00000000000E+00  0.11690909946E+04  0.11690909946E+04  0.00000000000E+00 0. -1.
         21   -1    0    0  501  503 -0.00000000000E+00 -0.00000000000E+00 -0.64682230626E+02  0.64682230626E+02  0.00000000000E+00 0.  1.
         24    1    1    2    0    0 -0.16170172944E+03  0.10704889076E+03  0.27071356782E+03  0.34257840865E+03  0.80419002446E+02 0.  0.
          1    1    1    2  501    0  0.14250978252E+03 -0.50348525545E+02  0.18120501021E+03  0.23596454789E+03  0.00000000000E+00 0. -1.
         -2    1    1    2    0  502  0.19191946912E+02 -0.56700365213E+02  0.65249018590E+03  0.65523026864E+03  0.00000000000E+00 0.  1.
<mgrwt>
<rscale>  2 0.21047055E+03</rscale>
<asrwt>0</asrwt>
<pdfrwt beam="1">  1       21 0.17986014E+00 0.21047055E+03</pdfrwt>
<pdfrwt beam="2">  1       21 0.99511132E-02 0.21047055E+03</pdfrwt>
<totfact> 0.14729315E+04</totfact>
</mgrwt>
</event>
<event>
 5    1  0.1696945E+000  0.6495486E+02  0.7546771E-02  0.1378141E+00
         21   -1    0    0  503  502  0.00000000000E+00  0.00000000000E+00  0.36180497697E+03  0.36180497697E+03  0.00000000000E+00 0. -1.
         21   -1    0    0  501  503 -0.00000000000E+00 -0.00000000000E+00 -0.12069965223E+02  0.12069965223E+02  0.00000000000E+00 0.  1.
         24    1    1    2    0    0  0.22240956484E+02  0.10414816917E+02  0.22528975130E+03  0.24046999096E+03  0.80419002446E+02 0.  0.
          1    1    1    2  501    0 -0.77993936377E+01 -0.24463561205E+02  0.49051467363E+02  0.55365538184E+02  0.00000000000E+00 0. -1.
         -2    1    1    2    0  502 -0.14441562846E+02  0.14048744288E+02  0.75393793089E+02  0.78039413054E+02  0.00000000000E+00 0.  1.
<mgrwt>
<rscale>  2 0.64954856E+02</rscale>
<asrwt>0</asrwt>
<pdfrwt beam="1">  1       21 0.55662296E-01 0.64954856E+02</pdfrwt>
<pdfrwt beam="2">  1       21 0.18569180E-02 0.64954856E+02</pdfrwt>
<totfact> 0.40328604E+06</totfact>
</mgrwt>
</event>
<event>
 5    1  0.1696945E+000  0.7554735E+02  0.7546771E-02  0.1342184E+00
         21   -1    0    0  503  502  0.00000000000E+00  0.00000000000E+00  0.14498315651E+02  0.14498315651E+02  0.00000000000E+00 0. -1.
         21   -1    0    0  501  503 -0.00000000000E+00 -0.00000000000E+00 -0.90761959839E+03  0.90761959839E+03  0.00000000000E+00 0.  1.
         24    1    1    2    0    0  0.54785988923E+01 -0.23811084034E+02 -0.34626592749E+03  0.35632048954E+03  0.80419002446E+02 0. -1.
          1    1    1    2  501    0  0.45424631535E+01 -0.20816863301E+02 -0.49951959125E+03  0.49997379712E+03  0.00000000000E+00 0. -1.
         -2    1    1    2    0  502 -0.10021062046E+02  0.44627947336E+02 -0.47335763997E+02  0.65823627378E+02  0.00000000000E+00 0.  1.
<mgrwt>
<rscale>  2 0.75547353E+02</rscale>
<asrwt>0</asrwt>
<pdfrwt beam="1">  1       21 0.22305097E-02 0.75547353E+02</pdfrwt>
<pdfrwt beam="2">  1       21 0.13963381E+00 0.75547353E+02</pdfrwt>
<totfact> 0.38407440E+05</totfact>
</mgrwt>
</event>
<event>
 5    1  0.1696945E+000  0.1172419E+03  0.7546771E-02  0.1247718E+00
         21   -1    0    0  503  502  0.00000000000E+00  0.00000000000E+00  0.19807623365E+02  0.19807623365E+02  0.00000000000E+00 0.  1.
         21   -1    0    0  501  503 -0.00000000000E+00 -0.00000000000E+00 -0.13885148944E+04  0.13885148944E+04  0.00000000000E+00 0. -1.
         24    1    1    2    0    0  0.35163731819E+02  0.57657108279E+02 -0.45361474181E+03  0.46561183416E+03  0.80419002446E+02 0.  1.
          1    1    1    2  501    0  0.11083344325E+02  0.29108962543E+02 -0.74936511707E+03  0.75001216717E+03  0.00000000000E+00 0. -1.
         -2    1    1    2    0  502 -0.46247076144E+02 -0.86766070822E+02 -0.16572741220E+03  0.19269851647E+03  0.00000000000E+00 0.  1.
<mgrwt>
<rscale>  2 0.11724186E+03</rscale>
<asrwt>0</asrwt>
<pdfrwt beam="1">  1       21 0.30473259E-02 0.11724186E+03</pdfrwt>
<pdfrwt beam="2">  1       21 0.21361773E+00 0.11724186E+03</pdfrwt>
<totfact> 0.71750253E+04</totfact>
</mgrwt>
</event>
<event>
 5    1  0.1696945E+000  0.6806753E+02  0.7546771E-02  0.1366791E+00
         21   -1    0    0  503  502  0.00000000000E+00  0.00000000000E+00  0.12362002766E+04  0.12362002766E+04  0.00000000000E+00 0.  1.
         21   -1    0    0  501  503 -0.00000000000E+00 -0.00000000000E+00 -0.50241507922E+01  0.50241507922E+01  0.00000000000E+00 0.  1.
         24    1    1    2    0    0 -0.34059255477E+02 -0.22195803490E+02  0.63953111656E+03  0.64584824191E+03  0.80419002446E+02 0.  1.
          1    1    1    2  501    0  0.25149538457E+02  0.36018434925E+01  0.96075310044E+02  0.99377752848E+02  0.00000000000E+00 0. -1.
         -2    1    1    2    0  502  0.89097170197E+01  0.18593959997E+02  0.49556969919E+03  0.49599843262E+03  0.00000000000E+00 0.  1.
<mgrwt>
<rscale>  2 0.68067527E+02</rscale>
<asrwt>0</asrwt>
<pdfrwt beam="1">  1       21 0.19018442E+00 0.68067527E+02</pdfrwt>
<pdfrwt beam="2">  1       21 0.77294726E-03 0.68067527E+02</pdfrwt>
<totfact> 0.90946339E+05</totfact>
</mgrwt>
</event>
<event>
 5    1  0.1696945E+000  0.7252920E+02  0.7546771E-02  0.1351698E+00
         21   -1    0    0  501  502  0.00000000000E+00  0.00000000000E+00  0.14247181163E+03  0.14247181163E+03  0.00000000000E+00 0. -1.
         21   -1    0    0  502  503 -0.00000000000E+00 -0.00000000000E+00 -0.68961089245E+02  0.68961089245E+02  0.00000000000E+00 0. -1.
         24    1    1    2    0    0 -0.11307012824E+02 -0.24242944258E+02 -0.21560298338E+02  0.87450736441E+02  0.80419002446E+02 0. -1.
          1    1    1    2  501    0 -0.17359892978E+01  0.39895098251E+02  0.95595858314E+02  0.10360116143E+03  0.00000000000E+00 0. -1.
         -2    1    1    2    0  503  0.13043002122E+02 -0.15652153994E+02 -0.52483758849E+00  0.20381003005E+02  0.00000000000E+00 0.  1.
<mgrwt>
<rscale>  2 0.72529203E+02</rscale>
<asrwt>0</asrwt>
<pdfrwt beam="1">  1       21 0.21918740E-01 0.72529203E+02</pdfrwt>
<pdfrwt beam="2">  1       21 0.10609398E-01 0.72529203E+02</pdfrwt>
<totfact> 0.13952599E+06</totfact>
</mgrwt>
</event>
<event>
 5    1  0.1696945E+000  0.9163631E+02  0.7546771E-02  0.1298937E+00
         21   -1    0    0  501  502  0.00000000000E+00  0.00000000000E+00  0.18783371662E+02  0.18783371662E+02  0.00000000000E+00 0.  1.
         21   -1    0    0  502  503 -0.00000000000E+00 -0.00000000000E+00 -0.67542883349E+03  0.67542883349E+03  0.00000000000E+00 0.  1.
         24    1    1    2    0    0  0.73261883868E+02  0.58578093651E+01 -0.28523863550E+03  0.30533573766E+03  0.80419002446E+02 0.  1.
          1    1    1    2  501    0 -0.29790455232E+02  0.30749335748E+01 -0.23281028439E+02  0.37933266727E+02  0.00000000000E+00 0. -1.
         -2    1    1    2    0  503 -0.43471428635E+02 -0.89327429398E+01 -0.34812579789E+03  0.35094320076E+03  0.00000000000E+00 0.  1.
<mgrwt>
<rscale>  2 0.91636310E+02</rscale>
<asrwt>0</asrwt>
<pdfrwt beam="1">  1       21 0.28897492E-02 0.91636310E+02</pdfrwt>
<pdfrwt beam="2">  1       21 0.10391214E+00 0.91636310E+02</pdfrwt>
<totfact> 0.51308778E+05</totfact>
</mgrwt>
</event>
<event>
 5    1  0.1696945E+000  0.8657784E+02  0.7546771E-02  0.1311357E+00
         21   -1    0    0  501  502  0.00000000000E+00  0.00000000000E+00  0.72156882565E+02  0.72156882565E+02  0.00000000000E+00 0. -1.
         21   -1    0    0  502  503 -0.00000000000E+00 -0.00000000000E+00 -0.63177133664E+03  0.63177133664E+03  0.00000000000E+00 0.  1.
         24    1    1    2    0    0 -0.39897669563E+01 -0.27990162726E+02 -0.12702162620E+03  0.15297410541E+03  0.80419002446E+02 0. -1.
          1    1    1    2  501    0 -0.45863930042E+01  0.57243463863E+02  0.44647614303E+02  0.72741038065E+02  0.00000000000E+00 0. -1.
         -2    1    1    2    0  503  0.85761599605E+01 -0.29253301137E+02 -0.47724044218E+03  0.47821307573E+03  0.00000000000E+00 0.  1.
<mgrwt>
<rscale>  2 0.86577842E+02</rscale>
<asrwt>0</asrwt>
<pdfrwt beam="1">  1       21 0.11101058E-01 0.86577842E+02</pdfrwt>
<pdfrwt beam="2">  1       21 0.97195594E-01 0.86577842E+02</pdfrwt>
<totfact> 0.62790180E+04</totfact>
</mgrwt>
</event>
<event>
 5    1  0.1696945E+000  0.8484025E+02  0.7546771E-02  0.1315851E+00
         21   -1    0    0  501  502  0.00000000000E+00  0.00000000000E+00  0.10265287901E+03  0.10265287901E+03  0.00000000000E+00 0.  1.
         21   -1    0    0  502  503 -0.00000000000E+00 -0.00000000000E+00 -0.95623472481E+03  0.95623472481E+03  0.00000000000E+00 0.  1.
         24    1    1    2    0    0 -0.72212928426E+01 -0.25630396765E+02 -0.10062111399E+03  0.13153284321E+03  0.80419002446E+02 0.  1.
          1    1    1    2  501    0 -0.24749027462E+02 -0.18196906680E+02  0.83585423064E+02  0.89051472317E+02  0.00000000000E+00 0. -1.
         -2    1    1    2    0  503  0.31970320305E+02  0.43827303445E+02 -0.83654615487E+03  0.83830328828E+03  0.00000000000E+00 0.  1.
<mgrwt>
<rscale>  2 0.84840248E+02</rscale>
<asrwt>0</asrwt>
<pdfrwt beam="1">  1       21 0.15792750E-01 0.84840248E+02</pdfrwt>
<pdfrwt beam="2">  1       21 0.14711304E+00 0.84840248E+02</pdfrwt>
<totfact> 0.12462878E+04</totfact>
</mgrwt>
</event>
<event>
 5    1  0.1696945E+000  0.7621387E+02  0.7546771E-02  0.1340153E+00
         21   -1    0    0  501  502  0.00000000000E+00  0.00000000000E+00  0.51085805192E+02  0.51085805192E+02  0.00000000000E+00 0. -1.
         21   -1    0    0  502  503 -0.00000000000E+00 -0.00000000000E+00 -0.14392378724E+03  0.14392378724E+03  0.00000000000E+00 0.  1.
         24    1    1    2    0    0  0.21915835466E+02 -0.95677455441E+01 -0.75941109354E+02  0.11316410051E+03  0.80419002446E+02 0.  1.
          1    1    1    2  501    0 -0.17069019108E+02  0.36959888091E+02  0.11285902686E+02  0.42246376654E+02  0.00000000000E+00 0. -1.
         -2    1    1    2    0  503 -0.48468163582E+01 -0.27392142547E+02 -0.28182775376E+02  0.39599115268E+02  0.00000000000E+00 0.  1.
<mgrwt>
<rscale>  2 0.76213873E+02</rscale>
<asrwt>0</asrwt>
<pdfrwt beam="1">  1       21 0.78593548E-02 0.76213873E+02</pdfrwt>
<pdfrwt beam="2">  1       21 0.22142121E-01 0.76213873E+02</pdfrwt>
<totfact> 0.22948588E+06</totfact>
</mgrwt>
</event>
<event>
 5    1  0.1696945E+000  0.9803175E+02  0.7546771E-02  0.1284490E+00
         21   -1    0    0  503  502  0.00000000000E+00  0.00000000000E+00  0.72847901302E+02  0.72847901302E+02  0.00000000000E+00 0.  1.
         21   -1    0    0  501  503 -0.00000000000E+00 -0.00000000000E+00 -0.22917704874E+03  0.22917704874E+03  0.00000000000E+00 0. -1.
         24    1    1    2    0    0  0.19323937877E+02 -0.81883453658E+01 -0.20490827781E+02  0.85601130556E+02  0.80419002446E+02 0. -1.
          1    1    1    2  501    0  0.21302543229E+02  0.50185321709E+02 -0.14713425093E+03  0.15691033318E+03  0.00000000000E+00 0. -1.
         -2    1    1    2    0  502 -0.40626481106E+02 -0.41996976344E+02  0.11295931269E+02  0.59513486306E+02  0.00000000000E+00 0.  1.
<mgrwt>
<rscale>  2 0.98031747E+02</rscale>
<asrwt>0</asrwt>
<pdfrwt beam="1">  1       21 0.11207370E-01 0.98031747E+02</pdfrwt>
<pdfrwt beam="2">  1       21 0.35258007E-01 0.98031747E+02</pdfrwt>
<totfact> 0.51902357E+05</totfact>
</mgrwt>
</event>
<event>
 5    1  0.1696945E+000  0.1044849E+03  0.7546771E-02  0.1271138E+00
         21   -1    0    0  501  502  0.00000000000E+00  0.00000000000E+00  0.14678234443E+03  0.14678234443E+03  0.00000000000E+00 0. -1.
         21   -1    0    0  502  503 -0.00000000000E+00 -0.00000000000E+00 -0.93566419722E+02  0.93566419722E+02  0.00000000000E+00 0. -1.
         24    1    1    2    0    0  0.69647851949E+02  0.31419282951E+02 -0.13794146941E+02  0.11178322355E+03  0.80419002446E+02 0. -1.
          1    1    1    2  501    0 -0.58758048043E+02 -0.49569637314E+02  0.73569923013E+02  0.10640578333E+03  0.00000000000E+00 0. -1.
         -2    1    1    2    0  503 -0.10889803905E+02  0.18150354363E+02 -0.65598513663E+01  0.22159757276E+02  0.00000000000E+00 0.  1.
<mgrwt>
<rscale>  2 0.10448485E+03</rscale>
<asrwt>0</asrwt>
<pdfrwt beam="1">  1       21 0.22581899E-01 0.10448485E+03</pdfrwt>
<pdfrwt beam="2">  1       21 0.14394834E-01 0.10448485E+03</pdfrwt>
<totfact> 0.77873878E+05</totfact>
</mgrwt>
</event>
<event>
 5    1  0.1696945E+000  0.7658745E+02  0.7546771E-02  0.1339025E+00
         21   -1    0    0  501  502  0.00000000000E+00  0.00000000000E+00  0.67221132977E+02  0.67221132977E+02  0.00000000000E+00 0.  1.
         21   -1    0    0  502  503 -0.00000000000E+00 -0.00000000000E+00 -0.14208986807E+03  0.14208986807E+03  0.00000000000E+00 0. -1.
         24    1    1    2    0    0 -0.10713814970E+02 -0.40633732976E+02  0.43819157023E+01  0.90842188582E+02  0.80419002446E+02 0.  1.
          1    1    1    2  501    0  0.28515792984E+02  0.31285566121E+02 -0.62995995498E+01  0.42797453797E+02  0.00000000000E+00 0. -1.
         -2    1    1    2    0  503 -0.17801978014E+02  0.93481668551E+01 -0.72951051246E+02  0.75671358668E+02  0.00000000000E+00 0.  1.
<mgrwt>
<rscale>  2 0.76587450E+02</rscale>
<asrwt>0</asrwt>
<pdfrwt beam="1">  1       21 0.10341713E-01 0.76587450E+02</pdfrwt>
<pdfrwt beam="2">  1       21 0.21859980E-01 0.76587450E+02</pdfrwt>
<totfact> 0.14685167E+06</totfact>
</mgrwt>
</event>
<event>
 5    1  0.1696945E+000  0.6863915E+02  0.7546771E-02  0.1364783E+00
         21   -1    0    0  503  502  0.00000000000E+00  0.00000000000E+00  0.82406055518E+02  0.82406055518E+02  0.00000000000E+00 0. -1.
         21   -1    0    0  501  503 -0.00000000000E+00 -0.00000000000E+00 -0.87628814745E+02  0.87628814745E+02  0.00000000000E+00 0. -1.
         24    1    1    2    0    0  0.38829869702E+01  0.70253419975E+01 -0.17135239092E+02  0.82615164414E+02  0.80419002446E+02 0.  0.
          1    1    1    2  501    0  0.99835930063E+01  0.22073239719E+02 -0.27405178252E+02  0.36577914594E+02  0.00000000000E+00 0. -1.
         -2    1    1    2    0  502 -0.13866579976E+02 -0.29098581717E+02  0.39317658118E+02  0.50841791255E+02  0.00000000000E+00 0.  1.
<mgrwt>
<rscale>  2 0.68639154E+02</rscale>
<asrwt>0</asrwt>
<pdfrwt beam="1">  1       21 0.12677855E-01 0.68639154E+02</pdfrwt>
<pdfrwt beam="2">  1       21 0.13481356E-01 0.68639154E+02</pdfrwt>
<totfact> 0.24414356E+06</totfact>
</mgrwt>
</event>
<event>
 5    1  0.2067520E+000  0.7412002E+02  0.7546771E-02  0.1346618E+00
         21   -1    0    0  503  502  0.00000000000E+00  0.00000000000E+00  0.91748783633E+02  0.91748783633E+02  0.00000000000E+00 0.  1.
         21   -1    0    0  501  503 -0.00000000000E+00 -0.00000000000E+00 -0.91404868178E+03  0.91404868178E+03  0.00000000000E+00 0. -1.
         24    1    1    2    0    0  0.21765065932E+02 -0.44478609854E+01  0.27185637757E+02  0.87748369882E+02  0.80419002446E+02 0.  0.
          1    1    1    2  501    0 -0.40703942823E+01  0.31894427492E+02 -0.87562789374E+03  0.87621802704E+03  0.00000000000E+00 0. -1.
         -2    1    1    2    0  502 -0.17694671650E+02 -0.27446566506E+02  0.26142357837E+02  0.41831068490E+02  0.00000000000E+00 0.  1.
<mgrwt>
<rscale>  2 0.74120022E+02</rscale>
<asrwt>0</asrwt>
<pdfrwt beam="1">  1       21 0.14115198E-01 0.74120022E+02</pdfrwt>
<pdfrwt beam="2">  1       21 0.14062287E+00 0.74120022E+02</pdfrwt>
<totfact> 0.17308811E+04</totfact>
</mgrwt>
</event>
<event>
 5    1  0.1696945E+000  0.8945942E+02  0.7546771E-02  0.1304166E+00
         21   -1    0    0  501  502  0.00000000000E+00  0.00000000000E+00  0.36638120115E+03  0.36638120115E+03  0.00000000000E+00 0.  1.
         21   -1    0    0  502  503 -0.00000000000E+00 -0.00000000000E+00 -0.29104440237E+02  0.29104440237E+02  0.00000000000E+00 0. -1.
         24    1    1    2    0    0  0.65382790874E+01  0.14465824636E+02  0.13041686146E+03  0.15403825136E+03  0.80419002446E+02 0.  0.
          1    1    1    2  501    0 -0.10837043027E+02 -0.55065294775E+02  0.18851013064E+03  0.19668680063E+03  0.00000000000E+00 0. -1.
         -2    1    1    2    0  503  0.42987639401E+01  0.40599470140E+02  0.18349768819E+02  0.44760589392E+02  0.00000000000E+00 0.  1.
<mgrwt>
<rscale>  2 0.89459423E+02</rscale>
<asrwt>0</asrwt>
<pdfrwt beam="1">  1       21 0.56366335E-01 0.89459423E+02</pdfrwt>
<pdfrwt beam="2">  1       21 0.44776065E-02 0.89459423E+02</pdfrwt>
<totfact> 0.95947709E+05</totfact>
</mgrwt>
</event>
<event>
 5    1  0.1696945E+000  0.9378488E+02  0.7546771E-02  0.1293937E+00
         21   -1    0    0  501  502  0.00000000000E+00  0.00000000000E+00  0.13075437624E+04  0.13075437624E+04  0.00000000000E+00 0. -1.
         21   -1    0    0  502  503 -0.00000000000E+00 -0.00000000000E+00 -0.15913072941E+02  0.15913072941E+02  0.00000000000E+00 0.  1.
         24    1    1    2    0    0  0.39349986668E+02 -0.37592027015E+02  0.27018761251E+03  0.28710650264E+03  0.80419002446E+02 0.  1.
          1    1    1    2  501    0 -0.59920274118E+02  0.35845123127E+02  0.10106420732E+04  0.10130511893E+04  0.00000000000E+00 0. -1.
         -2    1    1    2    0  503  0.20570287450E+02  0.17469038876E+01  0.10801003720E+02  0.23299143339E+02  0.00000000000E+00 0.  1.
<mgrwt>
<rscale>  2 0.93784882E+02</rscale>
<asrwt>0</asrwt>
<pdfrwt beam="1">  1       21 0.20116049E+00 0.93784882E+02</pdfrwt>
<pdfrwt beam="2">  1       21 0.24481661E-02 0.93784882E+02</pdfrwt>
<totfact> 0.12452272E+05</totfact>
</mgrwt>
</event>
<event>
 5    1  0.1696945E+000  0.1604287E+03  0.7546771E-02  0.1188214E+00
         21   -1    0    0  503  502  0.00000000000E+00  0.00000000000E+00  0.20207151495E+04  0.20207151495E+04  0.00000000000E+00 0. -1.
         21   -1    0    0  501  503 -0.00000000000E+00 -0.00000000000E+00 -0.12995193496E+02  0.12995193496E+02  0.00000000000E+00 0. -1.
         24    1    1    2    0    0 -0.68429464975E+02  0.71865102012E+02  0.68244215416E+03  0.69429222543E+03  0.80419002446E+02 0. -1.
          1    1    1    2  501    0  0.82237266452E+02  0.32078987565E+02  0.53925060252E+03  0.54642770954E+03  0.00000000000E+00 0. -1.
         -2    1    1    2    0  502 -0.13807801478E+02 -0.10394408958E+03  0.78602719930E+03  0.79299040800E+03  0.00000000000E+00 0.  1.
<mgrwt>
<rscale>  2 0.16042875E+03</rscale>
<asrwt>0</asrwt>
<pdfrwt beam="1">  1       21 0.31087900E+00 0.16042875E+03</pdfrwt>
<pdfrwt beam="2">  1       21 0.19992621E-02 0.16042875E+03</pdfrwt>
<totfact> 0.37611872E+04</totfact>
</mgrwt>
</event>
<event>
 5    1  0.1696945E+000  0.6382302E+02  0.7546771E-02  0.1382454E+00
         21   -1    0    0  503  502  0.00000000000E+00  0.00000000000E+00  0.10054746821E+04  0.10054746821E+04  0.00000000000E+00 0.  1.
         21   -1    0    0  501  503 -0.00000000000E+00 -0.00000000000E+00 -0.52632597136E+01  0.52632597136E+01  0.00000000000E+00 0.  1.
         24    1    1    2    0    0  0.89314162983E+01  0.13340947776E+02  0.52293432507E+03  0.52932530204E+03  0.80419002446E+02 0.  1.
          1    1    1    2  501    0  0.16274422012E+02 -0.12323372572E+02  0.60075970712E+02  0.63449543579E+02  0.00000000000E+00 0. -1.
         -2    1    1    2    0  502 -0.25205838310E+02 -0.10175752042E+01  0.41720112660E+03  0.41796309619E+03  0.00000000000E+00 0.  1.
<mgrwt>
<rscale>  2 0.63823022E+02</rscale>
<asrwt>0</asrwt>
<pdfrwt beam="1">  1       21 0.15468826E+00 0.63823022E+02</pdfrwt>
<pdfrwt beam="2">  1       21 0.80973306E-03 0.63823022E+02</pdfrwt>
<totfact> 0.14564672E+06</totfact>
</mgrwt>
</event>
<event>
 5    1  0.1696945E+000  0.1014746E+03  0.7546771E-02  0.1277225E+00
         21   -1    0    0  503  502  0.00000000000E+00  0.00000000000E+00  0.42414788791E+02  0.42414788791E+02  0.00000000000E+00 0. -1.
         21   -1    0    0  501  503 -0.00000000000E+00 -0.00000000000E+00 -0.29347371402E+03  0.29347371402E+03  0.00000000000E+00 0.  1.
         24    1    1    2    0    0  0.81951853851E+01 -0.55194635609E+02 -0.13782376893E+03  0.16904501205E+03  0.80419002446E+02 0.  1.
          1    1    1    2  501    0  0.17105482846E+02  0.72450572686E+02 -0.11406459732E+03  0.13620725160E+03  0.00000000000E+00 0. -1.
         -2    1    1    2    0  502 -0.25300668231E+02 -0.17255937077E+02  0.82944102326E+00  0.30636239159E+02  0.00000000000E+00 0.  1.
<mgrwt>
<rscale>  2 0.10147459E+03</rscale>
<asrwt>0</asrwt>
<pdfrwt beam="1">  1       21 0.65253524E-02 0.10147459E+03</pdfrwt>
<pdfrwt beam="2">  1       21 0.45149800E-01 0.10147459E+03</pdfrwt>
<totfact> 0.80587012E+05</totfact>
</mgrwt>
</event>
<event>
 5    1  0.1696945E+000  0.6960690E+02  0.7546771E-02  0.1361435E+00
         21   -1    0    0  503  502  0.00000000000E+00  0.00000000000E+00  0.37023227500E+02  0.37023227500E+02  0.00000000000E+00 0.  1.
         21   -1    0    0  501  503 -0.00000000000E+00 -0.00000000000E+00 -0.17531102192E+03  0.17531102192E+03  0.00000000000E+00 0.  1.
         24    1    1    2    0    0 -0.43858552204E+02  0.14713578496E+02 -0.12000463618E+03  0.15168516952E+03  0.80419002446E+02 0.  1.
          1    1    1    2  501    0  0.23555718378E+02 -0.57648232854E+01 -0.27462840870E+02  0.36637585680E+02  0.00000000000E+00 0. -1.
         -2    1    1    2    0  502  0.20302833826E+02 -0.89487552106E+01  0.91796826342E+01  0.24011494215E+02  0.00000000000E+00 0.  1.
<mgrwt>
<rscale>  2 0.69606898E+02</rscale>
<asrwt>0</asrwt>
<pdfrwt beam="1">  1       21 0.56958814E-02 0.69606898E+02</pdfrwt>
<pdfrwt beam="2">  1       21 0.26970925E-01 0.69606898E+02</pdfrwt>
<totfact> 0.27203333E+06</totfact>
</mgrwt>
</event>
<event>
 5    1  0.1696945E+000  0.1020997E+03  0.7546771E-02  0.1275942E+00
         21   -1    0    0  503  502  0.00000000000E+00  0.00000000000E+00  0.16128415324E+02  0.16128415324E+02  0.00000000000E+00 0.  1.
         21   -1    0    0  501  503 -0.00000000000E+00 -0.00000000000E+00 -0.67831595245E+03  0.67831595245E+03  0.00000000000E+00 0. -1.
         24    1    1    2    0    0  0.27099207151E+02  0.96557650961E+01 -0.32658250538E+03  0.33756621514E+03  0.80419002446E+02 0. -1.
          1    1    1    2  501    0 -0.69003471180E+02  0.14373604850E+02 -0.23381343808E+03  0.24420647694E+03  0.00000000000E+00 0. -1.
         -2    1    1    2    0  502  0.41904264029E+02 -0.24029369946E+02 -0.10179159367E+03  0.11267167570E+03  0.00000000000E+00 0.  1.
<mgrwt>
<rscale>  2 0.10209968E+03</rscale>
<asrwt>0</asrwt>
<pdfrwt beam="1">  1       21 0.24812944E-02 0.10209968E+03</pdfrwt>
<pdfrwt beam="2">  1       21 0.10435631E+00 0.10209968E+03</pdfrwt>
<totfact> 0.64959950E+05</totfact>
</mgrwt>
</event>
<event>
 5    1  0.1696945E+000  0.8468735E+02  0.7546771E-02  0.1316252E+00
         21   -1    0    0  501  502  0.00000000000E+00  0.00000000000E+00  0.73748101080E+02  0.73748101080E+02  0.00000000000E+00 0. -1.
         21   -1    0    0  502  503 -0.00000000000E+00 -0.00000000000E+00 -0.99741602229E+02  0.99741602229E+02  0.00000000000E+00 0.  1.
         24    1    1    2    0    0  0.23422777769E+02 -0.15063557166E+02 -0.32161870305E+00  0.85104974390E+02  0.80419002446E+02 0.  0.
          1    1    1    2  501    0 -0.39111915085E+02 -0.21393626485E+02 -0.98383186219E+01  0.45653276652E+02  0.00000000000E+00 0. -1.
         -2    1    1    2    0  503  0.15689137315E+02  0.36457183651E+02 -0.15833563824E+02  0.42731452267E+02  0.00000000000E+00 0.  1.
<mgrwt>
<rscale>  2 0.84687348E+02</rscale>
<asrwt>0</asrwt>
<pdfrwt beam="1">  1       21 0.11345862E-01 0.84687348E+02</pdfrwt>
<pdfrwt beam="2">  1       21 0.15344862E-01 0.84687348E+02</pdfrwt>
<totfact> 0.23821951E+06</totfact>
</mgrwt>
</event>
<event>
 5    1  0.1696945E+000  0.6432367E+02  0.7546771E-02  0.1380534E+00
         21   -1    0    0  501  502  0.00000000000E+00  0.00000000000E+00  0.61550323718E+03  0.61550323718E+03  0.00000000000E+00 0. -1.
         21   -1    0    0  502  503 -0.00000000000E+00 -0.00000000000E+00 -0.11215957724E+02  0.11215957724E+02  0.00000000000E+00 0. -1.
         24    1    1    2    0    0  0.66801013652E+01  0.13094788578E+02  0.53306357761E+03  0.53929592152E+03  0.80419002446E+02 0. -1.
          1    1    1    2  501    0  0.18585379654E+02 -0.10874344559E+02  0.49679039806E+02  0.54144941615E+02  0.00000000000E+00 0. -1.
         -2    1    1    2    0  503 -0.25265481019E+02 -0.22204440188E+01  0.21544662044E+02  0.33278331770E+02  0.00000000000E+00 0.  1.
<mgrwt>
<rscale>  2 0.64323671E+02</rscale>
<asrwt>0</asrwt>
<pdfrwt beam="1">  1       21 0.94692779E-01 0.64323671E+02</pdfrwt>
<pdfrwt beam="2">  1       21 0.17255324E-02 0.64323671E+02</pdfrwt>
<totfact> 0.14442275E+06</totfact>
</mgrwt>
</event>
<event>
 5    1  0.1696945E+000  0.7059678E+02  0.7546771E-02  0.1358075E+00
         21   -1    0    0  503  502  0.00000000000E+00  0.00000000000E+00  0.13820381850E+03  0.13820381850E+03  0.00000000000E+00 0.  1.
         21   -1    0    0  501  503 -0.00000000000E+00 -0.00000000000E+00 -0.67553008001E+02  0.67553008001E+02  0.00000000000E+00 0.  1.
         24    1    1    2    0    0  0.52255293541E+01 -0.38704926426E+01 -0.10265923016E+02  0.81331986328E+02  0.80419002446E+02 0.  1.
          1    1    1    2  501    0  0.27426870575E+02  0.48134449581E+01 -0.85921698429E+01  0.29141514451E+02  0.00000000000E+00 0. -1.
         -2    1    1    2    0  502 -0.32652399929E+02 -0.94295231547E+00  0.89508903358E+02  0.95283325721E+02  0.00000000000E+00 0.  1.
<mgrwt>
<rscale>  2 0.70596776E+02</rscale>
<asrwt>0</asrwt>
<pdfrwt beam="1">  1       21 0.21262126E-01 0.70596776E+02</pdfrwt>
<pdfrwt beam="2">  1       21 0.10392771E-01 0.70596776E+02</pdfrwt>
<totfact> 0.15269997E+06</totfact>
</mgrwt>
</event>
<event>
 5    1  0.1696945E+000  0.1034830E+03  0.7546771E-02  0.1273138E+00
         21   -1    0    0  503  502  0.00000000000E+00  0.00000000000E+00  0.47217268300E+02  0.47217268300E+02  0.00000000000E+00 0. -1.
         21   -1    0    0  501  503 -0.00000000000E+00 -0.00000000000E+00 -0.29631677835E+03  0.29631677835E+03  0.00000000000E+00 0. -1.
         24    1    1    2    0    0 -0.35138402065E+01 -0.75298953479E+02 -0.10613199778E+03  0.15301469333E+03  0.80419002446E+02 0. -1.
          1    1    1    2  501    0 -0.21485298518E+02  0.67062571293E+02 -0.14783654050E+03  0.16375179152E+03  0.00000000000E+00 0. -1.
         -2    1    1    2    0  502  0.24999138724E+02  0.82363821864E+01  0.48690282285E+01  0.26767561794E+02  0.00000000000E+00 0.  1.
<mgrwt>
<rscale>  2 0.10348298E+03</rscale>
<asrwt>0</asrwt>
<pdfrwt beam="1">  1       21 0.72641952E-02 0.10348298E+03</pdfrwt>
<pdfrwt beam="2">  1       21 0.45587196E-01 0.10348298E+03</pdfrwt>
<totfact> 0.65871952E+05</totfact>
</mgrwt>
</event>
<event>
 5    1  0.1696945E+000  0.6988742E+02  0.7546771E-02  0.1360476E+00
         21   -1    0    0  503  502  0.00000000000E+00  0.00000000000E+00  0.14698076227E+03  0.14698076227E+03  0.00000000000E+00 0.  1.
         21   -1    0    0  501  503 -0.00000000000E+00 -0.00000000000E+00 -0.14996425490E+03  0.14996425490E+03  0.00000000000E+00 0. -1.
         24    1    1    2    0    0 -0.33547909768E+02  0.26632622956E+02  0.11006675345E+03  0.14288689592E+03  0.80419002446E+02 0.  1.
          1    1    1    2  501    0  0.69841991417E+01 -0.20136298302E+02 -0.12309399026E+03  0.12492549774E+03  0.00000000000E+00 0. -1.
         -2    1    1    2    0  502  0.26563710627E+02 -0.64963246541E+01  0.10043744180E+02  0.29132623524E+02  0.00000000000E+00 0.  1.
<mgrwt>
<rscale>  2 0.69887419E+02</rscale>
<asrwt>0</asrwt>
<pdfrwt beam="1">  1       21 0.22612425E-01 0.69887419E+02</pdfrwt>
<pdfrwt beam="2">  1       21 0.23071424E-01 0.69887419E+02</pdfrwt>
<totfact> 0.33009002E+05</totfact>
</mgrwt>
</event>
<event>
 5    1  0.1696945E+000  0.7481389E+02  0.7546771E-02  0.1344448E+00
         21   -1    0    0  501  502  0.00000000000E+00  0.00000000000E+00  0.63975011629E+02  0.63975011629E+02  0.00000000000E+00 0.  1.
         21   -1    0    0  502  503 -0.00000000000E+00 -0.00000000000E+00 -0.14116243486E+03  0.14116243486E+03  0.00000000000E+00 0.  1.
         24    1    1    2    0    0 -0.37419881109E+01  0.19792108768E+02 -0.42500868981E+02  0.93162599057E+02  0.80419002446E+02 0.  1.
          1    1    1    2  501    0  0.25236415926E+02  0.12319647253E+02  0.27147660488E+02  0.39059516986E+02  0.00000000000E+00 0. -1.
         -2    1    1    2    0  503 -0.21494427815E+02 -0.32111756022E+02 -0.61834214740E+02  0.72915330448E+02  0.00000000000E+00 0.  1.
<mgrwt>
<rscale>  2 0.74813890E+02</rscale>
<asrwt>0</asrwt>
<pdfrwt beam="1">  1       21 0.98423096E-02 0.74813890E+02</pdfrwt>
<pdfrwt beam="2">  1       21 0.21717297E-01 0.74813890E+02</pdfrwt>
<totfact> 0.16173449E+06</totfact>
</mgrwt>
</event>
<event>
 5    1  0.1696945E+000  0.8252095E+02  0.7546771E-02  0.1322046E+00
         21   -1    0    0  501  502  0.00000000000E+00  0.00000000000E+00  0.96409454467E+02  0.96409454467E+02  0.00000000000E+00 0.  1.
         21   -1    0    0  502  503 -0.00000000000E+00 -0.00000000000E+00 -0.12215020491E+03  0.12215020491E+03  0.00000000000E+00 0.  1.
         24    1    1    2    0    0 -0.14489559751E+02 -0.43729110685E+02  0.22919427186E+02  0.95470930445E+02  0.80419002446E+02 0.  1.
          1    1    1    2  501    0 -0.19834456231E+02  0.46921387264E+01  0.25425321787E+02  0.32586328541E+02  0.00000000000E+00 0. -1.
         -2    1    1    2    0  503  0.34324015982E+02  0.39036971959E+02 -0.74085499417E+02  0.90502400392E+02  0.00000000000E+00 0.  1.
<mgrwt>
<rscale>  2 0.82520948E+02</rscale>
<asrwt>0</asrwt>
<pdfrwt beam="1">  1       21 0.14832224E-01 0.82520948E+02</pdfrwt>
<pdfrwt beam="2">  1       21 0.18792339E-01 0.82520948E+02</pdfrwt>
<totfact> 0.10308733E+06</totfact>
</mgrwt>
</event>
<event>
 5    1  0.1696945E+000  0.1596262E+03  0.7546771E-02  0.1189119E+00
         21   -1    0    0  501  502  0.00000000000E+00  0.00000000000E+00  0.11830767699E+04  0.11830767699E+04  0.00000000000E+00 0.  1.
         21   -1    0    0  502  503 -0.00000000000E+00 -0.00000000000E+00 -0.28354103475E+02  0.28354103475E+02  0.00000000000E+00 0.  1.
         24    1    1    2    0    0 -0.66709241645E+02 -0.22422865276E+02  0.58859288954E+03  0.59821544061E+03  0.80419002446E+02 0.  1.
          1    1    1    2  501    0  0.27251890357E+02 -0.89582088418E+02  0.38794467686E+03  0.39908481354E+03  0.00000000000E+00 0. -1.
         -2    1    1    2    0  503  0.39457351288E+02  0.11200495369E+03  0.17818510005E+03  0.21413061926E+03  0.00000000000E+00 0.  1.
<mgrwt>
<rscale>  2 0.15962617E+03</rscale>
<asrwt>0</asrwt>
<pdfrwt beam="1">  1       21 0.18201177E+00 0.15962617E+03</pdfrwt>
<pdfrwt beam="2">  1       21 0.43621707E-02 0.15962617E+03</pdfrwt>
<totfact> 0.60974372E+04</totfact>
</mgrwt>
</event>
<event>
 5    1  0.1696945E+000  0.6424680E+02  0.7546771E-02  0.1380827E+00
         21   -1    0    0  501  502  0.00000000000E+00  0.00000000000E+00  0.57239573707E+03  0.57239573707E+03  0.00000000000E+00 0.  1.
         21   -1    0    0  502  503 -0.00000000000E+00 -0.00000000000E+00 -0.14489083604E+02  0.14489083604E+02  0.00000000000E+00 0. -1.
         24    1    1    2    0    0  0.16848136291E+02  0.22089587290E+02  0.28204462585E+03  0.29459836471E+03  0.80419002446E+02 0.  0.
          1    1    1    2  501    0 -0.20077541244E+02  0.99458514208E+00  0.26635618178E+03  0.26711366951E+03  0.00000000000E+00 0. -1.
         -2    1    1    2    0  503  0.32294049529E+01 -0.23084172432E+02  0.95058458309E+01  0.25172786461E+02  0.00000000000E+00 0.  1.
<mgrwt>
<rscale>  2 0.64246797E+02</rscale>
<asrwt>0</asrwt>
<pdfrwt beam="1">  1       21 0.88060865E-01 0.64246797E+02</pdfrwt>
<pdfrwt beam="2">  1       21 0.22290902E-02 0.64246797E+02</pdfrwt>
<totfact> 0.11325601E+06</totfact>
</mgrwt>
</event>
<event>
 5    1  0.1696945E+000  0.7026826E+02  0.7546771E-02  0.1359183E+00
         21   -1    0    0  501  502  0.00000000000E+00  0.00000000000E+00  0.13928770263E+03  0.13928770263E+03  0.00000000000E+00 0. -1.
         21   -1    0    0  502  503 -0.00000000000E+00 -0.00000000000E+00 -0.10641260358E+03  0.10641260358E+03  0.00000000000E+00 0.  1.
         24    1    1    2    0    0  0.32920094661E+02  0.50765605579E+01  0.95850851526E+01  0.87570508228E+02  0.80419002446E+02 0. -1.
          1    1    1    2  501    0 -0.19006221638E+02 -0.23614779063E+02  0.86046335409E+02  0.91229743442E+02  0.00000000000E+00 0. -1.
         -2    1    1    2    0  503 -0.13913873023E+02  0.18538218506E+02 -0.62756321515E+02  0.66900054544E+02  0.00000000000E+00 0.  1.
<mgrwt>
<rscale>  2 0.70268263E+02</rscale>
<asrwt>0</asrwt>
<pdfrwt beam="1">  1       21 0.21428877E-01 0.70268263E+02</pdfrwt>
<pdfrwt beam="2">  1       21 0.16371170E-01 0.70268263E+02</pdfrwt>
<totfact> 0.67841721E+05</totfact>
</mgrwt>
</event>
<event>
 5    1  0.1696945E+000  0.7196404E+02  0.7546771E-02  0.1353539E+00
         21   -1    0    0  503  502  0.00000000000E+00  0.00000000000E+00  0.71405632687E+03  0.71405632687E+03  0.00000000000E+00 0.  1.
         21   -1    0    0  501  503 -0.00000000000E+00 -0.00000000000E+00 -0.37637898519E+02  0.37637898519E+02  0.00000000000E+00 0. -1.
         24    1    1    2    0    0 -0.18001984827E+02  0.11986794036E+02  0.61259087296E+02  0.10338107380E+03  0.80419002446E+02 0.  1.
          1    1    1    2  501    0 -0.12785358684E+02 -0.24327863468E+02 -0.44291113361E+01  0.27837517217E+02  0.00000000000E+00 0. -1.
         -2    1    1    2    0  502  0.30787343511E+02  0.12341069432E+02  0.61958845239E+03  0.62047563437E+03  0.00000000000E+00 0.  1.
<mgrwt>
<rscale>  2 0.71964039E+02</rscale>
<asrwt>0</asrwt>
<pdfrwt beam="1">  1       21 0.10985481E+00 0.71964039E+02</pdfrwt>
<pdfrwt beam="2">  1       21 0.57904465E-02 0.71964039E+02</pdfrwt>
<totfact> 0.14457553E+05</totfact>
</mgrwt>
</event>
<event>
 5    1  0.1696945E+000  0.6877561E+02  0.7546771E-02  0.1364307E+00
         21   -1    0    0  501  502  0.00000000000E+00  0.00000000000E+00  0.53603386611E+02  0.53603386611E+02  0.00000000000E+00 0. -1.
         21   -1    0    0  502  503 -0.00000000000E+00 -0.00000000000E+00 -0.91152187480E+02  0.91152187480E+02  0.00000000000E+00 0.  1.
         24    1    1    2    0    0 -0.14966021568E+02 -0.40064160994E+01 -0.30247094784E+02  0.87304844475E+02  0.80419002446E+02 0. -1.
          1    1    1    2  501    0  0.22496495101E+02 -0.20241938881E+02  0.21948519678E+01  0.30342144892E+02  0.00000000000E+00 0. -1.
         -2    1    1    2    0  503 -0.75304735332E+01  0.24248354980E+02 -0.94965580525E+01  0.27108584724E+02  0.00000000000E+00 0.  1.
<mgrwt>
<rscale>  2 0.68775607E+02</rscale>
<asrwt>0</asrwt>
<pdfrwt beam="1">  1       21 0.82466749E-02 0.68775607E+02</pdfrwt>
<pdfrwt beam="2">  1       21 0.14023413E-01 0.68775607E+02</pdfrwt>
<totfact> 0.47775495E+06</totfact>
</mgrwt>
</event>
<event>
 5    1  0.1696945E+000  0.7252532E+02  0.7546771E-02  0.1351710E+00
         21   -1    0    0  503  502  0.00000000000E+00  0.00000000000E+00  0.74715259563E+03  0.74715259563E+03  0.00000000000E+00 0. -1.
         21   -1    0    0  501  503 -0.00000000000E+00 -0.00000000000E+00 -0.12135331898E+02  0.12135331898E+02  0.00000000000E+00 0.  1.
         24    1    1    2    0    0  0.23933225126E+02  0.35636533260E+02  0.66305573864E+03  0.66929282849E+03  0.80419002446E+02 0. -1.
          1    1    1    2  501    0  0.45152217038E+01 -0.21788982818E+02  0.33064199335E+02  0.39854589158E+02  0.00000000000E+00 0. -1.
         -2    1    1    2    0  502 -0.28448446830E+02 -0.13847550442E+02  0.38897325757E+02  0.50140509883E+02  0.00000000000E+00 0.  1.
<mgrwt>
<rscale>  2 0.72525324E+02</rscale>
<asrwt>0</asrwt>
<pdfrwt beam="1">  1       21 0.11494652E+00 0.72525324E+02</pdfrwt>
<pdfrwt beam="2">  1       21 0.18669747E-02 0.72525324E+02</pdfrwt>
<totfact> 0.81661513E+05</totfact>
</mgrwt>
</event>
<event>
 5    1  0.1696945E+000  0.6876164E+02  0.7546771E-02  0.1364356E+00
         21   -1    0    0  501  502  0.00000000000E+00  0.00000000000E+00  0.86430039503E+01  0.86430039503E+01  0.00000000000E+00 0. -1.
         21   -1    0    0  502  503 -0.00000000000E+00 -0.00000000000E+00 -0.89423773997E+03  0.89423773997E+03  0.00000000000E+00 0. -1.
         24    1    1    2    0    0  0.31006003331E+02  0.31986704628E+02 -0.68141369719E+03  0.68758735022E+03  0.80419002446E+02 0. -1.
          1    1    1    2  501    0 -0.12732094049E+02 -0.20089939584E+02 -0.23969919042E+02  0.33767868014E+02  0.00000000000E+00 0. -1.
         -2    1    1    2    0  503 -0.18273909283E+02 -0.11896765044E+02 -0.18021111979E+03  0.18152552568E+03  0.00000000000E+00 0.  1.
<mgrwt>
<rscale>  2 0.68761638E+02</rscale>
<asrwt>0</asrwt>
<pdfrwt beam="1">  1       21 0.13296929E-02 0.68761638E+02</pdfrwt>
<pdfrwt beam="2">  1       21 0.13757504E+00 0.68761638E+02</pdfrwt>
<totfact> 0.90404253E+05</totfact>
</mgrwt>
</event>
<event>
 5    1  0.1696945E+000  0.7218619E+02  0.7546771E-02  0.1352813E+00
         21   -1    0    0  503  502  0.00000000000E+00  0.00000000000E+00  0.28505627853E+01  0.28505627853E+01  0.00000000000E+00 0. -1.
         21   -1    0    0  501  503 -0.00000000000E+00 -0.00000000000E+00 -0.27870936837E+04  0.27870936837E+04  0.00000000000E+00 0.  1.
         24    1    1    2    0    0  0.18253196490E+02 -0.45665849234E+02 -0.18911147439E+04  0.18934626322E+04  0.80419002446E+02 0.  0.
          1    1    1    2  501    0 -0.12249665159E+02  0.17832074139E+02 -0.76156570810E+03  0.76187293227E+03  0.00000000000E+00 0. -1.
         -2    1    1    2    0  502 -0.60035313312E+01  0.27833775095E+02 -0.13156266890E+03  0.13460868201E+03  0.00000000000E+00 0.  1.
<mgrwt>
<rscale>  2 0.72186187E+02</rscale>
<asrwt>0</asrwt>
<pdfrwt beam="1">  1       21 0.43854761E-03 0.72186187E+02</pdfrwt>
<pdfrwt beam="2">  1       21 0.42878414E+00 0.72186187E+02</pdfrwt>
<totfact> 0.96141779E+04</totfact>
</mgrwt>
</event>
<event>
 5    1  0.1696945E+000  0.1466765E+03  0.7546771E-02  0.1204617E+00
         21   -1    0    0  503  502  0.00000000000E+00  0.00000000000E+00  0.18558527924E+03  0.18558527924E+03  0.00000000000E+00 0.  1.
         21   -1    0    0  501  503 -0.00000000000E+00 -0.00000000000E+00 -0.22840281944E+03  0.22840281944E+03  0.00000000000E+00 0. -1.
         24    1    1    2    0    0 -0.30409321154E+02 -0.10190004552E+03 -0.11684648050E+03  0.17728130767E+03  0.80419002446E+02 0. -1.
          1    1    1    2  501    0  0.26677467783E+02  0.12947852334E+03 -0.24389530036E+02  0.13442925451E+03  0.00000000000E+00 0. -1.
         -2    1    1    2    0  502  0.37318533710E+01 -0.27578477816E+02  0.98418470336E+02  0.10227753650E+03  0.00000000000E+00 0.  1.
<mgrwt>
<rscale>  2 0.14667655E+03</rscale>
<asrwt>0</asrwt>
<pdfrwt beam="1">  1       21 0.28551581E-01 0.14667655E+03</pdfrwt>
<pdfrwt beam="2">  1       21 0.35138895E-01 0.14667655E+03</pdfrwt>
<totfact> 0.93272525E+04</totfact>
</mgrwt>
</event>
<event>
 5    1  0.1696945E+000  0.1063780E+03  0.7546771E-02  0.1267428E+00
         21   -1    0    0  503  502  0.00000000000E+00  0.00000000000E+00  0.14672383823E+04  0.14672383823E+04  0.00000000000E+00 0.  1.
         21   -1    0    0  501  503 -0.00000000000E+00 -0.00000000000E+00 -0.11592557982E+02  0.11592557982E+02  0.00000000000E+00 0. -1.
         24    1    1    2    0    0  0.26382966997E+02  0.19153479628E+02  0.77560960586E+03  0.78044884098E+03  0.80419002446E+02 0.  1.
          1    1    1    2  501    0 -0.10319508240E+02  0.52010964697E+02  0.94846181031E+02  0.10866200235E+03  0.00000000000E+00 0. -1.
         -2    1    1    2    0  502 -0.16063458757E+02 -0.71164444325E+02  0.58519003744E+03  0.58972009696E+03  0.00000000000E+00 0.  1.
<mgrwt>
<rscale>  2 0.10637802E+03</rscale>
<asrwt>0</asrwt>
<pdfrwt beam="1">  1       21 0.22572883E+00 0.10637802E+03</pdfrwt>
<pdfrwt beam="2">  1       21 0.17834716E-02 0.10637802E+03</pdfrwt>
<totfact> 0.14594458E+05</totfact>
</mgrwt>
</event>
<event>
 5    1  0.1696945E+000  0.9540140E+02  0.7546771E-02  0.1290275E+00
         21   -1    0    0  501  502  0.00000000000E+00  0.00000000000E+00  0.10674234324E+03  0.10674234324E+03  0.00000000000E+00 0.  1.
         21   -1    0    0  502  503 -0.00000000000E+00 -0.00000000000E+00 -0.28474631886E+03  0.28474631886E+03  0.00000000000E+00 0. -1.
         24    1    1    2    0    0  0.19734629765E+02  0.17721528619E+01 -0.10871370095E+03  0.13666923892E+03  0.80419002446E+02 0. -1.
          1    1    1    2  501    0  0.36412213639E+02 -0.28072566474E+02  0.80499768144E+02  0.92704535821E+02  0.00000000000E+00 0. -1.
         -2    1    1    2    0  503 -0.56146843404E+02  0.26300413612E+02 -0.14979004281E+03  0.16211488737E+03  0.00000000000E+00 0.  1.
<mgrwt>
<rscale>  2 0.95401400E+02</rscale>
<asrwt>0</asrwt>
<pdfrwt beam="1">  1       21 0.16421899E-01 0.95401400E+02</pdfrwt>
<pdfrwt beam="2">  1       21 0.43807125E-01 0.95401400E+02</pdfrwt>
<totfact> 0.17154380E+05</totfact>
</mgrwt>
</event>
<event>
 5    1  0.1696945E+000  0.9196430E+02  0.7546771E-02  0.1298163E+00
         21   -1    0    0  501  502  0.00000000000E+00  0.00000000000E+00  0.95572700757E+02  0.95572700757E+02  0.00000000000E+00 0. -1.
         21   -1    0    0  502  503 -0.00000000000E+00 -0.00000000000E+00 -0.49010844216E+03  0.49010844216E+03  0.00000000000E+00 0. -1.
         24    1    1    2    0    0  0.41726837684E+02 -0.30630089696E+01 -0.41690199696E+03  0.42664388198E+03  0.80419002446E+02 0. -1.
          1    1    1    2  501    0  0.25033522818E+01  0.37275267851E+02  0.74019611272E+02  0.82913299409E+02  0.00000000000E+00 0. -1.
         -2    1    1    2    0  503 -0.44230189966E+02 -0.34212258881E+02 -0.51653355718E+02  0.76123961531E+02  0.00000000000E+00 0.  1.
<mgrwt>
<rscale>  2 0.91964303E+02</rscale>
<asrwt>0</asrwt>
<pdfrwt beam="1">  1       21 0.14703492E-01 0.91964303E+02</pdfrwt>
<pdfrwt beam="2">  1       21 0.75401300E-01 0.91964303E+02</pdfrwt>
<totfact> 0.67281483E+04</totfact>
</mgrwt>
</event>
<event>
 5    1  0.1696945E+000  0.7435876E+02  0.7546771E-02  0.1345868E+00
         21   -1    0    0  503  502  0.00000000000E+00  0.00000000000E+00  0.27977785885E+02  0.27977785885E+02  0.00000000000E+00 0.  1.
         21   -1    0    0  501  503 -0.00000000000E+00 -0.00000000000E+00 -0.20001442842E+03  0.20001442842E+03  0.00000000000E+00 0. -1.
         24    1    1    2    0    0  0.49308348786E+02 -0.51837875621E+01 -0.11490009086E+03  0.14875292181E+03  0.80419002446E+02 0. -1.
          1    1    1    2  501    0 -0.25879486005E+02 -0.83414482671E+01 -0.34760635365E+02  0.44131953571E+02  0.00000000000E+00 0. -1.
         -2    1    1    2    0  502 -0.23428862781E+02  0.13525235829E+02 -0.22375916311E+02  0.35107338923E+02  0.00000000000E+00 0.  1.
<mgrwt>
<rscale>  2 0.74358763E+02</rscale>
<asrwt>0</asrwt>
<pdfrwt beam="1">  1       21 0.43042748E-02 0.74358763E+02</pdfrwt>
<pdfrwt beam="2">  1       21 0.30771450E-01 0.74358763E+02</pdfrwt>
<totfact> 0.33838443E+06</totfact>
</mgrwt>
</event>
<event>
 5    1  0.1696945E+000  0.8342745E+02  0.7546771E-02  0.1319597E+00
         21   -1    0    0  503  502  0.00000000000E+00  0.00000000000E+00  0.19421431989E+03  0.19421431989E+03  0.00000000000E+00 0. -1.
         21   -1    0    0  501  503 -0.00000000000E+00 -0.00000000000E+00 -0.40267568137E+02  0.40267568137E+02  0.00000000000E+00 0. -1.
         24    1    1    2    0    0  0.31171090344E+02  0.13216087949E+02  0.11878886907E+03  0.14739169998E+03  0.80419002446E+02 0. -1.
          1    1    1    2  501    0 -0.23060438145E+02 -0.42966222141E+02  0.19643357249E+02  0.52571299552E+02  0.00000000000E+00 0. -1.
         -2    1    1    2    0  502 -0.81106521992E+01  0.29750134192E+02  0.15514525437E+02  0.34518888497E+02  0.00000000000E+00 0.  1.
<mgrwt>
<rscale>  2 0.83427446E+02</rscale>
<asrwt>0</asrwt>
<pdfrwt beam="1">  1       21 0.29879126E-01 0.83427446E+02</pdfrwt>
<pdfrwt beam="2">  1       21 0.61950106E-02 0.83427446E+02</pdfrwt>
<totfact> 0.19657675E+06</totfact>
</mgrwt>
</event>
<event>
 5    1  0.1696945E+000  0.7524630E+02  0.7546771E-02  0.1343110E+00
         21   -1    0    0  503  502  0.00000000000E+00  0.00000000000E+00  0.10080247726E+03  0.10080247726E+03  0.00000000000E+00 0. -1.
         21   -1    0    0  501  503 -0.00000000000E+00 -0.00000000000E+00 -0.88470603026E+02  0.88470603026E+02  0.00000000000E+00 0. -1.
         24    1    1    2    0    0 -0.20605337947E+01  0.40427071981E+02  0.22034616579E+02  0.92689450482E+02  0.80419002446E+02 0. -1.
          1    1    1    2  501    0 -0.20401694725E+02 -0.28436590265E+02 -0.42504579334E+02  0.55059132556E+02  0.00000000000E+00 0. -1.
         -2    1    1    2    0  502  0.22462228520E+02 -0.11990481716E+02  0.32801836989E+02  0.41524497248E+02  0.00000000000E+00 0.  1.
<mgrwt>
<rscale>  2 0.75246296E+02</rscale>
<asrwt>0</asrwt>
<pdfrwt beam="1">  1       21 0.15508073E-01 0.75246296E+02</pdfrwt>
<pdfrwt beam="2">  1       21 0.13610862E-01 0.75246296E+02</pdfrwt>
<totfact> 0.16904333E+06</totfact>
</mgrwt>
</event>
<event>
 5    1  0.1696945E+000  0.1031874E+03  0.7546771E-02  0.1273733E+00
         21   -1    0    0  501  502  0.00000000000E+00  0.00000000000E+00  0.16609132076E+03  0.16609132076E+03  0.00000000000E+00 0. -1.
         21   -1    0    0  502  503 -0.00000000000E+00 -0.00000000000E+00 -0.83127479081E+02  0.83127479081E+02  0.00000000000E+00 0. -1.
         24    1    1    2    0    0 -0.59214183309E+02 -0.14704544232E+02 -0.17800950092E+02  0.10250186781E+03  0.80419002446E+02 0. -1.
          1    1    1    2  501    0  0.52335408653E+02  0.48252224928E+02  0.77976055725E+02  0.10558189938E+03  0.00000000000E+00 0. -1.
         -2    1    1    2    0  503  0.68787746561E+01 -0.33547680696E+02  0.22788736046E+02  0.41135032654E+02  0.00000000000E+00 0.  1.
<mgrwt>
<rscale>  2 0.10318738E+03</rscale>
<asrwt>0</asrwt>
<pdfrwt beam="1">  1       21 0.25552511E-01 0.10318738E+03</pdfrwt>
<pdfrwt beam="2">  1       21 0.12788843E-01 0.10318738E+03</pdfrwt>
<totfact> 0.76257682E+05</totfact>
</mgrwt>
</event>
<event>
 5    1  0.1696945E+000  0.6812500E+02  0.7546771E-02  0.1366588E+00
         21   -1    0    0  503  502  0.00000000000E+00  0.00000000000E+00  0.36411107971E+03  0.36411107971E+03  0.00000000000E+00 0.  1.
         21   -1    0    0  501  503 -0.00000000000E+00 -0.00000000000E+00 -0.15629427888E+03  0.15629427888E+03  0.00000000000E+00 0.  1.
         24    1    1    2    0    0  0.41265155764E+02 -0.13273138952E+02 -0.10857341930E+03  0.14189571040E+03  0.80419002446E+02 0.  1.
          1    1    1    2  501    0 -0.23018277146E+02  0.12735104694E+01 -0.26386063310E+02  0.35038368237E+02  0.00000000000E+00 0. -1.
         -2    1    1    2    0  502 -0.18246878618E+02  0.11999628483E+02  0.34277628344E+03  0.34347127995E+03  0.00000000000E+00 0.  1.
<mgrwt>
<rscale>  2 0.68124998E+02</rscale>
<asrwt>0</asrwt>
<pdfrwt beam="1">  1       21 0.56017089E-01 0.68124998E+02</pdfrwt>
<pdfrwt beam="2">  1       21 0.24045274E-01 0.68124998E+02</pdfrwt>
<totfact> 0.52751905E+04</totfact>
</mgrwt>
</event>
<event>
 5    1  0.1696945E+000  0.8857375E+02  0.7546771E-02  0.1306343E+00
         21   -1    0    0  503  502  0.00000000000E+00  0.00000000000E+00  0.80345226536E+03  0.80345226536E+03  0.00000000000E+00 0.  1.
         21   -1    0    0  501  503 -0.00000000000E+00 -0.00000000000E+00 -0.59619562750E+02  0.59619562750E+02  0.00000000000E+00 0.  1.
         24    1    1    2    0    0 -0.10453130887E+02 -0.10382377829E+02 -0.55327535298E+01  0.81944426478E+02  0.80419002446E+02 0.  1.
          1    1    1    2  501    0 -0.55370331090E+01 -0.41105307121E+02  0.13981361810E+02  0.43769664006E+02  0.00000000000E+00 0. -1.
         -2    1    1    2    0  502  0.15990163996E+02  0.51487684950E+02  0.73538409433E+03  0.73735773763E+03  0.00000000000E+00 0.  1.
<mgrwt>
<rscale>  2 0.88573753E+02</rscale>
<asrwt>0</asrwt>
<pdfrwt beam="1">  1       21 0.12360803E+00 0.88573753E+02</pdfrwt>
<pdfrwt beam="2">  1       21 0.91722410E-02 0.88573753E+02</pdfrwt>
<totfact> 0.49515176E+04</totfact>
</mgrwt>
</event>
<event>
 5    1  0.2811800E+000  0.9025678E+02  0.7546771E-02  0.1302231E+00
         21   -1    0    0  501  502  0.00000000000E+00  0.00000000000E+00  0.88848948271E+03  0.88848948271E+03  0.00000000000E+00 0. -1.
         21   -1    0    0  502  503 -0.00000000000E+00 -0.00000000000E+00 -0.13365232855E+03  0.13365232855E+03  0.00000000000E+00 0.  1.
         24    1    1    2    0    0 -0.14563780432E+02 -0.21783880294E+01  0.23398318223E+03  0.24785518876E+03  0.80419002446E+02 0.  1.
          1    1    1    2  501    0 -0.28763297705E+02 -0.32398766794E+02  0.64074118323E+03  0.64220422863E+03  0.00000000000E+00 0. -1.
         -2    1    1    2    0  503  0.43327078137E+02  0.34577154823E+02 -0.11988721130E+03  0.13208239387E+03  0.00000000000E+00 0.  1.
<mgrwt>
<rscale>  2 0.90256778E+02</rscale>
<asrwt>0</asrwt>
<pdfrwt beam="1">  1       21 0.13669069E+00 0.90256778E+02</pdfrwt>
<pdfrwt beam="2">  1       21 0.20561897E-01 0.90256778E+02</pdfrwt>
<totfact> 0.92198119E+03</totfact>
</mgrwt>
</event>
<event>
 5    1  0.1696945E+000  0.1087436E+03  0.7546771E-02  0.1262914E+00
         21   -1    0    0  503  502  0.00000000000E+00  0.00000000000E+00  0.10556973786E+03  0.10556973786E+03  0.00000000000E+00 0.  1.
         21   -1    0    0  501  503 -0.00000000000E+00 -0.00000000000E+00 -0.17406854143E+03  0.17406854143E+03  0.00000000000E+00 0. -1.
         24    1    1    2    0    0  0.31467917991E+02 -0.61918750135E+02 -0.27858951079E+02  0.10985216698E+03  0.80419002446E+02 0. -1.
          1    1    1    2  501    0 -0.61717274711E+02  0.46499969986E+02 -0.84378663469E+02  0.11441603059E+03  0.00000000000E+00 0. -1.
         -2    1    1    2    0  502  0.30249356721E+02  0.15418780149E+02  0.43738810986E+02  0.55370081721E+02  0.00000000000E+00 0.  1.
<mgrwt>
<rscale>  2 0.10874362E+03</rscale>
<asrwt>0</asrwt>
<pdfrwt beam="1">  1       21 0.16241498E-01 0.10874362E+03</pdfrwt>
<pdfrwt beam="2">  1       21 0.26779775E-01 0.10874362E+03</pdfrwt>
<totfact> 0.45527595E+05</totfact>
</mgrwt>
</event>
<event>
 5    1  0.2210722E+000  0.6911694E+02  0.7546771E-02  0.1363122E+00
         21   -1    0    0  501  502  0.00000000000E+00  0.00000000000E+00  0.29863264256E+03  0.29863264256E+03  0.00000000000E+00 0.  1.
         21   -1    0    0  502  503 -0.00000000000E+00 -0.00000000000E+00 -0.15164892111E+03  0.15164892111E+03  0.00000000000E+00 0.  1.
         24    1    1    2    0    0 -0.14854690497E+02 -0.28102708749E+02  0.18690260604E+03  0.20593742779E+03  0.80419002446E+02 0.  1.
          1    1    1    2  501    0  0.22097986899E+02 -0.65196612151E+00  0.99438734928E+02  0.10186661911E+03  0.00000000000E+00 0. -1.
         -2    1    1    2    0  503 -0.72432964017E+01  0.28754674870E+02 -0.13935761951E+03  0.14247751677E+03  0.00000000000E+00 0.  1.
<mgrwt>
<rscale>  2 0.69116944E+02</rscale>
<asrwt>0</asrwt>
<pdfrwt beam="1">  1       21 0.45943483E-01 0.69116944E+02</pdfrwt>
<pdfrwt beam="2">  1       21 0.23330603E-01 0.69116944E+02</pdfrwt>
<totfact> 0.83325932E+04</totfact>
</mgrwt>
</event>
<event>
 5    1  0.1696945E+000  0.8747055E+02  0.7546771E-02  0.1309095E+00
         21   -1    0    0  501  502  0.00000000000E+00  0.00000000000E+00  0.10514143106E+03  0.10514143106E+03  0.00000000000E+00 0.  1.
         21   -1    0    0  502  503 -0.00000000000E+00 -0.00000000000E+00 -0.82813220855E+02  0.82813220855E+02  0.00000000000E+00 0. -1.
         24    1    1    2    0    0  0.13827542111E+02 -0.18481978081E+02 -0.20017218188E+02  0.86027259709E+02  0.80419002446E+02 0. -1.
          1    1    1    2  501    0 -0.50795735388E+02  0.19190990021E+02  0.33856850709E+02  0.63990524076E+02  0.00000000000E+00 0. -1.
         -2    1    1    2    0  503  0.36968193278E+02 -0.70901193909E+00  0.84885776790E+01  0.37936868126E+02  0.00000000000E+00 0.  1.
<mgrwt>
<rscale>  2 0.87470548E+02</rscale>
<asrwt>0</asrwt>
<pdfrwt beam="1">  1       21 0.16175605E-01 0.87470548E+02</pdfrwt>
<pdfrwt beam="2">  1       21 0.12740495E-01 0.87470548E+02</pdfrwt>
<totfact> 0.17715965E+06</totfact>
</mgrwt>
</event>
<event>
 5    1  0.1696945E+000  0.1299687E+03  0.7546771E-02  0.1227502E+00
         21   -1    0    0  503  502  0.00000000000E+00  0.00000000000E+00  0.47534465669E+02  0.47534465669E+02  0.00000000000E+00 0.  1.
         21   -1    0    0  501  503 -0.00000000000E+00 -0.00000000000E+00 -0.61365939301E+03  0.61365939301E+03  0.00000000000E+00 0.  1.
         24    1    1    2    0    0  0.10664338361E+02 -0.11243297984E+03 -0.37615492624E+03  0.40089231417E+03  0.80419002446E+02 0.  1.
          1    1    1    2  501    0 -0.16705600760E+02  0.11737062109E+02 -0.15065819842E+03  0.15203528694E+03  0.00000000000E+00 0. -1.
         -2    1    1    2    0  502  0.60412623991E+01  0.10069591773E+03 -0.39311802679E+02  0.10826625757E+03  0.00000000000E+00 0.  1.
<mgrwt>
<rscale>  2 0.12996869E+03</rscale>
<asrwt>0</asrwt>
<pdfrwt beam="1">  1       21 0.73129950E-02 0.12996869E+03</pdfrwt>
<pdfrwt beam="2">  1       21 0.94409133E-01 0.12996869E+03</pdfrwt>
<totfact> 0.13494882E+05</totfact>
</mgrwt>
</event>
<event>
 5    1  0.1696945E+000  0.1164977E+03  0.7546771E-02  0.1248989E+00
         21   -1    0    0  503  502  0.00000000000E+00  0.00000000000E+00  0.58368671391E+03  0.58368671391E+03  0.00000000000E+00 0.  1.
         21   -1    0    0  501  503 -0.00000000000E+00 -0.00000000000E+00 -0.16521737501E+03  0.16521737501E+03  0.00000000000E+00 0. -1.
         24    1    1    2    0    0 -0.66415310938E+02  0.16391432423E+02  0.22399368645E+03  0.24762887576E+03  0.80419002446E+02 0.  1.
          1    1    1    2  501    0 -0.29662134183E+02 -0.92638981725E+01 -0.14505215147E+03  0.14834348203E+03  0.00000000000E+00 0. -1.
         -2    1    1    2    0  502  0.96077445120E+02 -0.71275342507E+01  0.33952780392E+03  0.35293173113E+03  0.00000000000E+00 0.  1.
<mgrwt>
<rscale>  2 0.11649770E+03</rscale>
<asrwt>0</asrwt>
<pdfrwt beam="1">  1       21 0.89797955E-01 0.11649770E+03</pdfrwt>
<pdfrwt beam="2">  1       21 0.25418058E-01 0.11649770E+03</pdfrwt>
<totfact> 0.16378937E+04</totfact>
</mgrwt>
</event>
<event>
 5    1  0.1696945E+000  0.8628751E+02  0.7546771E-02  0.1312099E+00
         21   -1    0    0  501  502  0.00000000000E+00  0.00000000000E+00  0.14840478231E+04  0.14840478231E+04  0.00000000000E+00 0. -1.
         21   -1    0    0  502  503 -0.00000000000E+00 -0.00000000000E+00 -0.62136837745E+01  0.62136837745E+01  0.00000000000E+00 0.  1.
         24    1    1    2    0    0 -0.47884389368E+02  0.41839730213E+02  0.82056334226E+03  0.82694310105E+03  0.80419002446E+02 0. -1.
          1    1    1    2  501    0  0.20380751998E+02 -0.48338184208E+00  0.43879195330E+03  0.43926528089E+03  0.00000000000E+00 0. -1.
         -2    1    1    2    0  503  0.27503637370E+02 -0.41356348371E+02  0.21847884375E+03  0.22405312492E+03  0.00000000000E+00 0.  1.
<mgrwt>
<rscale>  2 0.86287512E+02</rscale>
<asrwt>0</asrwt>
<pdfrwt beam="1">  1       21 0.22831477E+00 0.86287512E+02</pdfrwt>
<pdfrwt beam="2">  1       21 0.95595253E-03 0.86287512E+02</pdfrwt>
<totfact> 0.38363626E+05</totfact>
</mgrwt>
</event>
<event>
 5    1  0.1696945E+000  0.1108310E+03  0.7546771E-02  0.1259039E+00
         21   -1    0    0  501  502  0.00000000000E+00  0.00000000000E+00  0.22784685562E+03  0.22784685562E+03  0.00000000000E+00 0. -1.
         21   -1    0    0  502  503 -0.00000000000E+00 -0.00000000000E+00 -0.11295343437E+03  0.11295343437E+03  0.00000000000E+00 0.  1.
         24    1    1    2    0    0  0.56247163485E+02 -0.69283917409E+02  0.91342465202E+02  0.15091277784E+03  0.80419002446E+02 0. -1.
          1    1    1    2  501    0 -0.16085769354E+02  0.57455856919E+02  0.91997632391E+02  0.10965168414E+03  0.00000000000E+00 0. -1.
         -2    1    1    2    0  503 -0.40161394131E+02  0.11828060490E+02 -0.68446676347E+02  0.80235828010E+02  0.00000000000E+00 0.  1.
<mgrwt>
<rscale>  2 0.11083104E+03</rscale>
<asrwt>0</asrwt>
<pdfrwt beam="1">  1       21 0.35053362E-01 0.11083104E+03</pdfrwt>
<pdfrwt beam="2">  1       21 0.17377452E-01 0.11083104E+03</pdfrwt>
<totfact> 0.23978447E+05</totfact>
</mgrwt>
</event>
<event>
 5    1  0.1696945E+000  0.3320208E+03  0.7546771E-02  0.1070246E+00
         21   -1    0    0  501  502  0.00000000000E+00  0.00000000000E+00  0.78448037020E+03  0.78448037020E+03  0.00000000000E+00 0.  1.
         21   -1    0    0  502  503 -0.00000000000E+00 -0.00000000000E+00 -0.28216448939E+03  0.28216448939E+03  0.00000000000E+00 0.  1.
         24    1    1    2    0    0 -0.97293143842E+02 -0.26773936168E+03  0.21422785961E+03  0.36539172599E+03  0.80419002446E+02 0.  1.
          1    1    1    2  501    0 -0.69650449835E+02  0.14490409236E+03  0.42396133535E+03  0.45342209365E+03  0.00000000000E+00 0. -1.
         -2    1    1    2    0  503  0.16694359368E+03  0.12283526933E+03 -0.13587331415E+03  0.24783103994E+03  0.00000000000E+00 0.  1.
<mgrwt>
<rscale>  2 0.33202082E+03</rscale>
<asrwt>0</asrwt>
<pdfrwt beam="1">  1       21 0.12068929E+00 0.33202082E+03</pdfrwt>
<pdfrwt beam="2">  1       21 0.43409922E-01 0.33202082E+03</pdfrwt>
<totfact> 0.24138335E+03</totfact>
</mgrwt>
</event>
<event>
 5    1  0.1696945E+000  0.1147606E+03  0.7546771E-02  0.1252000E+00
         21   -1    0    0  501  502  0.00000000000E+00  0.00000000000E+00  0.42933474729E+02  0.42933474729E+02  0.00000000000E+00 0.  1.
         21   -1    0    0  502  503 -0.00000000000E+00 -0.00000000000E+00 -0.89311513475E+03  0.89311513475E+03  0.00000000000E+00 0.  1.
         24    1    1    2    0    0  0.92028752093E+02  0.36228469811E+02 -0.67533759797E+02  0.14425608446E+03  0.80419002446E+02 0.  1.
          1    1    1    2  501    0 -0.42201891553E+02 -0.33115258279E+01 -0.13705463957E+03  0.14344315976E+03  0.00000000000E+00 0. -1.
         -2    1    1    2    0  503 -0.49826860539E+02 -0.32916943983E+02 -0.64559326065E+03  0.64834936526E+03  0.00000000000E+00 0.  1.
<mgrwt>
<rscale>  2 0.11476062E+03</rscale>
<asrwt>0</asrwt>
<pdfrwt beam="1">  1       21 0.66051504E-02 0.11476062E+03</pdfrwt>
<pdfrwt beam="2">  1       21 0.13740232E+00 0.11476062E+03</pdfrwt>
<totfact> 0.65579472E+04</totfact>
</mgrwt>
</event>
<event>
 5    1  0.1696945E+000  0.1101312E+03  0.7546771E-02  0.1260327E+00
         21   -1    0    0  501  502  0.00000000000E+00  0.00000000000E+00  0.11273748406E+04  0.11273748406E+04  0.00000000000E+00 0. -1.
         21   -1    0    0  502  503 -0.00000000000E+00 -0.00000000000E+00 -0.14506248004E+02  0.14506248004E+02  0.00000000000E+00 0. -1.
         24    1    1    2    0    0 -0.26497163892E+02  0.85783471307E+02  0.34440611634E+03  0.36488860296E+03  0.80419002446E+02 0. -1.
          1    1    1    2  501    0 -0.21567844548E+01 -0.63224427294E+02  0.64929906284E+03  0.65237355321E+03  0.00000000000E+00 0. -1.
         -2    1    1    2    0  503  0.28653948347E+02 -0.22559044013E+02  0.11916341337E+03  0.12461893238E+03  0.00000000000E+00 0.  1.
<mgrwt>
<rscale>  2 0.11013123E+03</rscale>
<asrwt>0</asrwt>
<pdfrwt beam="1">  1       21 0.17344221E+00 0.11013123E+03</pdfrwt>
<pdfrwt beam="2">  1       21 0.22317313E-02 0.11013123E+03</pdfrwt>
<totfact> 0.21576663E+05</totfact>
</mgrwt>
</event>
<event>
 5    1  0.1696945E+000  0.8996818E+02  0.7546771E-02  0.1302929E+00
         21   -1    0    0  501  502  0.00000000000E+00  0.00000000000E+00  0.13218224421E+03  0.13218224421E+03  0.00000000000E+00 0. -1.
         21   -1    0    0  502  503 -0.00000000000E+00 -0.00000000000E+00 -0.12424686231E+03  0.12424686231E+03  0.00000000000E+00 0. -1.
         24    1    1    2    0    0  0.24520864602E+02 -0.59318080620E+02  0.16796104046E+02  0.10425561162E+03  0.80419002446E+02 0.  0.
          1    1    1    2  501    0 -0.35730185839E+02  0.33857486907E+02  0.60175182081E+02  0.77743347872E+02  0.00000000000E+00 0. -1.
         -2    1    1    2    0  503  0.11209321237E+02  0.25460593713E+02 -0.69035904220E+02  0.74430147026E+02  0.00000000000E+00 0.  1.
<mgrwt>
<rscale>  2 0.89968185E+02</rscale>
<asrwt>0</asrwt>
<pdfrwt beam="1">  1       21 0.20335730E-01 0.89968185E+02</pdfrwt>
<pdfrwt beam="2">  1       21 0.19114902E-01 0.89968185E+02</pdfrwt>
<totfact> 0.56610013E+05</totfact>
</mgrwt>
</event>
<event>
 5    1  0.1696945E+000  0.1218880E+03  0.7546771E-02  0.1240015E+00
         21   -1    0    0  503  502  0.00000000000E+00  0.00000000000E+00  0.10891586802E+04  0.10891586802E+04  0.00000000000E+00 0.  1.
         21   -1    0    0  501  503 -0.00000000000E+00 -0.00000000000E+00 -0.16225665796E+03  0.16225665796E+03  0.00000000000E+00 0. -1.
         24    1    1    2    0    0 -0.52154614971E+02 -0.44622756010E+02  0.30625592952E+02  0.11007468880E+03  0.80419002446E+02 0.  1.
          1    1    1    2  501    0 -0.13693595647E+02 -0.33313379640E+02 -0.11726749627E+03  0.12267420881E+03  0.00000000000E+00 0. -1.
         -2    1    1    2    0  502  0.65848210618E+02  0.77936135650E+02  0.10135439255E+04  0.10186664405E+04  0.00000000000E+00 0.  1.
<mgrwt>
<rscale>  2 0.12188801E+03</rscale>
<asrwt>0</asrwt>
<pdfrwt beam="1">  1       21 0.16756287E+00 0.12188801E+03</pdfrwt>
<pdfrwt beam="2">  1       21 0.24962563E-01 0.12188801E+03</pdfrwt>
<totfact> 0.36389564E+03</totfact>
</mgrwt>
</event>
<event>
 5    1  0.1696945E+000  0.7759185E+02  0.7546771E-02  0.1336028E+00
         21   -1    0    0  503  502  0.00000000000E+00  0.00000000000E+00  0.58960832164E+01  0.58960832164E+01  0.00000000000E+00 0. -1.
         21   -1    0    0  501  503 -0.00000000000E+00 -0.00000000000E+00 -0.12559613784E+04  0.12559613784E+04  0.00000000000E+00 0.  1.
         24    1    1    2    0    0  0.36924777061E+02  0.21585371692E+02 -0.62194973892E+03  0.62858417188E+03  0.80419002446E+02 0.  0.
          1    1    1    2  501    0 -0.20085863878E+02  0.14166576798E+02 -0.45671334120E+03  0.45737425579E+03  0.00000000000E+00 0. -1.
         -2    1    1    2    0  502 -0.16838913183E+02 -0.35751948489E+02 -0.17140221501E+03  0.17589903390E+03  0.00000000000E+00 0.  1.
<mgrwt>
<rscale>  2 0.77591855E+02</rscale>
<asrwt>0</asrwt>
<pdfrwt beam="1">  1       21 0.90708915E-03 0.77591855E+02</pdfrwt>
<pdfrwt beam="2">  1       21 0.19322495E+00 0.77591855E+02</pdfrwt>
<totfact> 0.67761580E+05</totfact>
</mgrwt>
</event>
<event>
 5    1  0.1696945E+000  0.7221020E+02  0.7546771E-02  0.1352734E+00
         21   -1    0    0  501  502  0.00000000000E+00  0.00000000000E+00  0.15059549287E+03  0.15059549287E+03  0.00000000000E+00 0. -1.
         21   -1    0    0  502  503 -0.00000000000E+00 -0.00000000000E+00 -0.93220126799E+02  0.93220126799E+02  0.00000000000E+00 0.  1.
         24    1    1    2    0    0 -0.12290002440E+02 -0.29983984662E+02 -0.61514955059E+01  0.86920310328E+02  0.80419002446E+02 0.  1.
          1    1    1    2  501    0 -0.14813005797E+02  0.26544102215E+02  0.10383939207E+03  0.10819719889E+03  0.00000000000E+00 0. -1.
         -2    1    1    2    0  503  0.27103008237E+02  0.34398824473E+01 -0.40312530491E+02  0.48698110449E+02  0.00000000000E+00 0.  1.
<mgrwt>
<rscale>  2 0.72210199E+02</rscale>
<asrwt>0</asrwt>
<pdfrwt beam="1">  1       21 0.23168537E-01 0.72210199E+02</pdfrwt>
<pdfrwt beam="2">  1       21 0.14341558E-01 0.72210199E+02</pdfrwt>
<totfact> 0.74396103E+05</totfact>
</mgrwt>
</event>
<event>
 5    1  0.1696945E+000  0.8319325E+02  0.7546771E-02  0.1320226E+00
         21   -1    0    0  501  502  0.00000000000E+00  0.00000000000E+00  0.32340732567E+02  0.32340732567E+02  0.00000000000E+00 0.  1.
         21   -1    0    0  502  503 -0.00000000000E+00 -0.00000000000E+00 -0.34337853281E+03  0.34337853281E+03  0.00000000000E+00 0. -1.
         24    1    1    2    0    0 -0.11188913049E+02  0.46454023064E+02 -0.28232428677E+03  0.29741786579E+03  0.80419002446E+02 0. -1.
          1    1    1    2  501    0  0.32038890358E+02 -0.15677674392E+02 -0.13666097974E+02  0.38197410954E+02  0.00000000000E+00 0. -1.
         -2    1    1    2    0  503 -0.20849977309E+02 -0.30776348672E+02 -0.15047415496E+02  0.40103988635E+02  0.00000000000E+00 0.  1.
<mgrwt>
<rscale>  2 0.83193253E+02</rscale>
<asrwt>0</asrwt>
<pdfrwt beam="1">  1       21 0.49754974E-02 0.83193253E+02</pdfrwt>
<pdfrwt beam="2">  1       21 0.52827465E-01 0.83193253E+02</pdfrwt>
<totfact> 0.92001266E+05</totfact>
</mgrwt>
</event>
<event>
 5    1  0.1696945E+000  0.1016075E+03  0.7546771E-02  0.1276951E+00
         21   -1    0    0  501  502  0.00000000000E+00  0.00000000000E+00  0.11094207050E+04  0.11094207050E+04  0.00000000000E+00 0.  1.
         21   -1    0    0  502  503 -0.00000000000E+00 -0.00000000000E+00 -0.19128304764E+02  0.19128304764E+02  0.00000000000E+00 0.  1.
         24    1    1    2    0    0  0.44597977614E+02  0.45423486739E+02  0.54751708157E+03  0.55704079143E+03  0.80419002446E+02 0.  1.
          1    1    1    2  501    0 -0.61068610192E+02 -0.10400632592E+02  0.52547691044E+03  0.52911580180E+03  0.00000000000E+00 0. -1.
         -2    1    1    2    0  503  0.16470632577E+02 -0.35022854147E+02  0.17298408185E+02  0.42392416490E+02  0.00000000000E+00 0.  1.
<mgrwt>
<rscale>  2 0.10160749E+03</rscale>
<asrwt>0</asrwt>
<pdfrwt beam="1">  1       21 0.17068006E+00 0.10160749E+03</pdfrwt>
<pdfrwt beam="2">  1       21 0.29428170E-02 0.10160749E+03</pdfrwt>
<totfact> 0.14458738E+05</totfact>
</mgrwt>
</event>
<event>
 5    1  0.1696945E+000  0.7349996E+02  0.7546771E-02  0.1348580E+00
         21   -1    0    0  503  502  0.00000000000E+00  0.00000000000E+00  0.13062996606E+03  0.13062996606E+03  0.00000000000E+00 0.  1.
         21   -1    0    0  501  503 -0.00000000000E+00 -0.00000000000E+00 -0.12036176053E+03  0.12036176053E+03  0.00000000000E+00 0. -1.
         24    1    1    2    0    0  0.11583710067E+02  0.90760671405E+01  0.93459245239E+00  0.81759689035E+02  0.80419002446E+02 0.  1.
          1    1    1    2  501    0  0.26215085489E+02  0.62208345554E+00 -0.73299094331E+02  0.77848409906E+02  0.00000000000E+00 0. -1.
         -2    1    1    2    0  502 -0.37798795556E+02 -0.96981505960E+01  0.82632707407E+02  0.91383627657E+02  0.00000000000E+00 0.  1.
<mgrwt>
<rscale>  2 0.73499961E+02</rscale>
<asrwt>0</asrwt>
<pdfrwt beam="1">  1       21 0.20096918E-01 0.73499961E+02</pdfrwt>
<pdfrwt beam="2">  1       21 0.18517194E-01 0.73499961E+02</pdfrwt>
<totfact> 0.61181975E+05</totfact>
</mgrwt>
</event>
<event>
 5    1  0.1696945E+000  0.7529167E+02  0.7546771E-02  0.1342970E+00
         21   -1    0    0  501  502  0.00000000000E+00  0.00000000000E+00  0.14596884013E+02  0.14596884013E+02  0.00000000000E+00 0.  1.
         21   -1    0    0  502  503 -0.00000000000E+00 -0.00000000000E+00 -0.46350844038E+03  0.46350844038E+03  0.00000000000E+00 0. -1.
         24    1    1    2    0    0  0.66207686878E+01  0.33897879923E+02 -0.27415507210E+03  0.28778658821E+03  0.80419002446E+02 0.  0.
          1    1    1    2  501    0 -0.29161395494E+02 -0.11686465139E+02 -0.35031196065E+02  0.47054703828E+02  0.00000000000E+00 0. -1.
         -2    1    1    2    0  503  0.22540626806E+02 -0.22211414784E+02 -0.13972528820E+03  0.14326403235E+03  0.00000000000E+00 0.  1.
<mgrwt>
<rscale>  2 0.75291674E+02</rscale>
<asrwt>0</asrwt>
<pdfrwt beam="1">  1       21 0.22456748E-02 0.75291674E+02</pdfrwt>
<pdfrwt beam="2">  1       21 0.71308981E-01 0.75291674E+02</pdfrwt>
<totfact> 0.17843044E+06</totfact>
</mgrwt>
</event>
<event>
 5    1  0.1696945E+000  0.7894662E+02  0.7546771E-02  0.1332068E+00
         21   -1    0    0  503  502  0.00000000000E+00  0.00000000000E+00  0.93842412184E+02  0.93842412184E+02  0.00000000000E+00 0. -1.
         21   -1    0    0  501  503 -0.00000000000E+00 -0.00000000000E+00 -0.89381651095E+02  0.89381651095E+02  0.00000000000E+00 0. -1.
         24    1    1    2    0    0 -0.35415306719E+02  0.38734507114E+02  0.40490754371E+02  0.10421767190E+03  0.80419002446E+02 0. -1.
          1    1    1    2  501    0  0.34917278581E+02 -0.14801841114E+02 -0.39568357568E+02  0.54808446105E+02  0.00000000000E+00 0. -1.
         -2    1    1    2    0  502  0.49802813827E+00 -0.23932666000E+02  0.35383642857E+01  0.24197945279E+02  0.00000000000E+00 0.  1.
<mgrwt>
<rscale>  2 0.78946617E+02</rscale>
<asrwt>0</asrwt>
<pdfrwt beam="1">  1       21 0.14437294E-01 0.78946617E+02</pdfrwt>
<pdfrwt beam="2">  1       21 0.13751023E-01 0.78946617E+02</pdfrwt>
<totfact> 0.18888079E+06</totfact>
</mgrwt>
</event>
<event>
 5    1  0.1696945E+000  0.7393347E+02  0.7546771E-02  0.1347206E+00
         21   -1    0    0  503  502  0.00000000000E+00  0.00000000000E+00  0.56009687118E+03  0.56009687118E+03  0.00000000000E+00 0. -1.
         21   -1    0    0  501  503 -0.00000000000E+00 -0.00000000000E+00 -0.31955283050E+02  0.31955283050E+02  0.00000000000E+00 0. -1.
         24    1    1    2    0    0 -0.35997717875E+02  0.27895359315E+02  0.45775917501E+03  0.46699535868E+03  0.80419002446E+02 0. -1.
          1    1    1    2  501    0  0.55381315104E+01 -0.24129402173E+02 -0.18577119326E+02  0.30951709360E+02  0.00000000000E+00 0. -1.
         -2    1    1    2    0  502  0.30459586365E+02 -0.37659571420E+01  0.88959532443E+02  0.94105086191E+02  0.00000000000E+00 0.  1.
<mgrwt>
<rscale>  2 0.73933467E+02</rscale>
<asrwt>0</asrwt>
<pdfrwt beam="1">  1       21 0.86168742E-01 0.73933467E+02</pdfrwt>
<pdfrwt beam="2">  1       21 0.49161978E-02 0.73933467E+02</pdfrwt>
<totfact> 0.33000306E+05</totfact>
</mgrwt>
</event>
<event>
 5    1  0.1696945E+000  0.7401212E+02  0.7546771E-02  0.1346958E+00
         21   -1    0    0  501  502  0.00000000000E+00  0.00000000000E+00  0.49379195867E+02  0.49379195867E+02  0.00000000000E+00 0. -1.
         21   -1    0    0  502  503 -0.00000000000E+00 -0.00000000000E+00 -0.58981490412E+03  0.58981490412E+03  0.00000000000E+00 0.  1.
         24    1    1    2    0    0  0.35645048270E+02 -0.62751760489E+01 -0.14484254288E+03  0.16957749108E+03  0.80419002446E+02 0. -1.
          1    1    1    2  501    0 -0.18009401993E+02 -0.20806601140E+02  0.31200001504E+02  0.41601602193E+02  0.00000000000E+00 0. -1.
         -2    1    1    2    0  503 -0.17635646277E+02  0.27081777189E+02 -0.42679316688E+03  0.42801500671E+03  0.00000000000E+00 0.  1.
<mgrwt>
<rscale>  2 0.74012118E+02</rscale>
<asrwt>0</asrwt>
<pdfrwt beam="1">  1       21 0.75967990E-02 0.74012118E+02</pdfrwt>
<pdfrwt beam="2">  1       21 0.90740759E-01 0.74012118E+02</pdfrwt>
<totfact> 0.14193696E+05</totfact>
</mgrwt>
</event>
<event>
 5    1  0.1696945E+000  0.1167167E+03  0.7546771E-02  0.1248614E+00
         21   -1    0    0  501  502  0.00000000000E+00  0.00000000000E+00  0.41293343520E+03  0.41293343520E+03  0.00000000000E+00 0. -1.
         21   -1    0    0  502  503 -0.00000000000E+00 -0.00000000000E+00 -0.62442003197E+02  0.62442003197E+02  0.00000000000E+00 0. -1.
         24    1    1    2    0    0 -0.65191641122E+02 -0.45685360695E+02  0.13073098749E+02  0.11390884127E+03  0.80419002446E+02 0. -1.
          1    1    1    2  501    0  0.41851124921E+02  0.73124544287E+02  0.28954155490E+03  0.30155103656E+03  0.00000000000E+00 0. -1.
         -2    1    1    2    0  503  0.23340516201E+02 -0.27439183592E+02  0.47876778345E+02  0.59915560562E+02  0.00000000000E+00 0.  1.
<mgrwt>
<rscale>  2 0.11671674E+03</rscale>
<asrwt>0</asrwt>
<pdfrwt beam="1">  1       21 0.63528219E-01 0.11671674E+03</pdfrwt>
<pdfrwt beam="2">  1       21 0.96064623E-02 0.11671674E+03</pdfrwt>
<totfact> 0.20387560E+05</totfact>
</mgrwt>
</event>
<event>
 5    1  0.1696945E+000  0.7336579E+02  0.7546771E-02  0.1349008E+00
         21   -1    0    0  501  502  0.00000000000E+00  0.00000000000E+00  0.39731407498E+03  0.39731407498E+03  0.00000000000E+00 0.  1.
         21   -1    0    0  502  503 -0.00000000000E+00 -0.00000000000E+00 -0.14387975312E+02  0.14387975312E+02  0.00000000000E+00 0.  1.
         24    1    1    2    0    0  0.39834739369E+01 -0.80395453688E+01  0.22321052755E+03  0.23742505747E+03  0.80419002446E+02 0.  0.
          1    1    1    2  501    0  0.30256447949E+02  0.89794764590E+01  0.10574653487E+03  0.11035584841E+03  0.00000000000E+00 0. -1.
         -2    1    1    2    0  503 -0.34239921886E+02 -0.93993109014E+00  0.53969037246E+02  0.63921144408E+02  0.00000000000E+00 0.  1.
<mgrwt>
<rscale>  2 0.73365793E+02</rscale>
<asrwt>0</asrwt>
<pdfrwt beam="1">  1       21 0.61125234E-01 0.73365793E+02</pdfrwt>
<pdfrwt beam="2">  1       21 0.22135350E-02 0.73365793E+02</pdfrwt>
<totfact> 0.25294954E+06</totfact>
</mgrwt>
</event>
<event>
 5    1  0.1696945E+000  0.8811047E+02  0.7546771E-02  0.1307493E+00
         21   -1    0    0  503  502  0.00000000000E+00  0.00000000000E+00  0.52925944623E+03  0.52925944623E+03  0.00000000000E+00 0.  1.
         21   -1    0    0  501  503 -0.00000000000E+00 -0.00000000000E+00 -0.15616002044E+02  0.15616002044E+02  0.00000000000E+00 0.  1.
         24    1    1    2    0    0  0.23371716045E+02 -0.41785711386E+02  0.26772502445E+03  0.28361274206E+03  0.80419002446E+02 0.  1.
          1    1    1    2  501    0 -0.28754502588E+02 -0.10090830880E+02  0.50300704477E+02  0.58811624342E+02  0.00000000000E+00 0. -1.
         -2    1    1    2    0  502  0.53827865434E+01  0.51876542266E+02  0.19561771525E+03  0.20245108187E+03  0.00000000000E+00 0.  1.
<mgrwt>
<rscale>  2 0.88110475E+02</rscale>
<asrwt>0</asrwt>
<pdfrwt beam="1">  1       21 0.81424516E-01 0.88110475E+02</pdfrwt>
<pdfrwt beam="2">  1       21 0.24024623E-02 0.88110475E+02</pdfrwt>
<totfact> 0.12034455E+06</totfact>
</mgrwt>
</event>
<event>
 5    1  0.1696945E+000  0.1108603E+03  0.7546771E-02  0.1258985E+00
         21   -1    0    0  501  502  0.00000000000E+00  0.00000000000E+00  0.55117664755E+03  0.55117664755E+03  0.00000000000E+00 0. -1.
         21   -1    0    0  502  503 -0.00000000000E+00 -0.00000000000E+00 -0.28602423231E+02  0.28602423231E+02  0.00000000000E+00 0.  1.
         24    1    1    2    0    0 -0.19281809348E+02 -0.14574487675E+02  0.22813244518E+03  0.24309634378E+03  0.80419002446E+02 0.  0.
          1    1    1    2  501    0 -0.16460171189E+02 -0.56145723363E+02  0.22110240647E+03  0.22871281913E+03  0.00000000000E+00 0. -1.
         -2    1    1    2    0  503  0.35741980536E+02  0.70720211038E+02  0.73339372672E+02  0.10796990787E+03  0.00000000000E+00 0.  1.
<mgrwt>
<rscale>  2 0.11086032E+03</rscale>
<asrwt>0</asrwt>
<pdfrwt beam="1">  1       21 0.84796399E-01 0.11086032E+03</pdfrwt>
<pdfrwt beam="2">  1       21 0.44003732E-02 0.11086032E+03</pdfrwt>
<totfact> 0.40852059E+05</totfact>
</mgrwt>
</event>
<event>
 5    1  0.1696945E+000  0.6612651E+02  0.7546771E-02  0.1373783E+00
         21   -1    0    0  503  502  0.00000000000E+00  0.00000000000E+00  0.14944757571E+04  0.14944757571E+04  0.00000000000E+00 0.  1.
         21   -1    0    0  501  503 -0.00000000000E+00 -0.00000000000E+00 -0.55001112794E+01  0.55001112794E+01  0.00000000000E+00 0. -1.
         24    1    1    2    0    0 -0.19328809740E+02  0.47994930691E+01  0.60756387513E+03  0.61318652655E+03  0.80419002446E+02 0.  0.
          1    1    1    2  501    0  0.15168484364E+02 -0.24748151388E+02  0.79743574728E+02  0.84862191967E+02  0.00000000000E+00 0. -1.
         -2    1    1    2    0  502  0.41603253761E+01  0.19948658319E+02  0.80166819592E+03  0.80192714982E+03  0.00000000000E+00 0.  1.
<mgrwt>
<rscale>  2 0.66126511E+02</rscale>
<asrwt>0</asrwt>
<pdfrwt beam="1">  1       21 0.22991902E+00 0.66126511E+02</pdfrwt>
<pdfrwt beam="2">  1       21 0.84617216E-03 0.66126511E+02</pdfrwt>
<totfact> 0.46134391E+05</totfact>
</mgrwt>
</event>
<event>
 5    1  0.1696945E+000  0.6838181E+02  0.7546771E-02  0.1365684E+00
         21   -1    0    0  503  502  0.00000000000E+00  0.00000000000E+00  0.43812944959E+03  0.43812944959E+03  0.00000000000E+00 0.  1.
         21   -1    0    0  501  503 -0.00000000000E+00 -0.00000000000E+00 -0.16596730768E+02  0.16596730768E+02  0.00000000000E+00 0. -1.
         24    1    1    2    0    0  0.11538119675E+01  0.82929365429E+01  0.35846920742E+03  0.36747447898E+03  0.80419002446E+02 0.  1.
          1    1    1    2  501    0 -0.21172444229E+02  0.14433380173E+02  0.12982365869E+02  0.28725192452E+02  0.00000000000E+00 0. -1.
         -2    1    1    2    0  502  0.20018632262E+02 -0.22726316716E+02  0.50081145533E+02  0.58526508925E+02  0.00000000000E+00 0.  1.
<mgrwt>
<rscale>  2 0.68381813E+02</rscale>
<asrwt>0</asrwt>
<pdfrwt beam="1">  1       21 0.67404522E-01 0.68381813E+02</pdfrwt>
<pdfrwt beam="2">  1       21 0.25533435E-02 0.68381813E+02</pdfrwt>
<totfact> 0.16327002E+06</totfact>
</mgrwt>
</event>
<event>
 5    1  0.1696945E+000  0.8039977E+02  0.7546771E-02  0.1327921E+00
         21   -1    0    0  503  502  0.00000000000E+00  0.00000000000E+00  0.62453898226E+02  0.62453898226E+02  0.00000000000E+00 0.  1.
         21   -1    0    0  501  503 -0.00000000000E+00 -0.00000000000E+00 -0.24640740225E+03  0.24640740225E+03  0.00000000000E+00 0. -1.
         24    1    1    2    0    0  0.23127052755E+02  0.34576167110E+01 -0.69965685773E+02  0.10912941319E+03  0.80419002446E+02 0.  1.
          1    1    1    2  501    0  0.45333556816E+00 -0.36474301251E+02 -0.14445763283E+03  0.14899190530E+03  0.00000000000E+00 0. -1.
         -2    1    1    2    0  502 -0.23580388323E+02  0.33016684540E+02  0.30469814575E+02  0.50739981984E+02  0.00000000000E+00 0.  1.
<mgrwt>
<rscale>  2 0.80399769E+02</rscale>
<asrwt>0</asrwt>
<pdfrwt beam="1">  1       21 0.96082922E-02 0.80399769E+02</pdfrwt>
<pdfrwt beam="2">  1       21 0.37908830E-01 0.80399769E+02</pdfrwt>
<totfact> 0.58825395E+05</totfact>
</mgrwt>
</event>
<event>
 5    1  0.1696945E+000  0.8487119E+02  0.7546771E-02  0.1315770E+00
         21   -1    0    0  501  502  0.00000000000E+00  0.00000000000E+00  0.38444100731E+02  0.38444100731E+02  0.00000000000E+00 0.  1.
         21   -1    0    0  502  503 -0.00000000000E+00 -0.00000000000E+00 -0.21227968895E+03  0.21227968895E+03  0.00000000000E+00 0. -1.
         24    1    1    2    0    0 -0.19618076391E+02 -0.25610661760E+02 -0.10704521925E+03  0.13771953324E+03  0.80419002446E+02 0.  0.
          1    1    1    2  501    0 -0.23069782017E+01 -0.26478251293E+02 -0.14562358644E+01  0.26618425251E+02  0.00000000000E+00 0. -1.
         -2    1    1    2    0  503  0.21925054593E+02  0.52088913052E+02 -0.65334133101E+02  0.86385831187E+02  0.00000000000E+00 0.  1.
<mgrwt>
<rscale>  2 0.84871191E+02</rscale>
<asrwt>0</asrwt>
<pdfrwt beam="1">  1       21 0.59144770E-02 0.84871191E+02</pdfrwt>
<pdfrwt beam="2">  1       21 0.32658414E-01 0.84871191E+02</pdfrwt>
<totfact> 0.17932070E+06</totfact>
</mgrwt>
</event>
<event>
 5    1  0.1696945E+000  0.8394746E+02  0.7546771E-02  0.1318208E+00
         21   -1    0    0  503  502  0.00000000000E+00  0.00000000000E+00  0.16546926122E+03  0.16546926122E+03  0.00000000000E+00 0. -1.
         21   -1    0    0  501  503 -0.00000000000E+00 -0.00000000000E+00 -0.57121712004E+02  0.57121712004E+02  0.00000000000E+00 0. -1.
         24    1    1    2    0    0  0.36281692709E+02 -0.30424471890E+02  0.87856760477E+02  0.12817190032E+03  0.80419002446E+02 0. -1.
          1    1    1    2  501    0 -0.49480102954E+02  0.10356213564E+02 -0.13939001720E+02  0.52438797818E+02  0.00000000000E+00 0. -1.
         -2    1    1    2    0  502  0.13198410244E+02  0.20068258326E+02  0.34429790464E+02  0.41980275089E+02  0.00000000000E+00 0.  1.
<mgrwt>
<rscale>  2 0.83947465E+02</rscale>
<asrwt>0</asrwt>
<pdfrwt beam="1">  1       21 0.25456809E-01 0.83947465E+02</pdfrwt>
<pdfrwt beam="2">  1       21 0.87879557E-02 0.83947465E+02</pdfrwt>
<totfact> 0.14699410E+06</totfact>
</mgrwt>
</event>
<event>
 5    1  0.1696945E+000  0.7794094E+02  0.7546771E-02  0.1334998E+00
         21   -1    0    0  503  502  0.00000000000E+00  0.00000000000E+00  0.79020297680E+02  0.79020297680E+02  0.00000000000E+00 0.  1.
         21   -1    0    0  501  503 -0.00000000000E+00 -0.00000000000E+00 -0.26162092268E+03  0.26162092268E+03  0.00000000000E+00 0. -1.
         24    1    1    2    0    0  0.39706107422E+02  0.14359379245E+02 -0.81491593237E+02  0.12202812160E+03  0.80419002446E+02 0.  0.
          1    1    1    2  501    0  0.44877854633E+01 -0.20002474674E+02 -0.15061945710E+03  0.15200809211E+03  0.00000000000E+00 0. -1.
         -2    1    1    2    0  502 -0.44193892885E+02  0.56430954289E+01  0.49510425331E+02  0.66605006650E+02  0.00000000000E+00 0.  1.
<mgrwt>
<rscale>  2 0.77940935E+02</rscale>
<asrwt>0</asrwt>
<pdfrwt beam="1">  1       21 0.12156969E-01 0.77940935E+02</pdfrwt>
<pdfrwt beam="2">  1       21 0.40249372E-01 0.77940935E+02</pdfrwt>
<totfact> 0.34765225E+05</totfact>
</mgrwt>
</event>
<event>
 5    1  0.1696945E+000  0.6567326E+02  0.7546771E-02  0.1375457E+00
         21   -1    0    0  503  502  0.00000000000E+00  0.00000000000E+00  0.83546768790E+03  0.83546768790E+03  0.00000000000E+00 0. -1.
         21   -1    0    0  501  503 -0.00000000000E+00 -0.00000000000E+00 -0.71756621700E+01  0.71756621700E+01  0.00000000000E+00 0. -1.
         24    1    1    2    0    0 -0.28730344058E+02  0.10622322170E+02  0.67418739511E+03  0.67965735932E+03  0.80419002446E+02 0. -1.
          1    1    1    2  501    0  0.55658010540E+01 -0.19655166541E+02  0.29234184577E+02  0.35664285511E+02  0.00000000000E+00 0. -1.
         -2    1    1    2    0  502  0.23164543004E+02  0.90328443712E+01  0.12487044604E+03  0.12732170524E+03  0.00000000000E+00 0.  1.
<mgrwt>
<rscale>  2 0.65673259E+02</rscale>
<asrwt>0</asrwt>
<pdfrwt beam="1">  1       21 0.12853341E+00 0.65673259E+02</pdfrwt>
<pdfrwt beam="2">  1       21 0.11039487E-02 0.65673259E+02</pdfrwt>
<totfact> 0.14252521E+06</totfact>
</mgrwt>
</event>
<event>
 5    1  0.1696945E+000  0.6478280E+02  0.7546771E-02  0.1378790E+00
         21   -1    0    0  501  502  0.00000000000E+00  0.00000000000E+00  0.62310936319E+02  0.62310936319E+02  0.00000000000E+00 0. -1.
         21   -1    0    0  502  503 -0.00000000000E+00 -0.00000000000E+00 -0.34647147379E+03  0.34647147379E+03  0.00000000000E+00 0. -1.
         24    1    1    2    0    0  0.35543238536E+01  0.88968478954E+00 -0.50369908635E+02  0.94961931359E+02  0.80419002446E+02 0.  1.
          1    1    1    2  501    0  0.20372930456E+02  0.10092745202E+02  0.36092300356E+02  0.42656464293E+02  0.00000000000E+00 0. -1.
         -2    1    1    2    0  503 -0.23927254309E+02 -0.10982429991E+02 -0.26988292920E+03  0.27116401446E+03  0.00000000000E+00 0.  1.
<mgrwt>
<rscale>  2 0.64782804E+02</rscale>
<asrwt>0</asrwt>
<pdfrwt beam="1">  1       21 0.95862976E-02 0.64782804E+02</pdfrwt>
<pdfrwt beam="2">  1       21 0.53303305E-01 0.64782804E+02</pdfrwt>
<totfact> 0.29895939E+05</totfact>
</mgrwt>
</event>
<event>
 5    1  0.1696945E+000  0.7910240E+02  0.7546771E-02  0.1331618E+00
         21   -1    0    0  503  502  0.00000000000E+00  0.00000000000E+00  0.29594201196E+02  0.29594201196E+02  0.00000000000E+00 0.  1.
         21   -1    0    0  501  503 -0.00000000000E+00 -0.00000000000E+00 -0.84724388148E+03  0.84724388148E+03  0.00000000000E+00 0.  1.
         24    1    1    2    0    0 -0.90607350003E+01  0.57782637101E+02 -0.54398197859E+03  0.55299596658E+03  0.80419002446E+02 0.  1.
          1    1    1    2  501    0  0.16788958124E+01 -0.29097942608E+02 -0.28901628708E+03  0.29048222519E+03  0.00000000000E+00 0. -1.
         -2    1    1    2    0  502  0.73818391880E+01 -0.28684694493E+02  0.15348585384E+02  0.33359890906E+02  0.00000000000E+00 0.  1.
<mgrwt>
<rscale>  2 0.79102400E+02</rscale>
<asrwt>0</asrwt>
<pdfrwt beam="1">  1       21 0.45529545E-02 0.79102400E+02</pdfrwt>
<pdfrwt beam="2">  1       21 0.13034520E+00 0.79102400E+02</pdfrwt>
<totfact> 0.14258995E+05</totfact>
</mgrwt>
</event>
<event>
 5    1  0.1696945E+000  0.7744425E+02  0.7546771E-02  0.1336465E+00
         21   -1    0    0  503  502  0.00000000000E+00  0.00000000000E+00  0.62687492865E+01  0.62687492865E+01  0.00000000000E+00 0. -1.
         21   -1    0    0  501  503 -0.00000000000E+00 -0.00000000000E+00 -0.11337684367E+04  0.11337684367E+04  0.00000000000E+00 0.  1.
         24    1    1    2    0    0 -0.17666805401E+02  0.14059325171E+02 -0.80750579542E+03  0.81181439148E+03  0.80419002446E+02 0.  1.
          1    1    1    2  501    0  0.43260369167E+02 -0.26582454989E+01 -0.22696368843E+03  0.23106501612E+03  0.00000000000E+00 0. -1.
         -2    1    1    2    0  502 -0.25593563765E+02 -0.11401079672E+02 -0.93030203568E+02  0.97157778380E+02  0.00000000000E+00 0.  1.
<mgrwt>
<rscale>  2 0.77444251E+02</rscale>
<asrwt>0</asrwt>
<pdfrwt beam="1">  1       21 0.96442353E-03 0.77444251E+02</pdfrwt>
<pdfrwt beam="2">  1       21 0.17442581E+00 0.77444251E+02</pdfrwt>
<totfact> 0.81339275E+05</totfact>
</mgrwt>
</event>
<event>
 5    1  0.1696945E+000  0.2536905E+03  0.7546771E-02  0.1110994E+00
         21   -1    0    0  501  502  0.00000000000E+00  0.00000000000E+00  0.93291993455E+02  0.93291993455E+02  0.00000000000E+00 0. -1.
         21   -1    0    0  502  503 -0.00000000000E+00 -0.00000000000E+00 -0.11981628902E+04  0.11981628902E+04  0.00000000000E+00 0. -1.
         24    1    1    2    0    0 -0.90738918428E+02 -0.20771939275E+03 -0.17228763256E+03  0.29585662360E+03  0.80419002446E+02 0. -1.
          1    1    1    2  501    0  0.12724156631E+03  0.18257498115E+03 -0.37357874064E+03  0.43483918338E+03  0.00000000000E+00 0. -1.
         -2    1    1    2    0  503 -0.36502647882E+02  0.25144411605E+02 -0.55900452351E+03  0.56075907664E+03  0.00000000000E+00 0.  1.
<mgrwt>
<rscale>  2 0.25369054E+03</rscale>
<asrwt>0</asrwt>
<pdfrwt beam="1">  1       21 0.14352614E-01 0.25369054E+03</pdfrwt>
<pdfrwt beam="2">  1       21 0.18433276E+00 0.25369054E+03</pdfrwt>
<totfact> 0.69007680E+03</totfact>
</mgrwt>
</event>
<event>
 5    1  0.1696945E+000  0.1844461E+03  0.7546771E-02  0.1163568E+00
         21   -1    0    0  503  502  0.00000000000E+00  0.00000000000E+00  0.23547371197E+03  0.23547371197E+03  0.00000000000E+00 0. -1.
         21   -1    0    0  501  503 -0.00000000000E+00 -0.00000000000E+00 -0.19963714033E+03  0.19963714033E+03  0.00000000000E+00 0. -1.
         24    1    1    2    0    0 -0.34293395339E+02 -0.15592536262E+03 -0.46046238320E+02  0.18459747477E+03  0.80419002446E+02 0. -1.
          1    1    1    2  501    0  0.18675528995E+02  0.16883654253E+03  0.38684796820E+01  0.16991032520E+03  0.00000000000E+00 0. -1.
         -2    1    1    2    0  502  0.15617866345E+02 -0.12911179901E+02  0.78014330282E+02  0.80603052330E+02  0.00000000000E+00 0.  1.
<mgrwt>
<rscale>  2 0.18444614E+03</rscale>
<asrwt>0</asrwt>
<pdfrwt beam="1">  1       21 0.36226725E-01 0.18444614E+03</pdfrwt>
<pdfrwt beam="2">  1       21 0.30713406E-01 0.18444614E+03</pdfrwt>
<totfact> 0.75047052E+04</totfact>
</mgrwt>
</event>
<event>
 5    1  0.1696945E+000  0.1298172E+03  0.7546771E-02  0.1227727E+00
         21   -1    0    0  503  502  0.00000000000E+00  0.00000000000E+00  0.53407118351E+03  0.53407118351E+03  0.00000000000E+00 0.  1.
         21   -1    0    0  501  503 -0.00000000000E+00 -0.00000000000E+00 -0.37949791953E+02  0.37949791953E+02  0.00000000000E+00 0.  1.
         24    1    1    2    0    0  0.29683983290E+02 -0.10986810612E+03  0.37162190006E+03  0.39689065518E+03  0.80419002446E+02 0.  1.
          1    1    1    2  501    0 -0.24830096516E+02  0.24865988599E+02  0.20345408492E+02  0.40605254940E+02  0.00000000000E+00 0. -1.
         -2    1    1    2    0  502 -0.48538867736E+01  0.85002117522E+02  0.10415408300E+03  0.13452506535E+03  0.00000000000E+00 0.  1.
<mgrwt>
<rscale>  2 0.12981719E+03</rscale>
<asrwt>0</asrwt>
<pdfrwt beam="1">  1       21 0.82164792E-01 0.12981719E+03</pdfrwt>
<pdfrwt beam="2">  1       21 0.58384299E-02 0.12981719E+03</pdfrwt>
<totfact> 0.27180420E+05</totfact>
</mgrwt>
</event>
<event>
 5    1  0.1696945E+000  0.1292513E+03  0.7546771E-02  0.1228571E+00
         21   -1    0    0  501  502  0.00000000000E+00  0.00000000000E+00  0.15966352147E+03  0.15966352147E+03  0.00000000000E+00 0. -1.
         21   -1    0    0  502  503 -0.00000000000E+00 -0.00000000000E+00 -0.20981458733E+03  0.20981458733E+03  0.00000000000E+00 0.  1.
         24    1    1    2    0    0  0.39417067632E+02  0.54189471695E+02  0.26933598429E+02  0.10808718121E+03  0.80419002446E+02 0.  0.
          1    1    1    2  501    0  0.39595509640E+02 -0.62908933843E+02  0.64893643334E+02  0.98673822699E+02  0.00000000000E+00 0. -1.
         -2    1    1    2    0  503 -0.79012577271E+02  0.87194621477E+01 -0.14197830763E+03  0.16271710489E+03  0.00000000000E+00 0.  1.
<mgrwt>
<rscale>  2 0.12925128E+03</rscale>
<asrwt>0</asrwt>
<pdfrwt beam="1">  1       21 0.24563619E-01 0.12925128E+03</pdfrwt>
<pdfrwt beam="2">  1       21 0.32279167E-01 0.12925128E+03</pdfrwt>
<totfact> 0.14761672E+05</totfact>
</mgrwt>
</event>
<event>
 5    1  0.1696945E+000  0.7050401E+02  0.7546771E-02  0.1358387E+00
         21   -1    0    0  503  502  0.00000000000E+00  0.00000000000E+00  0.10645321044E+03  0.10645321044E+03  0.00000000000E+00 0.  1.
         21   -1    0    0  501  503 -0.00000000000E+00 -0.00000000000E+00 -0.47298580395E+02  0.47298580395E+02  0.00000000000E+00 0.  1.
         24    1    1    2    0    0  0.12944136577E+02  0.45276323414E+02  0.41377152989E+02  0.10196460600E+03  0.80419002446E+02 0.  1.
          1    1    1    2  501    0 -0.11004594819E+02 -0.23448414050E+02  0.48751431859E+01  0.26357091070E+02  0.00000000000E+00 0. -1.
         -2    1    1    2    0  502 -0.19395417586E+01 -0.21827909363E+02  0.12902333870E+02  0.25430093761E+02  0.00000000000E+00 0.  1.
<mgrwt>
<rscale>  2 0.70504007E+02</rscale>
<asrwt>0</asrwt>
<pdfrwt beam="1">  1       21 0.16377417E-01 0.70504007E+02</pdfrwt>
<pdfrwt beam="2">  1       21 0.72767047E-02 0.70504007E+02</pdfrwt>
<totfact> 0.44924629E+06</totfact>
</mgrwt>
</event>
<event>
 5    1  0.1696945E+000  0.7559063E+02  0.7546771E-02  0.1342052E+00
         21   -1    0    0  501  502  0.00000000000E+00  0.00000000000E+00  0.31470591726E+02  0.31470591726E+02  0.00000000000E+00 0.  1.
         21   -1    0    0  502  503 -0.00000000000E+00 -0.00000000000E+00 -0.23798045451E+03  0.23798045451E+03  0.00000000000E+00 0.  1.
         24    1    1    2    0    0 -0.16323329743E+02 -0.30501732866E+02 -0.51630742601E+02  0.10163540888E+03  0.80419002446E+02 0.  1.
          1    1    1    2  501    0 -0.19234836867E+02  0.16771692161E+02 -0.48333973700E+02  0.54657493730E+02  0.00000000000E+00 0. -1.
         -2    1    1    2    0  503  0.35558166610E+02  0.13730040705E+02 -0.10654514648E+03  0.11315814363E+03  0.00000000000E+00 0.  1.
<mgrwt>
<rscale>  2 0.75590629E+02</rscale>
<asrwt>0</asrwt>
<pdfrwt beam="1">  1       21 0.48416297E-02 0.75590629E+02</pdfrwt>
<pdfrwt beam="2">  1       21 0.36612376E-01 0.75590629E+02</pdfrwt>
<totfact> 0.19967520E+06</totfact>
</mgrwt>
</event>
<event>
 5    1  0.1696945E+000  0.1383088E+03  0.7546771E-02  0.1215623E+00
         21   -1    0    0  503  502  0.00000000000E+00  0.00000000000E+00  0.13990135307E+03  0.13990135307E+03  0.00000000000E+00 0.  1.
         21   -1    0    0  501  503 -0.00000000000E+00 -0.00000000000E+00 -0.14508359972E+03  0.14508359972E+03  0.00000000000E+00 0.  1.
         24    1    1    2    0    0  0.11488488388E+03 -0.52112740802E+02  0.23285739773E+02  0.15140579886E+03  0.80419002446E+02 0.  1.
          1    1    1    2  501    0 -0.63982107115E+02  0.37019373595E+02 -0.31605690495E+02  0.80393182074E+02  0.00000000000E+00 0. -1.
         -2    1    1    2    0  502 -0.50902776763E+02  0.15093367206E+02  0.31377040677E+01  0.53185971859E+02  0.00000000000E+00 0.  1.
<mgrwt>
<rscale>  2 0.13830882E+03</rscale>
<asrwt>0</asrwt>
<pdfrwt beam="1">  1       21 0.21523285E-01 0.13830882E+03</pdfrwt>
<pdfrwt beam="2">  1       21 0.22320554E-01 0.13830882E+03</pdfrwt>
<totfact> 0.38144728E+05</totfact>
</mgrwt>
</event>
<event>
 5    1  0.1696945E+000  0.7640800E+02  0.7546771E-02  0.1339566E+00
         21   -1    0    0  503  502  0.00000000000E+00  0.00000000000E+00  0.27799119791E+02  0.27799119791E+02  0.00000000000E+00 0.  1.
         21   -1    0    0  501  503 -0.00000000000E+00 -0.00000000000E+00 -0.63331091370E+03  0.63331091370E+03  0.00000000000E+00 0.  1.
         24    1    1    2    0    0  0.32037239893E+02  0.44894479241E+02 -0.47642618472E+03  0.48630342837E+03  0.80419002446E+02 0.  1.
          1    1    1    2  501    0 -0.14686974641E+02 -0.24059543786E+02 -0.14200289210E+03  0.14477358266E+03  0.00000000000E+00 0. -1.
         -2    1    1    2    0  502 -0.17350265252E+02 -0.20834935455E+02  0.12917282916E+02  0.30033022453E+02  0.00000000000E+00 0.  1.
<mgrwt>
<rscale>  2 0.76408000E+02</rscale>
<asrwt>0</asrwt>
<pdfrwt beam="1">  1       21 0.42767878E-02 0.76408000E+02</pdfrwt>
<pdfrwt beam="2">  1       21 0.97432446E-01 0.76408000E+02</pdfrwt>
<totfact> 0.31464426E+05</totfact>
</mgrwt>
</event>
<event>
 5    1  0.1696945E+000  0.9862848E+02  0.7546771E-02  0.1283207E+00
         21   -1    0    0  503  502  0.00000000000E+00  0.00000000000E+00  0.17891941234E+03  0.17891941234E+03  0.00000000000E+00 0.  1.
         21   -1    0    0  501  503 -0.00000000000E+00 -0.00000000000E+00 -0.75122122884E+02  0.75122122884E+02  0.00000000000E+00 0.  1.
         24    1    1    2    0    0  0.71975288713E+02 -0.18103135850E+02  0.31135973183E+02  0.11377535099E+03  0.80419002446E+02 0.  1.
          1    1    1    2  501    0 -0.43878807958E+02 -0.13142368033E+02 -0.10588493177E+02  0.47012634611E+02  0.00000000000E+00 0. -1.
         -2    1    1    2    0  502 -0.28096480755E+02  0.31245503882E+02  0.83249809453E+02  0.93253549625E+02  0.00000000000E+00 0.  1.
<mgrwt>
<rscale>  2 0.98628479E+02</rscale>
<asrwt>0</asrwt>
<pdfrwt beam="1">  1       21 0.27526063E-01 0.98628479E+02</pdfrwt>
<pdfrwt beam="2">  1       21 0.11557250E-01 0.98628479E+02</pdfrwt>
<totfact> 0.79168570E+05</totfact>
</mgrwt>
</event>
<event>
 5    1  0.1696945E+000  0.7252247E+02  0.7546771E-02  0.1351719E+00
         21   -1    0    0  501  502  0.00000000000E+00  0.00000000000E+00  0.42650423955E+02  0.42650423955E+02  0.00000000000E+00 0. -1.
         21   -1    0    0  502  503 -0.00000000000E+00 -0.00000000000E+00 -0.13569194775E+03  0.13569194775E+03  0.00000000000E+00 0. -1.
         24    1    1    2    0    0  0.48876630555E+02  0.22091309022E+00 -0.83881499054E+02  0.12606464871E+03  0.80419002446E+02 0. -1.
          1    1    1    2  501    0 -0.28760286724E+02  0.69381541843E+01 -0.16070538411E+01  0.29628950335E+02  0.00000000000E+00 0. -1.
         -2    1    1    2    0  503 -0.20116343831E+02 -0.71590672745E+01 -0.75529708957E+01  0.22648772654E+02  0.00000000000E+00 0.  1.
<mgrwt>
<rscale>  2 0.72522469E+02</rscale>
<asrwt>0</asrwt>
<pdfrwt beam="1">  1       21 0.65616038E-02 0.72522469E+02</pdfrwt>
<pdfrwt beam="2">  1       21 0.20875684E-01 0.72522469E+02</pdfrwt>
<totfact> 0.34569103E+06</totfact>
</mgrwt>
</event>
<event>
 5    1  0.1696945E+000  0.7143848E+02  0.7546771E-02  0.1355269E+00
         21   -1    0    0  501  502  0.00000000000E+00  0.00000000000E+00  0.18068807539E+02  0.18068807539E+02  0.00000000000E+00 0. -1.
         21   -1    0    0  502  503 -0.00000000000E+00 -0.00000000000E+00 -0.53019782494E+03  0.53019782494E+03  0.00000000000E+00 0. -1.
         24    1    1    2    0    0 -0.12684933748E+02 -0.91129353008E+01 -0.45504109232E+03  0.46235653428E+03  0.80419002446E+02 0. -1.
          1    1    1    2  501    0  0.48361833924E+00 -0.24856389787E+02 -0.10528504455E+02  0.26998581555E+02  0.00000000000E+00 0. -1.
         -2    1    1    2    0  503  0.12201315409E+02  0.33969325087E+02 -0.46559420621E+02  0.58911516643E+02  0.00000000000E+00 0.  1.
<mgrwt>
<rscale>  2 0.71438481E+02</rscale>
<asrwt>0</asrwt>
<pdfrwt beam="1">  1       21 0.27798170E-02 0.71438481E+02</pdfrwt>
<pdfrwt beam="2">  1       21 0.81568884E-01 0.71438481E+02</pdfrwt>
<totfact> 0.94431241E+05</totfact>
</mgrwt>
</event>
<event>
 5    1  0.1696945E+000  0.6274384E+02  0.7546771E-02  0.1386665E+00
         21   -1    0    0  503  502  0.00000000000E+00  0.00000000000E+00  0.95416037300E+01  0.95416037300E+01  0.00000000000E+00 0. -1.
         21   -1    0    0  501  503 -0.00000000000E+00 -0.00000000000E+00 -0.43126880216E+03  0.43126880216E+03  0.00000000000E+00 0.  1.
         24    1    1    2    0    0 -0.19076052496E+02 -0.20332973404E+01 -0.23673404700E+03  0.25075536892E+03  0.80419002446E+02 0. -1.
          1    1    1    2  501    0  0.87103314064E+01  0.20143021877E+02 -0.11240298281E+03  0.11452528868E+03  0.00000000000E+00 0. -1.
         -2    1    1    2    0  502  0.10365721089E+02 -0.18109724537E+02 -0.72590168618E+02  0.75529748288E+02  0.00000000000E+00 0.  1.
<mgrwt>
<rscale>  2 0.62743838E+02</rscale>
<asrwt>0</asrwt>
<pdfrwt beam="1">  1       21 0.14679388E-02 0.62743838E+02</pdfrwt>
<pdfrwt beam="2">  1       21 0.66349058E-01 0.62743838E+02</pdfrwt>
<totfact> 0.40411503E+06</totfact>
</mgrwt>
</event>
<event>
 5    1  0.1696945E+000  0.8851297E+02  0.7546771E-02  0.1306493E+00
         21   -1    0    0  503  502  0.00000000000E+00  0.00000000000E+00  0.34892839862E+02  0.34892839862E+02  0.00000000000E+00 0. -1.
         21   -1    0    0  501  503 -0.00000000000E+00 -0.00000000000E+00 -0.25358447621E+03  0.25358447621E+03  0.00000000000E+00 0.  1.
         24    1    1    2    0    0 -0.61958059380E+02 -0.19197509250E+02 -0.13469155693E+03  0.16975387167E+03  0.80419002446E+02 0. -1.
          1    1    1    2  501    0  0.22386504193E+02  0.25173748413E+02 -0.67491472776E+02  0.75431903573E+02  0.00000000000E+00 0. -1.
         -2    1    1    2    0  502  0.39571555187E+02 -0.59762391628E+01 -0.16508606644E+02  0.43291540834E+02  0.00000000000E+00 0.  1.
<mgrwt>
<rscale>  2 0.88512968E+02</rscale>
<asrwt>0</asrwt>
<pdfrwt beam="1">  1       21 0.53681291E-02 0.88512968E+02</pdfrwt>
<pdfrwt beam="2">  1       21 0.39012997E-01 0.88512968E+02</pdfrwt>
<totfact> 0.14938465E+06</totfact>
</mgrwt>
</event>
<event>
 5    1  0.1696945E+000  0.9486502E+02  0.7546771E-02  0.1291480E+00
         21   -1    0    0  503  502  0.00000000000E+00  0.00000000000E+00  0.19984266406E+03  0.19984266406E+03  0.00000000000E+00 0. -1.
         21   -1    0    0  501  503 -0.00000000000E+00 -0.00000000000E+00 -0.55226084524E+02  0.55226084524E+02  0.00000000000E+00 0. -1.
         24    1    1    2    0    0  0.16937598340E+02  0.59894784547E+02  0.10543075189E+03  0.14648251381E+03  0.80419002446E+02 0. -1.
          1    1    1    2  501    0 -0.40729920187E+02 -0.37826715585E+02 -0.26391975210E+01  0.55648469646E+02  0.00000000000E+00 0. -1.
         -2    1    1    2    0  502  0.23792321847E+02 -0.22068068962E+02  0.41825025169E+02  0.52937765130E+02  0.00000000000E+00 0.  1.
<mgrwt>
<rscale>  2 0.94865020E+02</rscale>
<asrwt>0</asrwt>
<pdfrwt beam="1">  1       21 0.30745025E-01 0.94865020E+02</pdfrwt>
<pdfrwt beam="2">  1       21 0.84963208E-02 0.94865020E+02</pdfrwt>
<totfact> 0.10929292E+06</totfact>
</mgrwt>
</event>
<event>
 5    1  0.1696945E+000  0.1133264E+03  0.7546771E-02  0.1254531E+00
         21   -1    0    0  501  502  0.00000000000E+00  0.00000000000E+00  0.51379598741E+02  0.51379598741E+02  0.00000000000E+00 0.  1.
         21   -1    0    0  502  503 -0.00000000000E+00 -0.00000000000E+00 -0.25311326569E+03  0.25311326569E+03  0.00000000000E+00 0. -1.
         24    1    1    2    0    0  0.50652568049E+02  0.29776181614E+02 -0.90738516436E+02  0.13473306187E+03  0.80419002446E+02 0.  1.
          1    1    1    2  501    0 -0.44262902832E+02 -0.71909827839E+02 -0.61597450183E+02  0.10452020750E+03  0.00000000000E+00 0. -1.
         -2    1    1    2    0  503 -0.63896652169E+01  0.42133646225E+02 -0.49397700329E+02  0.65239595059E+02  0.00000000000E+00 0.  1.
<mgrwt>
<rscale>  2 0.11332643E+03</rscale>
<asrwt>0</asrwt>
<pdfrwt beam="1">  1       21 0.79045537E-02 0.11332643E+03</pdfrwt>
<pdfrwt beam="2">  1       21 0.38940502E-01 0.11332643E+03</pdfrwt>
<totfact> 0.78198765E+05</totfact>
</mgrwt>
</event>
<event>
 5    1  0.1696945E+000  0.8785170E+02  0.7546771E-02  0.1308139E+00
         21   -1    0    0  501  502  0.00000000000E+00  0.00000000000E+00  0.33112120687E+02  0.33112120687E+02  0.00000000000E+00 0.  1.
         21   -1    0    0  502  503 -0.00000000000E+00 -0.00000000000E+00 -0.37629825847E+03  0.37629825847E+03  0.00000000000E+00 0.  1.
         24    1    1    2    0    0 -0.65761296214E+02 -0.17061580978E+02 -0.19620359242E+03  0.22266277475E+03  0.80419002446E+02 0.  1.
          1    1    1    2  501    0  0.24191333965E+02 -0.28079155917E+01  0.75463530118E+01  0.25496126623E+02  0.00000000000E+00 0. -1.
         -2    1    1    2    0  503  0.41569962249E+02  0.19869496570E+02 -0.15452889837E+03  0.16125147778E+03  0.00000000000E+00 0.  1.
<mgrwt>
<rscale>  2 0.87851704E+02</rscale>
<asrwt>0</asrwt>
<pdfrwt beam="1">  1       21 0.50941723E-02 0.87851704E+02</pdfrwt>
<pdfrwt beam="2">  1       21 0.57892041E-01 0.87851704E+02</pdfrwt>
<totfact> 0.73244890E+05</totfact>
</mgrwt>
</event>
<event>
 5    1  0.1696945E+000  0.7494957E+02  0.7546771E-02  0.1344027E+00
         21   -1    0    0  501  502  0.00000000000E+00  0.00000000000E+00  0.14548259927E+03  0.14548259927E+03  0.00000000000E+00 0. -1.
         21   -1    0    0  502  503 -0.00000000000E+00 -0.00000000000E+00 -0.10754236168E+03  0.10754236168E+03  0.00000000000E+00 0.  1.
         24    1    1    2    0    0  0.16904609430E+02  0.10934238712E+02  0.20640587206E+02  0.85431687276E+02  0.80419002446E+02 0.  1.
          1    1    1    2  501    0  0.10556510104E+02  0.21829600179E+02  0.84520538536E+02  0.87930044831E+02  0.00000000000E+00 0. -1.
         -2    1    1    2    0  503 -0.27461119534E+02 -0.32763838891E+02 -0.67220888151E+02  0.79663228837E+02  0.00000000000E+00 0.  1.
<mgrwt>
<rscale>  2 0.74949566E+02</rscale>
<asrwt>0</asrwt>
<pdfrwt beam="1">  1       21 0.22381938E-01 0.74949566E+02</pdfrwt>
<pdfrwt beam="2">  1       21 0.16544979E-01 0.74949566E+02</pdfrwt>
<totfact> 0.61528678E+05</totfact>
</mgrwt>
</event>
<event>
 5    1  0.1696945E+000  0.6845819E+02  0.7546771E-02  0.1365416E+00
         21   -1    0    0  503  502  0.00000000000E+00  0.00000000000E+00  0.22397074236E+03  0.22397074236E+03  0.00000000000E+00 0. -1.
         21   -1    0    0  501  503 -0.00000000000E+00 -0.00000000000E+00 -0.34625802258E+02  0.34625802258E+02  0.00000000000E+00 0. -1.
         24    1    1    2    0    0  0.23204615257E+02 -0.22612021210E+02  0.72513168426E+02  0.11302713489E+03  0.80419002446E+02 0. -1.
          1    1    1    2  501    0 -0.29632097247E+02  0.32439225000E+01  0.30416294906E+01  0.29963907128E+02  0.00000000000E+00 0. -1.
         -2    1    1    2    0  502  0.64274819896E+01  0.19368098710E+02  0.11379014219E+03  0.11560550260E+03  0.00000000000E+00 0.  1.
<mgrwt>
<rscale>  2 0.68458185E+02</rscale>
<asrwt>0</asrwt>
<pdfrwt beam="1">  1       21 0.34457036E-01 0.68458185E+02</pdfrwt>
<pdfrwt beam="2">  1       21 0.53270466E-02 0.68458185E+02</pdfrwt>
<totfact> 0.19081039E+06</totfact>
</mgrwt>
</event>
<event>
 5    1  0.1696945E+000  0.9626423E+02  0.7546771E-02  0.1288354E+00
         21   -1    0    0  503  502  0.00000000000E+00  0.00000000000E+00  0.43840227890E+02  0.43840227890E+02  0.00000000000E+00 0.  1.
         21   -1    0    0  501  503 -0.00000000000E+00 -0.00000000000E+00 -0.61836822610E+03  0.61836822610E+03  0.00000000000E+00 0. -1.
         24    1    1    2    0    0 -0.40913848467E+02 -0.12836688588E+02 -0.49928454402E+03  0.50753423079E+03  0.80419002446E+02 0. -1.
          1    1    1    2  501    0  0.69668105563E+02 -0.55834102593E+00 -0.94620326993E+02  0.11750303382E+03  0.00000000000E+00 0. -1.
         -2    1    1    2    0  502 -0.28754257097E+02  0.13395029613E+02  0.19376872809E+02  0.37171189373E+02  0.00000000000E+00 0.  1.
<mgrwt>
<rscale>  2 0.96264232E+02</rscale>
<asrwt>0</asrwt>
<pdfrwt beam="1">  1       21 0.67446502E-02 0.96264232E+02</pdfrwt>
<pdfrwt beam="2">  1       21 0.95133577E-01 0.96264232E+02</pdfrwt>
<totfact> 0.15433198E+05</totfact>
</mgrwt>
</event>
<event>
 5    1  0.1696945E+000  0.1027844E+03  0.7546771E-02  0.1274547E+00
         21   -1    0    0  503  502  0.00000000000E+00  0.00000000000E+00  0.78411236778E+02  0.78411236778E+02  0.00000000000E+00 0.  1.
         21   -1    0    0  501  503 -0.00000000000E+00 -0.00000000000E+00 -0.22161667194E+03  0.22161667194E+03  0.00000000000E+00 0. -1.
         24    1    1    2    0    0 -0.55968942886E+02 -0.53297763530E+01  0.17277995226E+02  0.99632696225E+02  0.80419002446E+02 0.  1.
          1    1    1    2  501    0  0.75754092145E+02 -0.16972490299E+02 -0.14980787167E+03  0.16872802470E+03  0.00000000000E+00 0. -1.
         -2    1    1    2    0  502 -0.19785149259E+02  0.22302266652E+02 -0.10675558718E+02  0.31667187797E+02  0.00000000000E+00 0.  1.
<mgrwt>
<rscale>  2 0.10278436E+03</rscale>
<asrwt>0</asrwt>
<pdfrwt beam="1">  1       21 0.12063267E-01 0.10278436E+03</pdfrwt>
<pdfrwt beam="2">  1       21 0.34094873E-01 0.10278436E+03</pdfrwt>
<totfact> 0.48683017E+05</totfact>
</mgrwt>
</event>
<event>
 5    1  0.1696945E+000  0.8086509E+02  0.7546771E-02  0.1326614E+00
         21   -1    0    0  503  502  0.00000000000E+00  0.00000000000E+00  0.21874403002E+03  0.21874403002E+03  0.00000000000E+00 0.  1.
         21   -1    0    0  501  503 -0.00000000000E+00 -0.00000000000E+00 -0.81723125865E+02  0.81723125865E+02  0.00000000000E+00 0.  1.
         24    1    1    2    0    0 -0.23071790899E+02  0.50906785185E+02 -0.15068979108E+02  0.99086317920E+02  0.80419002446E+02 0.  1.
          1    1    1    2  501    0 -0.19215992717E+01 -0.32986550116E+02 -0.11453296803E+02  0.34971174415E+02  0.00000000000E+00 0. -1.
         -2    1    1    2    0  502  0.24993390170E+02 -0.17920235069E+02  0.16354318006E+03  0.16640966355E+03  0.00000000000E+00 0.  1.
<mgrwt>
<rscale>  2 0.80865090E+02</rscale>
<asrwt>0</asrwt>
<pdfrwt beam="1">  1       21 0.33652927E-01 0.80865090E+02</pdfrwt>
<pdfrwt beam="2">  1       21 0.12572789E-01 0.80865090E+02</pdfrwt>
<totfact> 0.46455607E+05</totfact>
</mgrwt>
</event>
<event>
 5    1  0.1696945E+000  0.1324008E+03  0.7546771E-02  0.1223936E+00
         21   -1    0    0  501  502  0.00000000000E+00  0.00000000000E+00  0.13370646947E+03  0.13370646947E+03  0.00000000000E+00 0.  1.
         21   -1    0    0  502  503 -0.00000000000E+00 -0.00000000000E+00 -0.15097381256E+03  0.15097381256E+03  0.00000000000E+00 0.  1.
         24    1    1    2    0    0 -0.35788277636E+02  0.41929544033E+02 -0.47138764465E+02  0.10829665991E+03  0.80419002446E+02 0.  1.
          1    1    1    2  501    0 -0.59077365611E+02  0.87926111036E+01  0.34005279097E+02  0.68729936302E+02  0.00000000000E+00 0. -1.
         -2    1    1    2    0  503  0.94865643247E+02 -0.50722155136E+02 -0.41338577167E+01  0.10765368582E+03  0.00000000000E+00 0.  1.
<mgrwt>
<rscale>  2 0.13240081E+03</rscale>
<asrwt>0</asrwt>
<pdfrwt beam="1">  1       21 0.20570226E-01 0.13240081E+03</pdfrwt>
<pdfrwt beam="2">  1       21 0.23226740E-01 0.13240081E+03</pdfrwt>
<totfact> 0.38546649E+05</totfact>
</mgrwt>
</event>
<event>
 5    1  0.1696945E+000  0.7936227E+02  0.7546771E-02  0.1330871E+00
         21   -1    0    0  501  502  0.00000000000E+00  0.00000000000E+00  0.11295178116E+04  0.11295178116E+04  0.00000000000E+00 0.  1.
         21   -1    0    0  502  503 -0.00000000000E+00 -0.00000000000E+00 -0.57811188545E+01  0.57811188545E+01  0.00000000000E+00 0. -1.
         24    1    1    2    0    0  0.20150241212E+01 -0.17801031959E+02  0.55984010892E+03  0.56587021531E+03  0.80419002446E+02 0.  1.
          1    1    1    2  501    0 -0.31733188127E+02  0.30502261560E+02  0.39693384402E+03  0.39936682351E+03  0.00000000000E+00 0. -1.
         -2    1    1    2    0  503  0.29718164006E+02 -0.12701229601E+02  0.16696273978E+03  0.17006189162E+03  0.00000000000E+00 0.  1.
<mgrwt>
<rscale>  2 0.79362271E+02</rscale>
<asrwt>0</asrwt>
<pdfrwt beam="1">  1       21 0.17377180E+00 0.79362271E+02</pdfrwt>
<pdfrwt beam="2">  1       21 0.88940380E-03 0.79362271E+02</pdfrwt>
<totfact> 0.93138728E+05</totfact>
</mgrwt>
</event>
<event>
 5    1  0.1696945E+000  0.9146784E+02  0.7546771E-02  0.1299336E+00
         21   -1    0    0  503  502  0.00000000000E+00  0.00000000000E+00  0.11305527133E+03  0.11305527133E+03  0.00000000000E+00 0. -1.
         21   -1    0    0  501  503 -0.00000000000E+00 -0.00000000000E+00 -0.14042483389E+03  0.14042483389E+03  0.00000000000E+00 0.  1.
         24    1    1    2    0    0  0.20889838821E+02 -0.14630621948E+02  0.20994419057E+02  0.86939185932E+02  0.80419002446E+02 0. -1.
          1    1    1    2  501    0  0.36749926188E+02  0.17818041734E+02 -0.87660221654E+02  0.96707570265E+02  0.00000000000E+00 0. -1.
         -2    1    1    2    0  502 -0.57639765008E+02 -0.31874197860E+01  0.39296240034E+02  0.69833349024E+02  0.00000000000E+00 0.  1.
<mgrwt>
<rscale>  2 0.91467837E+02</rscale>
<asrwt>0</asrwt>
<pdfrwt beam="1">  1       21 0.17393119E-01 0.91467837E+02</pdfrwt>
<pdfrwt beam="2">  1       21 0.21603821E-01 0.91467837E+02</pdfrwt>
<totfact> 0.60120592E+05</totfact>
</mgrwt>
</event>
<event>
 5    1  0.1696945E+000  0.2066191E+03  0.7546771E-02  0.1144272E+00
         21   -1    0    0  503  502  0.00000000000E+00  0.00000000000E+00  0.54936244995E+02  0.54936244995E+02  0.00000000000E+00 0. -1.
         21   -1    0    0  501  503 -0.00000000000E+00 -0.00000000000E+00 -0.14559391267E+04  0.14559391267E+04  0.00000000000E+00 0. -1.
         24    1    1    2    0    0  0.17092963281E+03  0.90787701679E+02 -0.27660589944E+03  0.34704089919E+03  0.80419002446E+02 0. -1.
          1    1    1    2  501    0 -0.16195404257E+03 -0.61864414834E+02 -0.11198746776E+04  0.11332147243E+04  0.00000000000E+00 0. -1.
         -2    1    1    2    0  502 -0.89755902436E+01 -0.28923286845E+02 -0.45223046294E+01  0.30619748224E+02  0.00000000000E+00 0.  1.
<mgrwt>
<rscale>  2 0.20661909E+03</rscale>
<asrwt>0</asrwt>
<pdfrwt beam="1">  1       21 0.84517305E-02 0.20661909E+03</pdfrwt>
<pdfrwt beam="2">  1       21 0.22399062E+00 0.20661909E+03</pdfrwt>
<totfact> 0.10244119E+04</totfact>
</mgrwt>
</event>
<event>
 5    1  0.1696945E+000  0.6830209E+02  0.7546771E-02  0.1365964E+00
         21   -1    0    0  501  502  0.00000000000E+00  0.00000000000E+00  0.10718260775E+03  0.10718260775E+03  0.00000000000E+00 0.  1.
         21   -1    0    0  502  503 -0.00000000000E+00 -0.00000000000E+00 -0.65661704334E+02  0.65661704334E+02  0.00000000000E+00 0. -1.
         24    1    1    2    0    0  0.41775597639E+02 -0.15706608428E+02  0.85303547307E+01  0.92368181819E+02  0.80419002446E+02 0. -1.
          1    1    1    2  501    0 -0.21343456872E+02  0.79849030703E+01  0.48567651275E+02  0.53648099488E+02  0.00000000000E+00 0. -1.
         -2    1    1    2    0  503 -0.20432140767E+02  0.77217053578E+01 -0.15577102593E+02  0.26828030773E+02  0.00000000000E+00 0.  1.
<mgrwt>
<rscale>  2 0.68302095E+02</rscale>
<asrwt>0</asrwt>
<pdfrwt beam="1">  1       21 0.16489632E-01 0.68302095E+02</pdfrwt>
<pdfrwt beam="2">  1       21 0.10101801E-01 0.68302095E+02</pdfrwt>
<totfact> 0.25333045E+06</totfact>
</mgrwt>
</event>
<event>
 5    1  0.1696945E+000  0.7638525E+02  0.7546771E-02  0.1339634E+00
         21   -1    0    0  501  502  0.00000000000E+00  0.00000000000E+00  0.76885254199E+02  0.76885254199E+02  0.00000000000E+00 0. -1.
         21   -1    0    0  502  503 -0.00000000000E+00 -0.00000000000E+00 -0.14439582175E+03  0.14439582175E+03  0.00000000000E+00 0. -1.
         24    1    1    2    0    0 -0.22698864288E+02  0.17296699286E+02 -0.10392563301E+03  0.13446994979E+03  0.80419002446E+02 0. -1.
          1    1    1    2  501    0  0.16707055174E+02 -0.40321842148E+02  0.43865167463E+02  0.61879960919E+02  0.00000000000E+00 0. -1.
         -2    1    1    2    0  503  0.59918091138E+01  0.23025142862E+02 -0.74501020042E+01  0.24931165238E+02  0.00000000000E+00 0.  1.
<mgrwt>
<rscale>  2 0.76385250E+02</rscale>
<asrwt>0</asrwt>
<pdfrwt beam="1">  1       21 0.11828501E-01 0.76385250E+02</pdfrwt>
<pdfrwt beam="2">  1       21 0.22214742E-01 0.76385250E+02</pdfrwt>
<totfact> 0.11289971E+06</totfact>
</mgrwt>
</event>
<event>
 5    1  0.1696945E+000  0.7965470E+02  0.7546771E-02  0.1330034E+00
         21   -1    0    0  503  502  0.00000000000E+00  0.00000000000E+00  0.13906503438E+03  0.13906503438E+03  0.00000000000E+00 0. -1.
         21   -1    0    0  501  503 -0.00000000000E+00 -0.00000000000E+00 -0.79584981074E+02  0.79584981074E+02  0.00000000000E+00 0. -1.
         24    1    1    2    0    0 -0.38308482085E+02  0.77779842420E+01  0.90421475558E+02  0.12716641080E+03  0.80419002446E+02 0. -1.
          1    1    1    2  501    0  0.21163808959E+01  0.22565201942E+02 -0.37484437561E+02  0.43803543990E+02  0.00000000000E+00 0. -1.
         -2    1    1    2    0  502  0.36192101189E+02 -0.30343186184E+02  0.65430153131E+01  0.47680060672E+02  0.00000000000E+00 0.  1.
<mgrwt>
<rscale>  2 0.79654698E+02</rscale>
<asrwt>0</asrwt>
<pdfrwt beam="1">  1       21 0.21394621E-01 0.79654698E+02</pdfrwt>
<pdfrwt beam="2">  1       21 0.12243843E-01 0.79654698E+02</pdfrwt>
<totfact> 0.11402439E+06</totfact>
</mgrwt>
</event>
<event>
 5    1  0.1696945E+000  0.8367542E+02  0.7546771E-02  0.1318933E+00
         21   -1    0    0  501  502  0.00000000000E+00  0.00000000000E+00  0.36172504088E+02  0.36172504088E+02  0.00000000000E+00 0.  1.
         21   -1    0    0  502  503 -0.00000000000E+00 -0.00000000000E+00 -0.20203210968E+03  0.20203210968E+03  0.00000000000E+00 0. -1.
         24    1    1    2    0    0  0.59030391056E+02 -0.15431401743E+02 -0.86653783101E+02  0.13303687199E+03  0.80419002446E+02 0.  0.
          1    1    1    2  501    0 -0.30354725991E+02  0.21368619630E+02 -0.29247261729E+02  0.47259174914E+02  0.00000000000E+00 0. -1.
         -2    1    1    2    0  503 -0.28675665064E+02 -0.59372178871E+01 -0.49958560759E+02  0.57908566864E+02  0.00000000000E+00 0.  1.
<mgrwt>
<rscale>  2 0.83675418E+02</rscale>
<asrwt>0</asrwt>
<pdfrwt beam="1">  1       21 0.55650005E-02 0.83675418E+02</pdfrwt>
<pdfrwt beam="2">  1       21 0.31081864E-01 0.83675418E+02</pdfrwt>
<totfact> 0.21820550E+06</totfact>
</mgrwt>
</event>
<event>
 5    1  0.1696945E+000  0.6279011E+02  0.7546771E-02  0.1386482E+00
         21   -1    0    0  501  502  0.00000000000E+00  0.00000000000E+00  0.26993105986E+02  0.26993105986E+02  0.00000000000E+00 0. -1.
         21   -1    0    0  502  503 -0.00000000000E+00 -0.00000000000E+00 -0.29826027545E+03  0.29826027545E+03  0.00000000000E+00 0. -1.
         24    1    1    2    0    0  0.48776309147E+01  0.73577418339E+01 -0.24272924246E+03  0.25585665664E+03  0.80419002446E+02 0. -1.
          1    1    1    2  501    0 -0.22576344628E+02  0.49602412670E+01  0.10040151401E+02  0.25201189860E+02  0.00000000000E+00 0. -1.
         -2    1    1    2    0  503  0.17698713714E+02 -0.12317983101E+02 -0.38578078401E+02  0.44195534932E+02  0.00000000000E+00 0.  1.
<mgrwt>
<rscale>  2 0.62790110E+02</rscale>
<asrwt>0</asrwt>
<pdfrwt beam="1">  1       21 0.41527858E-02 0.62790110E+02</pdfrwt>
<pdfrwt beam="2">  1       21 0.45886193E-01 0.62790110E+02</pdfrwt>
<totfact> 0.16337535E+06</totfact>
</mgrwt>
</event>
<event>
 5    1  0.1696945E+000  0.2021290E+03  0.7546771E-02  0.1147955E+00
         21   -1    0    0  501  502  0.00000000000E+00  0.00000000000E+00  0.15447522179E+04  0.15447522179E+04  0.00000000000E+00 0.  1.
         21   -1    0    0  502  503 -0.00000000000E+00 -0.00000000000E+00 -0.30914364338E+02  0.30914364338E+02  0.00000000000E+00 0.  1.
         24    1    1    2    0    0  0.17694080910E+03 -0.62050108852E+02  0.69999087859E+03  0.72911776278E+03  0.80419002446E+02 0.  1.
          1    1    1    2  501    0 -0.17095489991E+02  0.33848612897E+02  0.40331837600E+03  0.40509714489E+03  0.00000000000E+00 0. -1.
         -2    1    1    2    0  503 -0.15984531910E+03  0.28201495954E+02  0.41052859896E+03  0.44145167456E+03  0.00000000000E+00 0.  1.
<mgrwt>
<rscale>  2 0.20212903E+03</rscale>
<asrwt>0</asrwt>
<pdfrwt beam="1">  1       21 0.23765413E+00 0.20212903E+03</pdfrwt>
<pdfrwt beam="2">  1       21 0.47560573E-02 0.20212903E+03</pdfrwt>
<totfact> 0.22855592E+04</totfact>
</mgrwt>
</event>
<event>
 5    1  0.1696945E+000  0.8965194E+02  0.7546771E-02  0.1303697E+00
         21   -1    0    0  503  502  0.00000000000E+00  0.00000000000E+00  0.34525376133E+03  0.34525376133E+03  0.00000000000E+00 0. -1.
         21   -1    0    0  501  503 -0.00000000000E+00 -0.00000000000E+00 -0.31188655758E+02  0.31188655758E+02  0.00000000000E+00 0.  1.
         24    1    1    2    0    0  0.35651145179E+02  0.61239837500E+02  0.25170333849E+03  0.27357468525E+03  0.80419002446E+02 0.  0.
          1    1    1    2  501    0 -0.45920182609E+01 -0.19836850488E+02 -0.17900984602E+01  0.20439954048E+02  0.00000000000E+00 0. -1.
         -2    1    1    2    0  502 -0.31059126918E+02 -0.41402987012E+02  0.64151865543E+02  0.82427777788E+02  0.00000000000E+00 0.  1.
<mgrwt>
<rscale>  2 0.89651940E+02</rscale>
<asrwt>0</asrwt>
<pdfrwt beam="1">  1       21 0.53115960E-01 0.89651940E+02</pdfrwt>
<pdfrwt beam="2">  1       21 0.47982550E-02 0.89651940E+02</pdfrwt>
<totfact> 0.96745780E+05</totfact>
</mgrwt>
</event>
<event>
 5    1  0.1696945E+000  0.6846700E+02  0.7546771E-02  0.1365385E+00
         21   -1    0    0  503  502  0.00000000000E+00  0.00000000000E+00  0.56849673996E+02  0.56849673996E+02  0.00000000000E+00 0. -1.
         21   -1    0    0  501  503 -0.00000000000E+00 -0.00000000000E+00 -0.11142515884E+03  0.11142515884E+03  0.00000000000E+00 0. -1.
         24    1    1    2    0    0  0.51403187120E+01  0.71443423902E+01 -0.67145455310E+02  0.10513416489E+03  0.80419002446E+02 0. -1.
          1    1    1    2  501    0 -0.29967567856E+02  0.76745265659E+00 -0.67184683290E+01  0.30721033893E+02  0.00000000000E+00 0. -1.
         -2    1    1    2    0  502  0.24827249144E+02 -0.79117950468E+01  0.19288438793E+02  0.32419634051E+02  0.00000000000E+00 0.  1.
<mgrwt>
<rscale>  2 0.68467003E+02</rscale>
<asrwt>0</asrwt>
<pdfrwt beam="1">  1       21 0.87461038E-02 0.68467003E+02</pdfrwt>
<pdfrwt beam="2">  1       21 0.17142332E-01 0.68467003E+02</pdfrwt>
<totfact> 0.30252812E+06</totfact>
</mgrwt>
</event>
<event>
 5    1  0.1696945E+000  0.1070478E+03  0.7546771E-02  0.1266137E+00
         21   -1    0    0  503  502  0.00000000000E+00  0.00000000000E+00  0.36470355643E+03  0.36470355643E+03  0.00000000000E+00 0.  1.
         21   -1    0    0  501  503 -0.00000000000E+00 -0.00000000000E+00 -0.23262086689E+03  0.23262086689E+03  0.00000000000E+00 0. -1.
         24    1    1    2    0    0 -0.84028092506E+02 -0.17981345173E+02  0.90165691718E+01  0.11803628077E+03  0.80419002446E+02 0.  1.
          1    1    1    2  501    0  0.36229128501E+02 -0.14057722505E+02 -0.17318946627E+03  0.17749580429E+03  0.00000000000E+00 0. -1.
         -2    1    1    2    0  502  0.47798964005E+02  0.32039067678E+02  0.29625558664E+03  0.30179233826E+03  0.00000000000E+00 0.  1.
<mgrwt>
<rscale>  2 0.10704785E+03</rscale>
<asrwt>0</asrwt>
<pdfrwt beam="1">  1       21 0.56108239E-01 0.10704785E+03</pdfrwt>
<pdfrwt beam="2">  1       21 0.35787826E-01 0.10704785E+03</pdfrwt>
<totfact> 0.23830295E+04</totfact>
</mgrwt>
</event>
<event>
 5    1  0.1696945E+000  0.6689447E+02  0.7546771E-02  0.1370984E+00
         21   -1    0    0  503  502  0.00000000000E+00  0.00000000000E+00  0.44264438702E+02  0.44264438702E+02  0.00000000000E+00 0.  1.
         21   -1    0    0  501  503 -0.00000000000E+00 -0.00000000000E+00 -0.10764570626E+03  0.10764570626E+03  0.00000000000E+00 0. -1.
         24    1    1    2    0    0  0.21949214463E+02  0.85853353021E+01 -0.21414461379E+02  0.86494341482E+02  0.80419002446E+02 0.  0.
          1    1    1    2  501    0  0.61161878356E+01 -0.19070574682E+02 -0.19650552339E+02  0.28057775742E+02  0.00000000000E+00 0. -1.
         -2    1    1    2    0  502 -0.28065402299E+02  0.10485239380E+02 -0.22316253837E+02  0.37358027737E+02  0.00000000000E+00 0.  1.
<mgrwt>
<rscale>  2 0.66894470E+02</rscale>
<asrwt>0</asrwt>
<pdfrwt beam="1">  1       21 0.68099137E-02 0.66894470E+02</pdfrwt>
<pdfrwt beam="2">  1       21 0.16560878E-01 0.66894470E+02</pdfrwt>
<totfact> 0.49040505E+06</totfact>
</mgrwt>
</event>
<event>
 5    1  0.1696945E+000  0.8101870E+02  0.7546771E-02  0.1326185E+00
         21   -1    0    0  503  502  0.00000000000E+00  0.00000000000E+00  0.18002142973E+04  0.18002142973E+04  0.00000000000E+00 0.  1.
         21   -1    0    0  501  503 -0.00000000000E+00 -0.00000000000E+00 -0.39991946410E+01  0.39991946410E+01  0.00000000000E+00 0. -1.
         24    1    1    2    0    0  0.50924765176E+02  0.41499575884E+01  0.94217194953E+03  0.94697716567E+03  0.80419002446E+02 0. -1.
          1    1    1    2  501    0 -0.41983837849E+02  0.15831408091E+02  0.37197760752E+03  0.37467401380E+03  0.00000000000E+00 0. -1.
         -2    1    1    2    0  502 -0.89409273271E+01 -0.19981365679E+02  0.48206554557E+03  0.48256231243E+03  0.00000000000E+00 0.  1.
<mgrwt>
<rscale>  2 0.81018702E+02</rscale>
<asrwt>0</asrwt>
<pdfrwt beam="1">  1       21 0.27695540E+00 0.81018702E+02</pdfrwt>
<pdfrwt beam="2">  1       21 0.61526215E-03 0.81018702E+02</pdfrwt>
<totfact> 0.40849966E+05</totfact>
</mgrwt>
</event>
<event>
 5    1  0.2405412E+000  0.1173036E+03  0.7546771E-02  0.1247613E+00
         21   -1    0    0  503  502  0.00000000000E+00  0.00000000000E+00  0.13743669637E+03  0.13743669637E+03  0.00000000000E+00 0. -1.
         21   -1    0    0  501  503 -0.00000000000E+00 -0.00000000000E+00 -0.57423482885E+03  0.57423482885E+03  0.00000000000E+00 0. -1.
         24    1    1    2    0    0 -0.17532195656E+02 -0.74587978526E+02  0.83784775902E+02  0.13913248741E+03  0.80419002446E+02 0. -1.
          1    1    1    2  501    0 -0.39583419607E+02  0.19295882195E+02 -0.48230048525E+03  0.48430665518E+03  0.00000000000E+00 0. -1.
         -2    1    1    2    0  502  0.57115615263E+02  0.55292096331E+02 -0.38282423129E+02  0.88232382628E+02  0.00000000000E+00 0.  1.
<mgrwt>
<rscale>  2 0.11730359E+03</rscale>
<asrwt>0</asrwt>
<pdfrwt beam="1">  1       21 0.21144107E-01 0.11730359E+03</pdfrwt>
<pdfrwt beam="2">  1       21 0.88343820E-01 0.11730359E+03</pdfrwt>
<totfact> 0.23970241E+04</totfact>
</mgrwt>
</event>
<event>
 5    1  0.1696945E+000  0.8802903E+02  0.7546771E-02  0.1307696E+00
         21   -1    0    0  503  502  0.00000000000E+00  0.00000000000E+00  0.30254371228E+02  0.30254371228E+02  0.00000000000E+00 0. -1.
         21   -1    0    0  501  503 -0.00000000000E+00 -0.00000000000E+00 -0.33073817907E+03  0.33073817907E+03  0.00000000000E+00 0.  1.
         24    1    1    2    0    0  0.73380818818E+01  0.66755756325E+01 -0.11701909827E+03  0.14233445145E+03  0.80419002446E+02 0.  1.
          1    1    1    2  501    0 -0.34096147608E+02 -0.39825802937E+02 -0.16332905150E+03  0.17153722897E+03  0.00000000000E+00 0. -1.
         -2    1    1    2    0  502  0.26758065727E+02  0.33150227304E+02 -0.20135658082E+02  0.47120869879E+02  0.00000000000E+00 0.  1.
<mgrwt>
<rscale>  2 0.88029031E+02</rscale>
<asrwt>0</asrwt>
<pdfrwt beam="1">  1       21 0.46545184E-02 0.88029031E+02</pdfrwt>
<pdfrwt beam="2">  1       21 0.50882799E-01 0.88029031E+02</pdfrwt>
<totfact> 0.11109246E+06</totfact>
</mgrwt>
</event>
<event>
 5    1  0.1696945E+000  0.7677844E+02  0.7546771E-02  0.1338451E+00
         21   -1    0    0  503  502  0.00000000000E+00  0.00000000000E+00  0.31624599822E+02  0.31624599822E+02  0.00000000000E+00 0. -1.
         21   -1    0    0  501  503 -0.00000000000E+00 -0.00000000000E+00 -0.48161226617E+03  0.48161226617E+03  0.00000000000E+00 0. -1.
         24    1    1    2    0    0  0.13780928163E+01  0.10740563710E+02 -0.49011272316E+02  0.94797571789E+02  0.80419002446E+02 0. -1.
          1    1    1    2  501    0  0.29422778130E+02 -0.24869512659E+02 -0.37160046032E+03  0.37359215014E+03  0.00000000000E+00 0. -1.
         -2    1    1    2    0  502 -0.30800870946E+02  0.14128948949E+02 -0.29375933710E+02  0.44847144065E+02  0.00000000000E+00 0.  1.
<mgrwt>
<rscale>  2 0.76778440E+02</rscale>
<asrwt>0</asrwt>
<pdfrwt beam="1">  1       21 0.48653230E-02 0.76778440E+02</pdfrwt>
<pdfrwt beam="2">  1       21 0.74094195E-01 0.76778440E+02</pdfrwt>
<totfact> 0.46758257E+05</totfact>
</mgrwt>
</event>
<event>
 5    1  0.1696945E+000  0.7985077E+02  0.7546771E-02  0.1329475E+00
         21   -1    0    0  503  502  0.00000000000E+00  0.00000000000E+00  0.13459324157E+03  0.13459324157E+03  0.00000000000E+00 0.  1.
         21   -1    0    0  501  503 -0.00000000000E+00 -0.00000000000E+00 -0.92659264791E+02  0.92659264791E+02  0.00000000000E+00 0. -1.
         24    1    1    2    0    0 -0.53517436371E+02  0.26126165602E+02  0.89246660917E+02  0.13408532718E+03  0.80419002446E+02 0.  1.
          1    1    1    2  501    0  0.26068745773E+02 -0.11033003987E+02 -0.54152176259E+02  0.61104540557E+02  0.00000000000E+00 0. -1.
         -2    1    1    2    0  502  0.27448690598E+02 -0.15093161614E+02  0.68394921159E+01  0.32062638623E+02  0.00000000000E+00 0.  1.
<mgrwt>
<rscale>  2 0.79850768E+02</rscale>
<asrwt>0</asrwt>
<pdfrwt beam="1">  1       21 0.20706653E-01 0.79850768E+02</pdfrwt>
<pdfrwt beam="2">  1       21 0.14255272E-01 0.79850768E+02</pdfrwt>
<totfact> 0.92617151E+05</totfact>
</mgrwt>
</event>
<event>
 5    1  0.1696945E+000  0.9558421E+02  0.7546771E-02  0.1289866E+00
         21   -1    0    0  501  502  0.00000000000E+00  0.00000000000E+00  0.61331830832E+02  0.61331830832E+02  0.00000000000E+00 0.  1.
         21   -1    0    0  502  503 -0.00000000000E+00 -0.00000000000E+00 -0.17063996609E+03  0.17063996609E+03  0.00000000000E+00 0. -1.
         24    1    1    2    0    0  0.64924731883E+02  0.42764083229E+02 -0.82913824313E+02  0.13923327850E+03  0.80419002446E+02 0.  1.
          1    1    1    2  501    0 -0.48267732096E+02 -0.22999150000E+02  0.30554622140E+01  0.53554371546E+02  0.00000000000E+00 0. -1.
         -2    1    1    2    0  503 -0.16656999787E+02 -0.19764933229E+02 -0.29449773158E+02  0.39184146878E+02  0.00000000000E+00 0.  1.
<mgrwt>
<rscale>  2 0.95584210E+02</rscale>
<asrwt>0</asrwt>
<pdfrwt beam="1">  1       21 0.94356663E-02 0.95584210E+02</pdfrwt>
<pdfrwt beam="2">  1       21 0.26252302E-01 0.95584210E+02</pdfrwt>
<totfact> 0.12320023E+06</totfact>
</mgrwt>
</event>
<event>
 5    1  0.1696945E+000  0.6847765E+02  0.7546771E-02  0.1365348E+00
         21   -1    0    0  501  502  0.00000000000E+00  0.00000000000E+00  0.91069564069E+02  0.91069564069E+02  0.00000000000E+00 0.  1.
         21   -1    0    0  502  503 -0.00000000000E+00 -0.00000000000E+00 -0.13762907900E+03  0.13762907900E+03  0.00000000000E+00 0.  1.
         24    1    1    2    0    0 -0.22456104172E+01 -0.28942542080E+02  0.26937163988E+02  0.89641175061E+02  0.80419002446E+02 0.  1.
          1    1    1    2  501    0  0.20846296143E+02  0.55531938988E+01  0.26799572555E+02  0.34403824126E+02  0.00000000000E+00 0. -1.
         -2    1    1    2    0  503 -0.18600685726E+02  0.23389348181E+02 -0.10029625148E+03  0.10465364389E+03  0.00000000000E+00 0.  1.
<mgrwt>
<rscale>  2 0.68477645E+02</rscale>
<asrwt>0</asrwt>
<pdfrwt beam="1">  1       21 0.14010702E-01 0.68477645E+02</pdfrwt>
<pdfrwt beam="2">  1       21 0.21173704E-01 0.68477645E+02</pdfrwt>
<totfact> 0.91335506E+05</totfact>
</mgrwt>
</event>
<event>
 5    1  0.1696945E+000  0.8476787E+02  0.7546771E-02  0.1316041E+00
         21   -1    0    0  503  502  0.00000000000E+00  0.00000000000E+00  0.90334871108E+01  0.90334871108E+01  0.00000000000E+00 0. -1.
         21   -1    0    0  501  503 -0.00000000000E+00 -0.00000000000E+00 -0.11342866071E+04  0.11342866071E+04  0.00000000000E+00 0.  1.
         24    1    1    2    0    0  0.75032196162E+01  0.88765706447E+01 -0.42302449332E+03  0.43075750686E+03  0.80419002446E+02 0.  1.
          1    1    1    2  501    0  0.50956983700E+01 -0.47439449948E+02 -0.60929159509E+03  0.61115686645E+03  0.00000000000E+00 0. -1.
         -2    1    1    2    0  502 -0.12598917986E+02  0.38562879304E+02 -0.92937031582E+02  0.10140572091E+03  0.00000000000E+00 0.  1.
<mgrwt>
<rscale>  2 0.84767869E+02</rscale>
<asrwt>0</asrwt>
<pdfrwt beam="1">  1       21 0.13897671E-02 0.84767869E+02</pdfrwt>
<pdfrwt beam="2">  1       21 0.17450565E+00 0.84767869E+02</pdfrwt>
<totfact> 0.45739480E+05</totfact>
</mgrwt>
</event>
<event>
 5    1  0.1696945E+000  0.8105400E+02  0.7546771E-02  0.1326087E+00
         21   -1    0    0  501  502  0.00000000000E+00  0.00000000000E+00  0.34518833342E+02  0.34518833342E+02  0.00000000000E+00 0. -1.
         21   -1    0    0  502  503 -0.00000000000E+00 -0.00000000000E+00 -0.23824756310E+03  0.23824756310E+03  0.00000000000E+00 0.  1.
         24    1    1    2    0    0 -0.40180731764E+02  0.22828181120E+01 -0.14729423424E+03  0.17257609874E+03  0.80419002446E+02 0.  1.
          1    1    1    2  501    0 -0.37614837629E+01 -0.23207810428E+02  0.26293383711E+01  0.23657232408E+02  0.00000000000E+00 0. -1.
         -2    1    1    2    0  503  0.43942215527E+02  0.20924992315E+02 -0.59063833891E+02  0.76533065290E+02  0.00000000000E+00 0.  1.
<mgrwt>
<rscale>  2 0.81054003E+02</rscale>
<asrwt>0</asrwt>
<pdfrwt beam="1">  1       21 0.53105897E-02 0.81054003E+02</pdfrwt>
<pdfrwt beam="2">  1       21 0.36653471E-01 0.81054003E+02</pdfrwt>
<totfact> 0.17136572E+06</totfact>
</mgrwt>
</event>
<event>
 5    1  0.1696945E+000  0.1217023E+03  0.7546771E-02  0.1240315E+00
         21   -1    0    0  501  502  0.00000000000E+00  0.00000000000E+00  0.27037229255E+02  0.27037229255E+02  0.00000000000E+00 0. -1.
         21   -1    0    0  502  503 -0.00000000000E+00 -0.00000000000E+00 -0.81306186069E+03  0.81306186069E+03  0.00000000000E+00 0. -1.
         24    1    1    2    0    0 -0.18796341653E+02  0.99523472324E+02 -0.47211356728E+03  0.48950654783E+03  0.80419002446E+02 0. -1.
          1    1    1    2  501    0 -0.88761071569E+01 -0.79319261726E+02 -0.75945083874E+02  0.11017252981E+03  0.00000000000E+00 0. -1.
         -2    1    1    2    0  503  0.27672448810E+02 -0.20204210598E+02 -0.23796598028E+03  0.24042001231E+03  0.00000000000E+00 0.  1.
<mgrwt>
<rscale>  2 0.12170227E+03</rscale>
<asrwt>0</asrwt>
<pdfrwt beam="1">  1       21 0.41595744E-02 0.12170227E+03</pdfrwt>
<pdfrwt beam="2">  1       21 0.12508642E+00 0.12170227E+03</pdfrwt>
<totfact> 0.17944126E+05</totfact>
</mgrwt>
</event>
<event>
 5    1  0.1696945E+000  0.7391663E+02  0.7546771E-02  0.1347259E+00
         21   -1    0    0  501  502  0.00000000000E+00  0.00000000000E+00  0.17155069010E+03  0.17155069010E+03  0.00000000000E+00 0. -1.
         21   -1    0    0  502  503 -0.00000000000E+00 -0.00000000000E+00 -0.48112511962E+02  0.48112511962E+02  0.00000000000E+00 0. -1.
         24    1    1    2    0    0  0.15834144523E+02 -0.27384159144E+02  0.13055146718E+03  0.15656153372E+03  0.80419002446E+02 0. -1.
          1    1    1    2  501    0  0.19479049604E+02  0.73735935022E+01  0.35672518781E+01  0.21131221938E+02  0.00000000000E+00 0. -1.
         -2    1    1    2    0  503 -0.35313194127E+02  0.20010565642E+02 -0.10680540920E+02  0.41970446401E+02  0.00000000000E+00 0.  1.
<mgrwt>
<rscale>  2 0.73916632E+02</rscale>
<asrwt>0</asrwt>
<pdfrwt beam="1">  1       21 0.26392414E-01 0.73916632E+02</pdfrwt>
<pdfrwt beam="2">  1       21 0.74019250E-02 0.73916632E+02</pdfrwt>
<totfact> 0.18315274E+06</totfact>
</mgrwt>
</event>
<event>
 5    1  0.1696945E+000  0.7370504E+02  0.7546771E-02  0.1347929E+00
         21   -1    0    0  503  502  0.00000000000E+00  0.00000000000E+00  0.75879541092E+03  0.75879541092E+03  0.00000000000E+00 0. -1.
         21   -1    0    0  501  503 -0.00000000000E+00 -0.00000000000E+00 -0.12283523774E+02  0.12283523774E+02  0.00000000000E+00 0.  1.
         24    1    1    2    0    0 -0.19869647025E+02 -0.19785721754E+02  0.34018156374E+03  0.35068075214E+03  0.80419002446E+02 0.  0.
          1    1    1    2  501    0  0.34859877440E+02 -0.29776738563E+01  0.40356816530E+02  0.53411143380E+02  0.00000000000E+00 0. -1.
         -2    1    1    2    0  502 -0.14990230414E+02  0.22763395610E+02  0.36597350687E+03  0.36698703917E+03  0.00000000000E+00 0.  1.
<mgrwt>
<rscale>  2 0.73705038E+02</rscale>
<asrwt>0</asrwt>
<pdfrwt beam="1">  1       21 0.11673772E+00 0.73705038E+02</pdfrwt>
<pdfrwt beam="2">  1       21 0.18897735E-02 0.73705038E+02</pdfrwt>
<totfact> 0.77240579E+05</totfact>
</mgrwt>
</event>
<event>
 5    1  0.1696945E+000  0.6664363E+02  0.7546771E-02  0.1371893E+00
         21   -1    0    0  503  502  0.00000000000E+00  0.00000000000E+00  0.20868764704E+02  0.20868764704E+02  0.00000000000E+00 0. -1.
         21   -1    0    0  501  503 -0.00000000000E+00 -0.00000000000E+00 -0.23416832050E+03  0.23416832050E+03  0.00000000000E+00 0.  1.
         24    1    1    2    0    0  0.26142366019E+01  0.42376430510E+01 -0.91226759690E+02  0.12171413020E+03  0.80419002446E+02 0. -1.
          1    1    1    2  501    0 -0.12675768587E+01  0.24205792607E+02 -0.68340895756E+02  0.72512103677E+02  0.00000000000E+00 0. -1.
         -2    1    1    2    0  502 -0.13466597432E+01 -0.28443435658E+02 -0.53731900354E+02  0.60810851336E+02  0.00000000000E+00 0.  1.
<mgrwt>
<rscale>  2 0.66643626E+02</rscale>
<asrwt>0</asrwt>
<pdfrwt beam="1">  1       21 0.32105791E-02 0.66643626E+02</pdfrwt>
<pdfrwt beam="2">  1       21 0.36025896E-01 0.66643626E+02</pdfrwt>
<totfact> 0.40034943E+06</totfact>
</mgrwt>
</event>
<event>
 5    1  0.1696945E+000  0.8382068E+02  0.7546771E-02  0.1318546E+00
         21   -1    0    0  501  502  0.00000000000E+00  0.00000000000E+00  0.57097044522E+02  0.57097044522E+02  0.00000000000E+00 0. -1.
         21   -1    0    0  502  503 -0.00000000000E+00 -0.00000000000E+00 -0.14135683117E+03  0.14135683117E+03  0.00000000000E+00 0. -1.
         24    1    1    2    0    0 -0.90385706421E+01  0.30190383685E+02 -0.66742129740E+02  0.10915531532E+03  0.80419002446E+02 0. -1.
          1    1    1    2  501    0 -0.32061108697E+02 -0.23207949404E+02  0.80561667218E+01  0.40390907747E+02  0.00000000000E+00 0. -1.
         -2    1    1    2    0  503  0.41099679339E+02 -0.69824342818E+01 -0.25573823633E+02  0.48907652627E+02  0.00000000000E+00 0.  1.
<mgrwt>
<rscale>  2 0.83820678E+02</rscale>
<asrwt>0</asrwt>
<pdfrwt beam="1">  1       21 0.87841609E-02 0.83820678E+02</pdfrwt>
<pdfrwt beam="2">  1       21 0.21747204E-01 0.83820678E+02</pdfrwt>
<totfact> 0.19702815E+06</totfact>
</mgrwt>
</event>
<event>
 5    1  0.1696945E+000  0.9442476E+02  0.7546771E-02  0.1292477E+00
         21   -1    0    0  503  502  0.00000000000E+00  0.00000000000E+00  0.10986527615E+02  0.10986527615E+02  0.00000000000E+00 0.  1.
         21   -1    0    0  501  503 -0.00000000000E+00 -0.00000000000E+00 -0.12687571649E+04  0.12687571649E+04  0.00000000000E+00 0.  1.
         24    1    1    2    0    0  0.63874413245E+02  0.12810132522E+02 -0.30194986019E+03  0.31919425775E+03  0.80419002446E+02 0.  1.
          1    1    1    2  501    0 -0.91636116069E+01 -0.27267066134E+02 -0.55602944893E+03  0.55677303522E+03  0.00000000000E+00 0. -1.
         -2    1    1    2    0  502 -0.54710801638E+02  0.14456933612E+02 -0.39979132818E+03  0.40377639954E+03  0.00000000000E+00 0.  1.
<mgrwt>
<rscale>  2 0.94424765E+02</rscale>
<asrwt>0</asrwt>
<pdfrwt beam="1">  1       21 0.16902348E-02 0.94424765E+02</pdfrwt>
<pdfrwt beam="2">  1       21 0.19519344E+00 0.94424765E+02</pdfrwt>
<totfact> 0.24543072E+05</totfact>
</mgrwt>
</event>
<event>
 5    1  0.1696945E+000  0.9200024E+02  0.7546771E-02  0.1298079E+00
         21   -1    0    0  503  502  0.00000000000E+00  0.00000000000E+00  0.37821445271E+02  0.37821445271E+02  0.00000000000E+00 0.  1.
         21   -1    0    0  501  503 -0.00000000000E+00 -0.00000000000E+00 -0.39631203099E+03  0.39631203099E+03  0.00000000000E+00 0. -1.
         24    1    1    2    0    0 -0.56764705082E+02 -0.26020059042E+02 -0.17564282076E+03  0.20301943664E+03  0.80419002446E+02 0.  1.
          1    1    1    2  501    0  0.13115426455E+02 -0.16615216738E+02 -0.16664329487E+03  0.16798234301E+03  0.00000000000E+00 0. -1.
         -2    1    1    2    0  502  0.43649278627E+02  0.42635275780E+02 -0.16204470088E+02  0.63131696605E+02  0.00000000000E+00 0.  1.
<mgrwt>
<rscale>  2 0.92000235E+02</rscale>
<asrwt>0</asrwt>
<pdfrwt beam="1">  1       21 0.58186842E-02 0.92000235E+02</pdfrwt>
<pdfrwt beam="2">  1       21 0.60971078E-01 0.92000235E+02</pdfrwt>
<totfact> 0.52614754E+05</totfact>
</mgrwt>
</event>
<event>
 5    1  0.1696945E+000  0.1462495E+03  0.7546771E-02  0.1205159E+00
         21   -1    0    0  501  502  0.00000000000E+00  0.00000000000E+00  0.26086485731E+03  0.26086485731E+03  0.00000000000E+00 0.  1.
         21   -1    0    0  502  503 -0.00000000000E+00 -0.00000000000E+00 -0.17859997842E+03  0.17859997842E+03  0.00000000000E+00 0.  1.
         24    1    1    2    0    0  0.93241988224E+02  0.92167884349E+02 -0.81492174507E+02  0.17406084492E+03  0.80419002446E+02 0.  1.
          1    1    1    2  501    0 -0.30839580373E+00 -0.22608614245E+02  0.14627529791E+03  0.14801252421E+03  0.00000000000E+00 0. -1.
         -2    1    1    2    0  503 -0.92933592420E+02 -0.69559270104E+02  0.17481755492E+02  0.11739146661E+03  0.00000000000E+00 0.  1.
<mgrwt>
<rscale>  2 0.14624947E+03</rscale>
<asrwt>0</asrwt>
<pdfrwt beam="1">  1       21 0.40133055E-01 0.14624947E+03</pdfrwt>
<pdfrwt beam="2">  1       21 0.27476920E-01 0.14624947E+03</pdfrwt>
<totfact> 0.77098995E+04</totfact>
</mgrwt>
</event>
<event>
 5    1  0.1696945E+000  0.1039338E+03  0.7546771E-02  0.1272235E+00
         21   -1    0    0  501  502  0.00000000000E+00  0.00000000000E+00  0.26410123733E+02  0.26410123733E+02  0.00000000000E+00 0.  1.
         21   -1    0    0  502  503 -0.00000000000E+00 -0.00000000000E+00 -0.45462924229E+03  0.45462924229E+03  0.00000000000E+00 0.  1.
         24    1    1    2    0    0 -0.28949834162E+02  0.83398974758E+02 -0.20467467110E+03  0.23696501605E+03  0.80419002446E+02 0.  1.
          1    1    1    2  501    0  0.78836746448E+01 -0.30697083982E+02 -0.35206931505E+02  0.47370785478E+02  0.00000000000E+00 0. -1.
         -2    1    1    2    0  503  0.21066159517E+02 -0.52701890776E+02 -0.18833751595E+03  0.19670356449E+03  0.00000000000E+00 0.  1.
<mgrwt>
<rscale>  2 0.10393384E+03</rscale>
<asrwt>0</asrwt>
<pdfrwt beam="1">  1       21 0.40630957E-02 0.10393384E+03</pdfrwt>
<pdfrwt beam="2">  1       21 0.69942965E-01 0.10393384E+03</pdfrwt>
<totfact> 0.71350580E+05</totfact>
</mgrwt>
</event>
<event>
 5    1  0.1696945E+000  0.1553295E+03  0.7546771E-02  0.1194073E+00
         21   -1    0    0  503  502  0.00000000000E+00  0.00000000000E+00  0.52344103542E+03  0.52344103542E+03  0.00000000000E+00 0.  1.
         21   -1    0    0  501  503 -0.00000000000E+00 -0.00000000000E+00 -0.14330838876E+03  0.14330838876E+03  0.00000000000E+00 0. -1.
         24    1    1    2    0    0 -0.78892871562E+02  0.22201160923E+02  0.46924945129E+01  0.11491828483E+03  0.80419002446E+02 0. -1.
          1    1    1    2  501    0  0.13386629028E+03 -0.37038824706E+02 -0.30260618503E+02  0.14215401240E+03  0.00000000000E+00 0. -1.
         -2    1    1    2    0  502 -0.54973418719E+02  0.14837663783E+02  0.40570077066E+03  0.40967712695E+03  0.00000000000E+00 0.  1.
<mgrwt>
<rscale>  2 0.15532945E+03</rscale>
<asrwt>0</asrwt>
<pdfrwt beam="1">  1       21 0.80529389E-01 0.15532945E+03</pdfrwt>
<pdfrwt beam="2">  1       21 0.22047445E-01 0.15532945E+03</pdfrwt>
<totfact> 0.26634639E+04</totfact>
</mgrwt>
</event>
<event>
 5    1  0.1696945E+000  0.8238986E+02  0.7546771E-02  0.1322403E+00
         21   -1    0    0  501  502  0.00000000000E+00  0.00000000000E+00  0.73747032448E+02  0.73747032448E+02  0.00000000000E+00 0. -1.
         21   -1    0    0  502  503 -0.00000000000E+00 -0.00000000000E+00 -0.12125992395E+03  0.12125992395E+03  0.00000000000E+00 0.  1.
         24    1    1    2    0    0 -0.46130274030E+02  0.18078472474E+02 -0.58520024897E+02  0.11111544725E+03  0.80419002446E+02 0. -1.
          1    1    1    2  501    0  0.47956807274E+02  0.40424873598E+01  0.28231422790E+02  0.55796149515E+02  0.00000000000E+00 0. -1.
         -2    1    1    2    0  503 -0.18265332439E+01 -0.22120959834E+02 -0.17224289392E+02  0.28095359630E+02  0.00000000000E+00 0.  1.
<mgrwt>
<rscale>  2 0.82389863E+02</rscale>
<asrwt>0</asrwt>
<pdfrwt beam="1">  1       21 0.11345697E-01 0.82389863E+02</pdfrwt>
<pdfrwt beam="2">  1       21 0.18655373E-01 0.82389863E+02</pdfrwt>
<totfact> 0.16743510E+06</totfact>
</mgrwt>
</event>
<event>
 5    1  0.1696945E+000  0.1099663E+03  0.7546771E-02  0.1260632E+00
         21   -1    0    0  503  502  0.00000000000E+00  0.00000000000E+00  0.25412105056E+02  0.25412105056E+02  0.00000000000E+00 0.  1.
         21   -1    0    0  501  503 -0.00000000000E+00 -0.00000000000E+00 -0.92196258187E+03  0.92196258187E+03  0.00000000000E+00 0. -1.
         24    1    1    2    0    0  0.73677941381E+02  0.32948204517E+02 -0.44941095309E+03  0.46362856247E+03  0.80419002446E+02 0. -1.
          1    1    1    2  501    0 -0.56921585468E+02 -0.54427331194E+02 -0.44955124173E+03  0.45639754624E+03  0.00000000000E+00 0. -1.
         -2    1    1    2    0  502 -0.16756355913E+02  0.21479126677E+02  0.24117180124E+01  0.27348578209E+02  0.00000000000E+00 0.  1.
<mgrwt>
<rscale>  2 0.10996630E+03</rscale>
<asrwt>0</asrwt>
<pdfrwt beam="1">  1       21 0.39095545E-02 0.10996630E+03</pdfrwt>
<pdfrwt beam="2">  1       21 0.14184040E+00 0.10996630E+03</pdfrwt>
<totfact> 0.14611752E+05</totfact>
</mgrwt>
</event>
<event>
 5    1  0.1696945E+000  0.1239658E+03  0.7546771E-02  0.1236695E+00
         21   -1    0    0  501  502  0.00000000000E+00  0.00000000000E+00  0.21039823283E+04  0.21039823283E+04  0.00000000000E+00 0. -1.
         21   -1    0    0  502  503 -0.00000000000E+00 -0.00000000000E+00 -0.13202984964E+03  0.13202984964E+03  0.00000000000E+00 0.  1.
         24    1    1    2    0    0  0.40442508037E+02  0.75035009698E+01  0.20381267039E+03  0.22293209628E+03  0.80419002446E+02 0.  0.
          1    1    1    2  501    0  0.33593173644E+01 -0.76122349779E+02  0.18762226008E+04  0.18777691938E+04  0.00000000000E+00 0. -1.
         -2    1    1    2    0  503 -0.43801825401E+02  0.68618848810E+02 -0.10808279260E+03  0.13531088787E+03  0.00000000000E+00 0.  1.
<mgrwt>
<rscale>  2 0.12396577E+03</rscale>
<asrwt>0</asrwt>
<pdfrwt beam="1">  1       21 0.32368956E+00 0.12396577E+03</pdfrwt>
<pdfrwt beam="2">  1       21 0.20312286E-01 0.12396577E+03</pdfrwt>
<totfact> 0.63208665E+02</totfact>
</mgrwt>
</event>
<event>
 5    1  0.1696945E+000  0.1293004E+03  0.7546771E-02  0.1228498E+00
         21   -1    0    0  501  502  0.00000000000E+00  0.00000000000E+00  0.21295046249E+03  0.21295046249E+03  0.00000000000E+00 0.  1.
         21   -1    0    0  502  503 -0.00000000000E+00 -0.00000000000E+00 -0.95899422976E+02  0.95899422976E+02  0.00000000000E+00 0.  1.
         24    1    1    2    0    0 -0.58023723069E+02  0.83472019857E+02  0.51393591474E+02  0.13943761235E+03  0.80419002446E+02 0.  1.
          1    1    1    2  501    0  0.12367526027E+00 -0.69392579302E+02  0.82197322506E+02  0.10757204648E+03  0.00000000000E+00 0. -1.
         -2    1    1    2    0  503  0.57900047809E+02 -0.14079440555E+02 -0.16539874467E+02  0.61840226633E+02  0.00000000000E+00 0.  1.
<mgrwt>
<rscale>  2 0.12930038E+03</rscale>
<asrwt>0</asrwt>
<pdfrwt beam="1">  1       21 0.32761610E-01 0.12930038E+03</pdfrwt>
<pdfrwt beam="2">  1       21 0.14753757E-01 0.12930038E+03</pdfrwt>
<totfact> 0.36663844E+05</totfact>
</mgrwt>
</event>
<event>
 5    1  0.1696945E+000  0.9762567E+02  0.7546771E-02  0.1285370E+00
         21   -1    0    0  503  502  0.00000000000E+00  0.00000000000E+00  0.25154190103E+02  0.25154190103E+02  0.00000000000E+00 0.  1.
         21   -1    0    0  501  503 -0.00000000000E+00 -0.00000000000E+00 -0.38517927063E+03  0.38517927063E+03  0.00000000000E+00 0.  1.
         24    1    1    2    0    0 -0.22299940379E+02 -0.73385729964E+02 -0.22187220572E+03  0.24814762608E+03  0.80419002446E+02 0.  1.
          1    1    1    2  501    0  0.22234346640E+02  0.17658009014E+02 -0.57829027736E+02  0.64423349041E+02  0.00000000000E+00 0. -1.
         -2    1    1    2    0  502  0.65593738383E-01  0.55727720950E+02 -0.80323847074E+02  0.97762485615E+02  0.00000000000E+00 0.  1.
<mgrwt>
<rscale>  2 0.97625665E+02</rscale>
<asrwt>0</asrwt>
<pdfrwt beam="1">  1       21 0.38698752E-02 0.97625665E+02</pdfrwt>
<pdfrwt beam="2">  1       21 0.59258353E-01 0.97625665E+02</pdfrwt>
<totfact> 0.11008251E+06</totfact>
</mgrwt>
</event>
<event>
 5    1  0.1696945E+000  0.6838694E+02  0.7546771E-02  0.1365666E+00
         21   -1    0    0  501  502  0.00000000000E+00  0.00000000000E+00  0.17929265275E+02  0.17929265275E+02  0.00000000000E+00 0. -1.
         21   -1    0    0  502  503 -0.00000000000E+00 -0.00000000000E+00 -0.10632926931E+04  0.10632926931E+04  0.00000000000E+00 0.  1.
         24    1    1    2    0    0 -0.32822234672E+02  0.11826347538E+02 -0.41067447394E+03  0.41992606621E+03  0.80419002446E+02 0. -1.
          1    1    1    2  501    0  0.25392176427E+02  0.90479802640E+01 -0.74654255333E+00  0.26966384561E+02  0.00000000000E+00 0. -1.
         -2    1    1    2    0  503  0.74300582453E+01 -0.20874327802E+02 -0.63394241128E+03  0.63432950755E+03  0.00000000000E+00 0.  1.
<mgrwt>
<rscale>  2 0.68386936E+02</rscale>
<asrwt>0</asrwt>
<pdfrwt beam="1">  1       21 0.27583484E-02 0.68386936E+02</pdfrwt>
<pdfrwt beam="2">  1       21 0.16358350E+00 0.68386936E+02</pdfrwt>
<totfact> 0.18364570E+05</totfact>
</mgrwt>
</event>
<event>
 5    1  0.1696945E+000  0.9104493E+02  0.7546771E-02  0.1300341E+00
         21   -1    0    0  503  502  0.00000000000E+00  0.00000000000E+00  0.14995821565E+03  0.14995821565E+03  0.00000000000E+00 0.  1.
         21   -1    0    0  501  503 -0.00000000000E+00 -0.00000000000E+00 -0.27514488057E+03  0.27514488057E+03  0.00000000000E+00 0. -1.
         24    1    1    2    0    0  0.38000051546E+02 -0.12726769329E+02 -0.23311492352E+03  0.24983145938E+03  0.80419002446E+02 0. -1.
          1    1    1    2  501    0  0.24214615342E+02  0.17447153307E+02 -0.17915385369E+02  0.34809650782E+02  0.00000000000E+00 0. -1.
         -2    1    1    2    0  502 -0.62214666887E+02 -0.47203839781E+01  0.12584364396E+03  0.14046198606E+03  0.00000000000E+00 0.  1.
<mgrwt>
<rscale>  2 0.91044933E+02</rscale>
<asrwt>0</asrwt>
<pdfrwt beam="1">  1       21 0.23070495E-01 0.91044933E+02</pdfrwt>
<pdfrwt beam="2">  1       21 0.42329981E-01 0.91044933E+02</pdfrwt>
<totfact> 0.98888751E+04</totfact>
</mgrwt>
</event>
<event>
 5    1  0.1696945E+000  0.1094421E+03  0.7546771E-02  0.1261607E+00
         21   -1    0    0  501  502  0.00000000000E+00  0.00000000000E+00  0.72165937874E+03  0.72165937874E+03  0.00000000000E+00 0. -1.
         21   -1    0    0  502  503 -0.00000000000E+00 -0.00000000000E+00 -0.20468170669E+02  0.20468170669E+02  0.00000000000E+00 0. -1.
         24    1    1    2    0    0 -0.56720965995E+02  0.29243137475E+02  0.24573152335E+03  0.26631490119E+03  0.80419002446E+02 0. -1.
          1    1    1    2  501    0  0.83039492367E+02 -0.33534730788E+02  0.42899613062E+03  0.43824401371E+03  0.00000000000E+00 0. -1.
         -2    1    1    2    0  503 -0.26318526372E+02  0.42915933128E+01  0.26463554091E+02  0.37568634506E+02  0.00000000000E+00 0.  1.
<mgrwt>
<rscale>  2 0.10944206E+03</rscale>
<asrwt>0</asrwt>
<pdfrwt beam="1">  1       21 0.11102450E+00 0.10944206E+03</pdfrwt>
<pdfrwt beam="2">  1       21 0.31489499E-02 0.10944206E+03</pdfrwt>
<totfact> 0.38034736E+05</totfact>
</mgrwt>
</event>
<event>
 5    1  0.1824733E+000  0.7482134E+02  0.7546771E-02  0.1344425E+00
         21   -1    0    0  501  502  0.00000000000E+00  0.00000000000E+00  0.63513167047E+03  0.63513167047E+03  0.00000000000E+00 0.  1.
         21   -1    0    0  502  503 -0.00000000000E+00 -0.00000000000E+00 -0.67941050413E+02  0.67941050413E+02  0.00000000000E+00 0.  1.
         24    1    1    2    0    0 -0.34045791350E+02 -0.72356914901E+01  0.45331153474E+03  0.46170340547E+03  0.80419002446E+02 0.  1.
          1    1    1    2  501    0  0.21279654353E+02  0.29485605267E+02  0.17307538417E+03  0.17685393186E+03  0.00000000000E+00 0. -1.
         -2    1    1    2    0  503  0.12766136997E+02 -0.22249913777E+02 -0.59196298855E+02  0.64515383554E+02  0.00000000000E+00 0.  1.
<mgrwt>
<rscale>  2 0.74821338E+02</rscale>
<asrwt>0</asrwt>
<pdfrwt beam="1">  1       21 0.97712561E-01 0.74821338E+02</pdfrwt>
<pdfrwt beam="2">  1       21 0.10452470E-01 0.74821338E+02</pdfrwt>
<totfact> 0.69498670E+04</totfact>
</mgrwt>
</event>
<event>
 5    1  0.1696945E+000  0.7180773E+02  0.7546771E-02  0.1354051E+00
         21   -1    0    0  501  502  0.00000000000E+00  0.00000000000E+00  0.35170691071E+02  0.35170691071E+02  0.00000000000E+00 0.  1.
         21   -1    0    0  502  503 -0.00000000000E+00 -0.00000000000E+00 -0.46839998944E+03  0.46839998944E+03  0.00000000000E+00 0.  1.
         24    1    1    2    0    0  0.10272573559E+02 -0.44138107537E+02 -0.58111609849E+02  0.10907737372E+03  0.80419002446E+02 0.  1.
          1    1    1    2  501    0  0.75424342507E+01  0.19456319675E+02 -0.29403596789E+01  0.21073262793E+02  0.00000000000E+00 0. -1.
         -2    1    1    2    0  503 -0.17815007809E+02  0.24681787862E+02 -0.37217732884E+03  0.37342004399E+03  0.00000000000E+00 0.  1.
<mgrwt>
<rscale>  2 0.71807725E+02</rscale>
<asrwt>0</asrwt>
<pdfrwt beam="1">  1       21 0.54108756E-02 0.71807725E+02</pdfrwt>
<pdfrwt beam="2">  1       21 0.72061536E-01 0.71807725E+02</pdfrwt>
<totfact> 0.41640142E+05</totfact>
</mgrwt>
</event>
<event>
 5    1  0.1696945E+000  0.9112465E+02  0.7546771E-02  0.1300151E+00
         21   -1    0    0  501  502  0.00000000000E+00  0.00000000000E+00  0.23952074284E+03  0.23952074284E+03  0.00000000000E+00 0. -1.
         21   -1    0    0  502  503 -0.00000000000E+00 -0.00000000000E+00 -0.41804488507E+02  0.41804488507E+02  0.00000000000E+00 0.  1.
         24    1    1    2    0    0  0.25846171835E+02  0.18812966442E+02  0.36718422391E+02  0.94007503967E+02  0.80419002446E+02 0.  1.
          1    1    1    2  501    0 -0.54791830360E+02 -0.32484281110E+02  0.10462436701E+03  0.12248931123E+03  0.00000000000E+00 0. -1.
         -2    1    1    2    0  503  0.28945658525E+02  0.13671314668E+02  0.56373464934E+02  0.64828416153E+02  0.00000000000E+00 0.  1.
<mgrwt>
<rscale>  2 0.91124652E+02</rscale>
<asrwt>0</asrwt>
<pdfrwt beam="1">  1       21 0.36849344E-01 0.91124652E+02</pdfrwt>
<pdfrwt beam="2">  1       21 0.64314599E-02 0.91124652E+02</pdfrwt>
<totfact> 0.12348973E+06</totfact>
</mgrwt>
</event>
<event>
 5    1  0.1696945E+000  0.8574856E+02  0.7546771E-02  0.1313487E+00
         21   -1    0    0  503  502  0.00000000000E+00  0.00000000000E+00  0.27024629467E+04  0.27024629467E+04  0.00000000000E+00 0.  1.
         21   -1    0    0  501  503 -0.00000000000E+00 -0.00000000000E+00 -0.32356031709E+01  0.32356031709E+01  0.00000000000E+00 0. -1.
         24    1    1    2    0    0 -0.14565564597E+02  0.11318528540E+02  0.79551286437E+03  0.79978009359E+03  0.80419002446E+02 0. -1.
          1    1    1    2  501    0 -0.16692879208E+02 -0.41996264295E+02  0.73877373422E+03  0.74015469249E+03  0.00000000000E+00 0. -1.
         -2    1    1    2    0  502  0.31258443805E+02  0.30677735755E+02  0.11649407449E+04  0.11657637638E+04  0.00000000000E+00 0.  1.
<mgrwt>
<rscale>  2 0.85748557E+02</rscale>
<asrwt>0</asrwt>
<pdfrwt beam="1">  1       21 0.41576172E+00 0.85748557E+02</pdfrwt>
<pdfrwt beam="2">  1       21 0.49778726E-03 0.85748557E+02</pdfrwt>
<totfact> 0.91910860E+04</totfact>
</mgrwt>
</event>
<event>
 5    1  0.1696945E+000  0.1253508E+03  0.7546771E-02  0.1234522E+00
         21   -1    0    0  503  502  0.00000000000E+00  0.00000000000E+00  0.91641019292E+02  0.91641019292E+02  0.00000000000E+00 0. -1.
         21   -1    0    0  501  503 -0.00000000000E+00 -0.00000000000E+00 -0.34124809990E+03  0.34124809990E+03  0.00000000000E+00 0.  1.
         24    1    1    2    0    0 -0.87153092041E+02 -0.53925980390E+02 -0.16310090179E+03  0.20874097090E+03  0.80419002446E+02 0.  1.
          1    1    1    2  501    0  0.89230524307E+02  0.26721597752E+02 -0.13763729184E+03  0.16619312368E+03  0.00000000000E+00 0. -1.
         -2    1    1    2    0  502 -0.20774322667E+01  0.27204382638E+02  0.51131113017E+02  0.57955024613E+02  0.00000000000E+00 0.  1.
<mgrwt>
<rscale>  2 0.12535085E+03</rscale>
<asrwt>0</asrwt>
<pdfrwt beam="1">  1       21 0.14098619E-01 0.12535085E+03</pdfrwt>
<pdfrwt beam="2">  1       21 0.52499707E-01 0.12535085E+03</pdfrwt>
<totfact> 0.15435545E+05</totfact>
</mgrwt>
</event>
<event>
 5    1  0.1696945E+000  0.6972238E+02  0.7546771E-02  0.1361040E+00
         21   -1    0    0  503  502  0.00000000000E+00  0.00000000000E+00  0.26456571388E+03  0.26456571388E+03  0.00000000000E+00 0. -1.
         21   -1    0    0  501  503 -0.00000000000E+00 -0.00000000000E+00 -0.77398078598E+02  0.77398078598E+02  0.00000000000E+00 0. -1.
         24    1    1    2    0    0 -0.88410464662E+01  0.26338935558E+01  0.18127291242E+03  0.19852502671E+03  0.80419002446E+02 0. -1.
          1    1    1    2  501    0  0.19259237409E+02  0.23488689308E+02 -0.62498611774E+02  0.69488943182E+02  0.00000000000E+00 0. -1.
         -2    1    1    2    0  502 -0.10418190943E+02 -0.26122582864E+02  0.68393334629E+02  0.73949822581E+02  0.00000000000E+00 0.  1.
<mgrwt>
<rscale>  2 0.69722383E+02</rscale>
<asrwt>0</asrwt>
<pdfrwt beam="1">  1       21 0.40702417E-01 0.69722383E+02</pdfrwt>
<pdfrwt beam="2">  1       21 0.11907397E-01 0.69722383E+02</pdfrwt>
<totfact> 0.35281053E+05</totfact>
</mgrwt>
</event>
<event>
 5    1  0.1696945E+000  0.1007313E+03  0.7546771E-02  0.1278766E+00
         21   -1    0    0  503  502  0.00000000000E+00  0.00000000000E+00  0.68256389215E+02  0.68256389215E+02  0.00000000000E+00 0. -1.
         21   -1    0    0  501  503 -0.00000000000E+00 -0.00000000000E+00 -0.82818105255E+03  0.82818105255E+03  0.00000000000E+00 0. -1.
         24    1    1    2    0    0 -0.63083091322E+02  0.56380120742E+02 -0.31279805616E+03  0.33386828887E+03  0.80419002446E+02 0. -1.
          1    1    1    2  501    0  0.24466729863E+02 -0.18855974403E+02 -0.49169962563E+03  0.49266894614E+03  0.00000000000E+00 0. -1.
         -2    1    1    2    0  502  0.38616361459E+02 -0.37524146339E+02  0.44573018452E+02  0.69900206757E+02  0.00000000000E+00 0.  1.
<mgrwt>
<rscale>  2 0.10073128E+03</rscale>
<asrwt>0</asrwt>
<pdfrwt beam="1">  1       21 0.10500984E-01 0.10073128E+03</pdfrwt>
<pdfrwt beam="2">  1       21 0.12741246E+00 0.10073128E+03</pdfrwt>
<totfact> 0.35990641E+04</totfact>
</mgrwt>
</event>
<event>
 5    1  0.1696945E+000  0.7167748E+02  0.7546771E-02  0.1354480E+00
         21   -1    0    0  501  502  0.00000000000E+00  0.00000000000E+00  0.20966326274E+03  0.20966326274E+03  0.00000000000E+00 0. -1.
         21   -1    0    0  502  503 -0.00000000000E+00 -0.00000000000E+00 -0.66826039246E+02  0.66826039246E+02  0.00000000000E+00 0.  1.
         24    1    1    2    0    0 -0.32093544566E+02  0.67452404303E+01 -0.88513188176E+01  0.87298657896E+02  0.80419002446E+02 0.  1.
          1    1    1    2  501    0 -0.11691167347E+01 -0.20484389699E+02  0.15182179764E+03  0.15320194285E+03  0.00000000000E+00 0. -1.
         -2    1    1    2    0  503  0.33262661301E+02  0.13739149268E+02 -0.13325533288E+00  0.35988701232E+02  0.00000000000E+00 0.  1.
<mgrwt>
<rscale>  2 0.71677478E+02</rscale>
<asrwt>0</asrwt>
<pdfrwt beam="1">  1       21 0.32255886E-01 0.71677478E+02</pdfrwt>
<pdfrwt beam="2">  1       21 0.10280929E-01 0.71677478E+02</pdfrwt>
<totfact> 0.71449643E+05</totfact>
</mgrwt>
</event>
<event>
 5    1  0.1696945E+000  0.7199226E+02  0.7546771E-02  0.1353446E+00
         21   -1    0    0  501  502  0.00000000000E+00  0.00000000000E+00  0.74492953567E+02  0.74492953567E+02  0.00000000000E+00 0. -1.
         21   -1    0    0  502  503 -0.00000000000E+00 -0.00000000000E+00 -0.12131772326E+03  0.12131772326E+03  0.00000000000E+00 0.  1.
         24    1    1    2    0    0  0.14753510698E+02  0.44258730681E+02  0.32804039102E+02  0.98589158913E+02  0.80419002446E+02 0. -1.
          1    1    1    2  501    0  0.38010315816E+01 -0.20592290522E+02 -0.14457008377E+02  0.25445930150E+02  0.00000000000E+00 0. -1.
         -2    1    1    2    0  503 -0.18554542280E+02 -0.23666440160E+02 -0.65171800420E+02  0.71775587765E+02  0.00000000000E+00 0.  1.
<mgrwt>
<rscale>  2 0.71992261E+02</rscale>
<asrwt>0</asrwt>
<pdfrwt beam="1">  1       21 0.11460455E-01 0.71992261E+02</pdfrwt>
<pdfrwt beam="2">  1       21 0.18664265E-01 0.71992261E+02</pdfrwt>
<totfact> 0.16350806E+06</totfact>
</mgrwt>
</event>
<event>
 5    1  0.1696945E+000  0.1324237E+03  0.7546771E-02  0.1223903E+00
         21   -1    0    0  501  502  0.00000000000E+00  0.00000000000E+00  0.74018030404E+03  0.74018030404E+03  0.00000000000E+00 0.  1.
         21   -1    0    0  502  503 -0.00000000000E+00 -0.00000000000E+00 -0.27459147243E+02  0.27459147243E+02  0.00000000000E+00 0.  1.
         24    1    1    2    0    0 -0.82893810969E+02  0.54215692710E+02  0.43010037582E+03  0.44862487054E+03  0.80419002446E+02 0.  1.
          1    1    1    2  501    0  0.12177379835E+02  0.26972919500E+02  0.12275921020E+03  0.12627608900E+03  0.00000000000E+00 0. -1.
         -2    1    1    2    0  503  0.70716431133E+02 -0.81188612210E+02  0.15986157078E+03  0.19273849174E+03  0.00000000000E+00 0.  1.
<mgrwt>
<rscale>  2 0.13242372E+03</rscale>
<asrwt>0</asrwt>
<pdfrwt beam="1">  1       21 0.11387388E+00 0.13242372E+03</pdfrwt>
<pdfrwt beam="2">  1       21 0.42244848E-02 0.13242372E+03</pdfrwt>
<totfact> 0.21894396E+05</totfact>
</mgrwt>
</event>
<event>
 5    1  0.1696945E+000  0.3145668E+03  0.7546771E-02  0.1078177E+00
         21   -1    0    0  503  502  0.00000000000E+00  0.00000000000E+00  0.99072481659E+03  0.99072481659E+03  0.00000000000E+00 0.  1.
         21   -1    0    0  501  503 -0.00000000000E+00 -0.00000000000E+00 -0.24213148372E+03  0.24213148372E+03  0.00000000000E+00 0. -1.
         24    1    1    2    0    0  0.20321868120E+03  0.53086235110E+02 -0.27439616816E+02  0.22657477633E+03  0.80419002446E+02 0. -1.
          1    1    1    2  501    0  0.28506916055E+01 -0.16817346222E+03 -0.26039611223E+02  0.17020135484E+03  0.00000000000E+00 0. -1.
         -2    1    1    2    0  502 -0.20606937280E+03  0.11508722711E+03  0.80207256092E+03  0.83608016914E+03  0.00000000000E+00 0.  1.
<mgrwt>
<rscale>  2 0.31456682E+03</rscale>
<asrwt>0</asrwt>
<pdfrwt beam="1">  1       21 0.15241920E+00 0.31456682E+03</pdfrwt>
<pdfrwt beam="2">  1       21 0.37250998E-01 0.31456682E+03</pdfrwt>
<totfact> 0.18150433E+03</totfact>
</mgrwt>
</event>
<event>
 5    1  0.1696945E+000  0.8281906E+02  0.7546771E-02  0.1321236E+00
         21   -1    0    0  501  502  0.00000000000E+00  0.00000000000E+00  0.25695394643E+02  0.25695394643E+02  0.00000000000E+00 0. -1.
         21   -1    0    0  502  503 -0.00000000000E+00 -0.00000000000E+00 -0.35711018141E+03  0.35711018141E+03  0.00000000000E+00 0. -1.
         24    1    1    2    0    0 -0.60128429941E+02  0.10730428565E+02 -0.10091051189E+03  0.14276105053E+03  0.80419002446E+02 0. -1.
          1    1    1    2  501    0  0.40984928008E+02  0.30016117468E+01 -0.11396707986E+03  0.12114978039E+03  0.00000000000E+00 0. -1.
         -2    1    1    2    0  503  0.19143501933E+02 -0.13732040312E+02 -0.11653719502E+03  0.11889474514E+03  0.00000000000E+00 0.  1.
<mgrwt>
<rscale>  2 0.82819063E+02</rscale>
<asrwt>0</asrwt>
<pdfrwt beam="1">  1       21 0.39531378E-02 0.82819063E+02</pdfrwt>
<pdfrwt beam="2">  1       21 0.54940025E-01 0.82819063E+02</pdfrwt>
<totfact> 0.12404821E+06</totfact>
</mgrwt>
</event>
<event>
 5    1  0.1696945E+000  0.1064610E+03  0.7546771E-02  0.1267267E+00
         21   -1    0    0  501  502  0.00000000000E+00  0.00000000000E+00  0.34060956554E+03  0.34060956554E+03  0.00000000000E+00 0.  1.
         21   -1    0    0  502  503 -0.00000000000E+00 -0.00000000000E+00 -0.62936885999E+02  0.62936885999E+02  0.00000000000E+00 0.  1.
         24    1    1    2    0    0  0.19319293138E+00  0.75949394040E+02  0.26385616273E+03  0.28610424384E+03  0.80419002446E+02 0.  1.
          1    1    1    2  501    0 -0.23500838599E+02 -0.67850354256E+00  0.28857741627E+02  0.37222560816E+02  0.00000000000E+00 0. -1.
         -2    1    1    2    0  503  0.23307645667E+02 -0.75270890498E+02 -0.15041224811E+02  0.80219646887E+02  0.00000000000E+00 0.  1.
<mgrwt>
<rscale>  2 0.10646101E+03</rscale>
<asrwt>0</asrwt>
<pdfrwt beam="1">  1       21 0.52401470E-01 0.10646101E+03</pdfrwt>
<pdfrwt beam="2">  1       21 0.96825981E-02 0.10646101E+03</pdfrwt>
<totfact> 0.30215029E+05</totfact>
</mgrwt>
</event>
<event>
 5    1  0.1696945E+000  0.6738898E+02  0.7546771E-02  0.1369204E+00
         21   -1    0    0  501  502  0.00000000000E+00  0.00000000000E+00  0.21982794097E+02  0.21982794097E+02  0.00000000000E+00 0.  1.
         21   -1    0    0  502  503 -0.00000000000E+00 -0.00000000000E+00 -0.25605733720E+03  0.25605733720E+03  0.00000000000E+00 0.  1.
         24    1    1    2    0    0 -0.17387302176E+02  0.15733696282E+02 -0.87391224821E+02  0.12105498588E+03  0.80419002446E+02 0.  0.
          1    1    1    2  501    0  0.28342199006E+02  0.38181418531E+01 -0.48741779043E+02  0.56512117957E+02  0.00000000000E+00 0. -1.
         -2    1    1    2    0  503 -0.10954896830E+02 -0.19551838135E+02 -0.97941539238E+02  0.10047302746E+03  0.00000000000E+00 0.  1.
<mgrwt>
<rscale>  2 0.67388977E+02</rscale>
<asrwt>0</asrwt>
<pdfrwt beam="1">  1       21 0.33819683E-02 0.67388977E+02</pdfrwt>
<pdfrwt beam="2">  1       21 0.39393437E-01 0.67388977E+02</pdfrwt>
<totfact> 0.30952964E+06</totfact>
</mgrwt>
</event>
<event>
 5    1  0.1696945E+000  0.8281474E+02  0.7546771E-02  0.1321248E+00
         21   -1    0    0  503  502  0.00000000000E+00  0.00000000000E+00  0.28113008999E+04  0.28113008999E+04  0.00000000000E+00 0. -1.
         21   -1    0    0  501  503 -0.00000000000E+00 -0.00000000000E+00 -0.27557509304E+01  0.27557509304E+01  0.00000000000E+00 0.  1.
         24    1    1    2    0    0 -0.16397660280E+02  0.90817125900E+01  0.17076896442E+04  0.17096849118E+04  0.80419002446E+02 0. -1.
          1    1    1    2  501    0  0.14411100892E+00  0.35552771362E+02  0.29821309384E+03  0.30032494012E+03  0.00000000000E+00 0. -1.
         -2    1    1    2    0  502  0.16253549271E+02 -0.44634483952E+02  0.80264241094E+03  0.80404679892E+03  0.00000000000E+00 0.  1.
<mgrwt>
<rscale>  2 0.82814737E+02</rscale>
<asrwt>0</asrwt>
<pdfrwt beam="1">  1       21 0.43250554E+00 0.82814737E+02</pdfrwt>
<pdfrwt beam="2">  1       21 0.42396393E-03 0.82814737E+02</pdfrwt>
<totfact> 0.93194561E+04</totfact>
</mgrwt>
</event>
<event>
 5    1  0.1696945E+000  0.8499899E+02  0.7546771E-02  0.1315435E+00
         21   -1    0    0  503  502  0.00000000000E+00  0.00000000000E+00  0.23812629015E+02  0.23812629015E+02  0.00000000000E+00 0. -1.
         21   -1    0    0  501  503 -0.00000000000E+00 -0.00000000000E+00 -0.44484761061E+03  0.44484761061E+03  0.00000000000E+00 0. -1.
         24    1    1    2    0    0 -0.19407489556E+01 -0.64613300087E+01 -0.83681241126E+02  0.11625524230E+03  0.80419002446E+02 0. -1.
          1    1    1    2  501    0  0.20083167249E+01 -0.41393207930E+02 -0.24406307138E+03  0.24755648610E+03  0.00000000000E+00 0. -1.
         -2    1    1    2    0  502 -0.67567769322E-01  0.47854537939E+02 -0.93290669089E+02  0.10484851122E+03  0.00000000000E+00 0.  1.
<mgrwt>
<rscale>  2 0.84998990E+02</rscale>
<asrwt>0</asrwt>
<pdfrwt beam="1">  1       21 0.36634812E-02 0.84998990E+02</pdfrwt>
<pdfrwt beam="2">  1       21 0.68438098E-01 0.84998990E+02</pdfrwt>
<totfact> 0.88549033E+05</totfact>
</mgrwt>
</event>
<event>
 5    1  0.1696945E+000  0.1217866E+03  0.7546771E-02  0.1240179E+00
         21   -1    0    0  503  502  0.00000000000E+00  0.00000000000E+00  0.26507326516E+03  0.26507326516E+03  0.00000000000E+00 0.  1.
         21   -1    0    0  501  503 -0.00000000000E+00 -0.00000000000E+00 -0.12690264621E+03  0.12690264621E+03  0.00000000000E+00 0.  1.
         24    1    1    2    0    0  0.85766316140E+02  0.42387806313E+02 -0.22825275084E+02  0.12704643342E+03  0.80419002446E+02 0.  1.
          1    1    1    2  501    0  0.45391656362E+01 -0.26519187359E+02 -0.37573779650E+02  0.46213204174E+02  0.00000000000E+00 0. -1.
         -2    1    1    2    0  502 -0.90305481776E+02 -0.15868618954E+02  0.19856967369E+03  0.21871627378E+03  0.00000000000E+00 0.  1.
<mgrwt>
<rscale>  2 0.12178659E+03</rscale>
<asrwt>0</asrwt>
<pdfrwt beam="1">  1       21 0.40780502E-01 0.12178659E+03</pdfrwt>
<pdfrwt beam="2">  1       21 0.19523484E-01 0.12178659E+03</pdfrwt>
<totfact> 0.14317072E+05</totfact>
</mgrwt>
</event>
<event>
 5    1  0.1696945E+000  0.8450874E+02  0.7546771E-02  0.1316722E+00
         21   -1    0    0  501  502  0.00000000000E+00  0.00000000000E+00  0.15966681828E+04  0.15966681828E+04  0.00000000000E+00 0. -1.
         21   -1    0    0  502  503 -0.00000000000E+00 -0.00000000000E+00 -0.12863121603E+02  0.12863121603E+02  0.00000000000E+00 0.  1.
         24    1    1    2    0    0  0.26800054811E+02 -0.59497514024E+02  0.36466640235E+03  0.37908705870E+03  0.80419002446E+02 0.  1.
          1    1    1    2  501    0 -0.10458279546E+02  0.29421274487E+02  0.11707857165E+04  0.11712020239E+04  0.00000000000E+00 0. -1.
         -2    1    1    2    0  503 -0.16341775265E+02  0.30076239537E+02  0.48352942403E+02  0.59242221790E+02  0.00000000000E+00 0.  1.
<mgrwt>
<rscale>  2 0.84508744E+02</rscale>
<asrwt>0</asrwt>
<pdfrwt beam="1">  1       21 0.24564110E+00 0.84508744E+02</pdfrwt>
<pdfrwt beam="2">  1       21 0.19789431E-02 0.84508744E+02</pdfrwt>
<totfact> 0.97277307E+04</totfact>
</mgrwt>
</event>
<event>
 5    1  0.1696945E+000  0.7273445E+02  0.7546771E-02  0.1351034E+00
         21   -1    0    0  501  502  0.00000000000E+00  0.00000000000E+00  0.56214142921E+03  0.56214142921E+03  0.00000000000E+00 0. -1.
         21   -1    0    0  502  503 -0.00000000000E+00 -0.00000000000E+00 -0.11844543205E+02  0.11844543205E+02  0.00000000000E+00 0.  1.
         24    1    1    2    0    0  0.15672100246E+02  0.47342909660E+02  0.30444295047E+03  0.31880980516E+03  0.80419002446E+02 0.  1.
          1    1    1    2  501    0 -0.18239619773E+01 -0.21020350148E+02  0.19593739144E+03  0.19707014823E+03  0.00000000000E+00 0. -1.
         -2    1    1    2    0  503 -0.13848138269E+02 -0.26322559512E+02  0.49916544087E+02  0.58106019020E+02  0.00000000000E+00 0.  1.
<mgrwt>
<rscale>  2 0.72734454E+02</rscale>
<asrwt>0</asrwt>
<pdfrwt beam="1">  1       21 0.86483276E-01 0.72734454E+02</pdfrwt>
<pdfrwt beam="2">  1       21 0.18222379E-02 0.72734454E+02</pdfrwt>
<totfact> 0.16296878E+06</totfact>
</mgrwt>
</event>
<event>
 5    1  0.1696945E+000  0.8538914E+02  0.7546771E-02  0.1314418E+00
         21   -1    0    0  501  502  0.00000000000E+00  0.00000000000E+00  0.45054491215E+03  0.45054491215E+03  0.00000000000E+00 0. -1.
         21   -1    0    0  502  503 -0.00000000000E+00 -0.00000000000E+00 -0.36337799057E+02  0.36337799057E+02  0.00000000000E+00 0. -1.
         24    1    1    2    0    0 -0.10602045501E+02  0.23250981133E+02  0.48062649290E+02  0.97109452184E+02  0.80419002446E+02 0. -1.
          1    1    1    2  501    0  0.35217232461E+02  0.17085456121E+02  0.32430434151E+03  0.32665803556E+03  0.00000000000E+00 0. -1.
         -2    1    1    2    0  503 -0.24615186960E+02 -0.40336437253E+02  0.41840122291E+02  0.63115223462E+02  0.00000000000E+00 0.  1.
<mgrwt>
<rscale>  2 0.85389142E+02</rscale>
<asrwt>0</asrwt>
<pdfrwt beam="1">  1       21 0.69314598E-01 0.85389142E+02</pdfrwt>
<pdfrwt beam="2">  1       21 0.55904309E-02 0.85389142E+02</pdfrwt>
<totfact> 0.42833262E+05</totfact>
</mgrwt>
</event>
<event>
 5    1  0.1696945E+000  0.1103643E+03  0.7546771E-02  0.1259897E+00
         21   -1    0    0  503  502  0.00000000000E+00  0.00000000000E+00  0.13423829538E+04  0.13423829538E+04  0.00000000000E+00 0.  1.
         21   -1    0    0  501  503 -0.00000000000E+00 -0.00000000000E+00 -0.19763752188E+02  0.19763752188E+02  0.00000000000E+00 0. -1.
         24    1    1    2    0    0  0.70661177149E+02  0.30751505178E+02  0.59342931798E+03  0.60379154385E+03  0.80419002446E+02 0.  1.
          1    1    1    2  501    0 -0.84805253372E+02 -0.11684243069E+02  0.11328431422E+03  0.14199221241E+03  0.00000000000E+00 0. -1.
         -2    1    1    2    0  502  0.14144076223E+02 -0.19067262109E+02  0.61590556940E+03  0.61636294973E+03  0.00000000000E+00 0.  1.
<mgrwt>
<rscale>  2 0.11036431E+03</rscale>
<asrwt>0</asrwt>
<pdfrwt beam="1">  1       21 0.20652038E+00 0.11036431E+03</pdfrwt>
<pdfrwt beam="2">  1       21 0.30405783E-02 0.11036431E+03</pdfrwt>
<totfact> 0.80016001E+04</totfact>
</mgrwt>
</event>
<event>
 5    1  0.1696945E+000  0.6734483E+02  0.7546771E-02  0.1369362E+00
         21   -1    0    0  501  502  0.00000000000E+00  0.00000000000E+00  0.16115397525E+02  0.16115397525E+02  0.00000000000E+00 0.  1.
         21   -1    0    0  502  503 -0.00000000000E+00 -0.00000000000E+00 -0.36973129314E+03  0.36973129314E+03  0.00000000000E+00 0.  1.
         24    1    1    2    0    0  0.63612895806E+01 -0.37401410727E+02 -0.22441510272E+03  0.24138907558E+03  0.80419002446E+02 0.  1.
          1    1    1    2  501    0  0.95971365740E+01  0.19855039158E+02 -0.12455106961E+02  0.25327007320E+02  0.00000000000E+00 0. -1.
         -2    1    1    2    0  503 -0.15958426155E+02  0.17546371569E+02 -0.11674568594E+03  0.11913060776E+03  0.00000000000E+00 0.  1.
<mgrwt>
<rscale>  2 0.67344834E+02</rscale>
<asrwt>0</asrwt>
<pdfrwt beam="1">  1       21 0.24792920E-02 0.67344834E+02</pdfrwt>
<pdfrwt beam="2">  1       21 0.56881736E-01 0.67344834E+02</pdfrwt>
<totfact> 0.24401848E+06</totfact>
</mgrwt>
</event>
<event>
 5    1  0.1696945E+000  0.8102086E+02  0.7546771E-02  0.1326179E+00
         21   -1    0    0  503  502  0.00000000000E+00  0.00000000000E+00  0.10433878931E+03  0.10433878931E+03  0.00000000000E+00 0.  1.
         21   -1    0    0  501  503 -0.00000000000E+00 -0.00000000000E+00 -0.94182086660E+02  0.94182086660E+02  0.00000000000E+00 0. -1.
         24    1    1    2    0    0 -0.11250345423E+02  0.35232191526E+02  0.62214546169E+02  0.10819308343E+03  0.80419002446E+02 0.  0.
          1    1    1    2  501    0 -0.20293084481E+02 -0.36712202121E+02 -0.33646197536E+02  0.53774172898E+02  0.00000000000E+00 0. -1.
         -2    1    1    2    0  502  0.31543429905E+02  0.14800105950E+01 -0.18411645982E+02  0.36553619647E+02  0.00000000000E+00 0.  1.
<mgrwt>
<rscale>  2 0.81020861E+02</rscale>
<asrwt>0</asrwt>
<pdfrwt beam="1">  1       21 0.16052122E-01 0.81020861E+02</pdfrwt>
<pdfrwt beam="2">  1       21 0.14489552E-01 0.81020861E+02</pdfrwt>
<totfact> 0.14267845E+06</totfact>
</mgrwt>
</event>
<event>
 5    1  0.1696945E+000  0.1085912E+03  0.7546771E-02  0.1263201E+00
         21   -1    0    0  501  502  0.00000000000E+00  0.00000000000E+00  0.83285023463E+02  0.83285023463E+02  0.00000000000E+00 0.  1.
         21   -1    0    0  502  503 -0.00000000000E+00 -0.00000000000E+00 -0.19332260825E+03  0.19332260825E+03  0.00000000000E+00 0.  1.
         24    1    1    2    0    0  0.61301718043E+02 -0.63330874207E+02 -0.12125117086E+02  0.11992887343E+03  0.80419002446E+02 0.  1.
          1    1    1    2  501    0 -0.50437390541E+02  0.21812807374E+02 -0.60476427428E+01  0.55283839527E+02  0.00000000000E+00 0. -1.
         -2    1    1    2    0  503 -0.10864327503E+02  0.41518066833E+02 -0.91864824955E+02  0.10139491876E+03  0.00000000000E+00 0.  1.
<mgrwt>
<rscale>  2 0.10859121E+03</rscale>
<asrwt>0</asrwt>
<pdfrwt beam="1">  1       21 0.12813081E-01 0.10859121E+03</pdfrwt>
<pdfrwt beam="2">  1       21 0.29741939E-01 0.10859121E+03</pdfrwt>
<totfact> 0.56969183E+05</totfact>
</mgrwt>
</event>
<event>
 5    1  0.1696945E+000  0.8317734E+02  0.7546771E-02  0.1320269E+00
         21   -1    0    0  503  502  0.00000000000E+00  0.00000000000E+00  0.19022749362E+02  0.19022749362E+02  0.00000000000E+00 0.  1.
         21   -1    0    0  501  503 -0.00000000000E+00 -0.00000000000E+00 -0.39033440537E+03  0.39033440537E+03  0.00000000000E+00 0.  1.
         24    1    1    2    0    0 -0.18450222030E+02 -0.50853714339E+02 -0.20248519233E+03  0.22448603525E+03  0.80419002446E+02 0.  1.
          1    1    1    2  501    0 -0.14357470481E+02  0.17701472176E+02 -0.93794396911E+02  0.96523924328E+02  0.00000000000E+00 0. -1.
         -2    1    1    2    0  502  0.32807692511E+02  0.33152242163E+02 -0.75032066776E+02  0.88347195162E+02  0.00000000000E+00 0.  1.
<mgrwt>
<rscale>  2 0.83177339E+02</rscale>
<asrwt>0</asrwt>
<pdfrwt beam="1">  1       21 0.29265770E-02 0.83177339E+02</pdfrwt>
<pdfrwt beam="2">  1       21 0.60051444E-01 0.83177339E+02</pdfrwt>
<totfact> 0.16834753E+06</totfact>
</mgrwt>
</event>
<event>
 5    1  0.1696945E+000  0.7863904E+02  0.7546771E-02  0.1332959E+00
         21   -1    0    0  501  502  0.00000000000E+00  0.00000000000E+00  0.30049965161E+01  0.30049965161E+01  0.00000000000E+00 0.  1.
         21   -1    0    0  502  503 -0.00000000000E+00 -0.00000000000E+00 -0.25200857425E+04  0.25200857425E+04  0.00000000000E+00 0.  1.
         24    1    1    2    0    0  0.28054566802E+02  0.50640103258E+02 -0.19062020410E+04  0.19087757636E+04  0.80419002446E+02 0.  0.
          1    1    1    2  501    0 -0.16670434424E+02 -0.24034987217E+02 -0.17085710901E+03  0.17334282706E+03  0.00000000000E+00 0. -1.
         -2    1    1    2    0  503 -0.11384132378E+02 -0.26605116040E+02 -0.44002159605E+03  0.44097214839E+03  0.00000000000E+00 0.  1.
<mgrwt>
<rscale>  2 0.78639044E+02</rscale>
<asrwt>0</asrwt>
<pdfrwt beam="1">  1       21 0.46230866E-03 0.78639044E+02</pdfrwt>
<pdfrwt beam="2">  1       21 0.38770424E+00 0.78639044E+02</pdfrwt>
<totfact> 0.15401053E+05</totfact>
</mgrwt>
</event>
<event>
 5    1  0.1696945E+000  0.1230753E+03  0.7546771E-02  0.1238108E+00
         21   -1    0    0  503  502  0.00000000000E+00  0.00000000000E+00  0.15042573281E+03  0.15042573281E+03  0.00000000000E+00 0. -1.
         21   -1    0    0  501  503 -0.00000000000E+00 -0.00000000000E+00 -0.22824638126E+03  0.22824638126E+03  0.00000000000E+00 0. -1.
         24    1    1    2    0    0 -0.43903859490E+02  0.94133836406E+02  0.32634886977E+02  0.13535501408E+03  0.80419002446E+02 0. -1.
          1    1    1    2  501    0  0.19915716156E+02 -0.87727652517E+02 -0.16245178934E+03  0.18569695912E+03  0.00000000000E+00 0. -1.
         -2    1    1    2    0  502  0.23988143333E+02 -0.64061838895E+01  0.51996253912E+02  0.57620140867E+02  0.00000000000E+00 0.  1.
<mgrwt>
<rscale>  2 0.12307528E+03</rscale>
<asrwt>0</asrwt>
<pdfrwt beam="1">  1       21 0.23142420E-01 0.12307528E+03</pdfrwt>
<pdfrwt beam="2">  1       21 0.35114828E-01 0.12307528E+03</pdfrwt>
<totfact> 0.14035196E+05</totfact>
</mgrwt>
</event>
<event>
 5    1  0.1696945E+000  0.7017787E+02  0.7546771E-02  0.1359489E+00
         21   -1    0    0  503  502  0.00000000000E+00  0.00000000000E+00  0.18024800501E+03  0.18024800501E+03  0.00000000000E+00 0.  1.
         21   -1    0    0  501  503 -0.00000000000E+00 -0.00000000000E+00 -0.79785520766E+02  0.79785520766E+02  0.00000000000E+00 0. -1.
         24    1    1    2    0    0  0.17624953778E+02  0.49333156915E+01  0.49410585055E+02  0.96143634575E+02  0.80419002446E+02 0. -1.
          1    1    1    2  501    0 -0.20051366572E+02 -0.28136710854E+02 -0.49668044654E+02  0.60503276430E+02  0.00000000000E+00 0. -1.
         -2    1    1    2    0  502  0.24264127943E+01  0.23203395162E+02  0.10071994384E+03  0.10338661477E+03  0.00000000000E+00 0.  1.
<mgrwt>
<rscale>  2 0.70177873E+02</rscale>
<asrwt>0</asrwt>
<pdfrwt beam="1">  1       21 0.27730462E-01 0.70177873E+02</pdfrwt>
<pdfrwt beam="2">  1       21 0.12274696E-01 0.70177873E+02</pdfrwt>
<totfact> 0.69943274E+05</totfact>
</mgrwt>
</event>
<event>
 5    1  0.1696945E+000  0.1048242E+03  0.7546771E-02  0.1270466E+00
         21   -1    0    0  501  502  0.00000000000E+00  0.00000000000E+00  0.26269428714E+02  0.26269428714E+02  0.00000000000E+00 0.  1.
         21   -1    0    0  502  503 -0.00000000000E+00 -0.00000000000E+00 -0.42101813728E+03  0.42101813728E+03  0.00000000000E+00 0. -1.
         24    1    1    2    0    0 -0.81908925012E+02 -0.19936344684E+01 -0.19931269378E+03  0.23001263537E+03  0.80419002446E+02 0.  1.
          1    1    1    2  501    0  0.54862346257E+02  0.24089678701E+02 -0.12809297770E+03  0.14141428708E+03  0.00000000000E+00 0. -1.
         -2    1    1    2    0  503  0.27046578755E+02 -0.22096044233E+02 -0.67343037086E+02  0.75860643532E+02  0.00000000000E+00 0.  1.
<mgrwt>
<rscale>  2 0.10482424E+03</rscale>
<asrwt>0</asrwt>
<pdfrwt beam="1">  1       21 0.40414508E-02 0.10482424E+03</pdfrwt>
<pdfrwt beam="2">  1       21 0.64772018E-01 0.10482424E+03</pdfrwt>
<totfact> 0.84923656E+05</totfact>
</mgrwt>
</event>
<event>
 5    1  0.1696945E+000  0.9258874E+02  0.7546771E-02  0.1296701E+00
         21   -1    0    0  503  502  0.00000000000E+00  0.00000000000E+00  0.99609287974E+03  0.99609287974E+03  0.00000000000E+00 0.  1.
         21   -1    0    0  501  503 -0.00000000000E+00 -0.00000000000E+00 -0.17452648841E+02  0.17452648841E+02  0.00000000000E+00 0. -1.
         24    1    1    2    0    0  0.16722846604E+02 -0.25934682382E+02  0.36422904871E+03  0.37427567010E+03  0.80419002446E+02 0.  1.
          1    1    1    2  501    0  0.38052311987E+02 -0.86307149848E+00  0.22477692467E+02  0.44203732858E+02  0.00000000000E+00 0. -1.
         -2    1    1    2    0  502 -0.54775158591E+02  0.26797753880E+02  0.59193348972E+03  0.59506612563E+03  0.00000000000E+00 0.  1.
<mgrwt>
<rscale>  2 0.92588740E+02</rscale>
<asrwt>0</asrwt>
<pdfrwt beam="1">  1       21 0.15324501E+00 0.92588740E+02</pdfrwt>
<pdfrwt beam="2">  1       21 0.26850237E-02 0.92588740E+02</pdfrwt>
<totfact> 0.22376780E+05</totfact>
</mgrwt>
</event>
<event>
 5    1  0.1696945E+000  0.7028923E+02  0.7546771E-02  0.1359112E+00
         21   -1    0    0  501  502  0.00000000000E+00  0.00000000000E+00  0.72520020642E+03  0.72520020642E+03  0.00000000000E+00 0.  1.
         21   -1    0    0  502  503 -0.00000000000E+00 -0.00000000000E+00 -0.12390213339E+02  0.12390213339E+02  0.00000000000E+00 0.  1.
         24    1    1    2    0    0  0.10528842383E+02 -0.20237032296E+02  0.63689558300E+03  0.64235783921E+03  0.80419002446E+02 0.  1.
          1    1    1    2  501    0 -0.20113628035E+02 -0.11954744416E+02  0.37539024019E+02  0.44234062340E+02  0.00000000000E+00 0. -1.
         -2    1    1    2    0  503  0.95847856519E+01  0.32191776712E+02  0.38375386065E+02  0.50998518209E+02  0.00000000000E+00 0.  1.
<mgrwt>
<rscale>  2 0.70289228E+02</rscale>
<asrwt>0</asrwt>
<pdfrwt beam="1">  1       21 0.11156923E+00 0.70289228E+02</pdfrwt>
<pdfrwt beam="2">  1       21 0.19061872E-02 0.70289228E+02</pdfrwt>
<totfact> 0.84723253E+05</totfact>
</mgrwt>
</event>
<event>
 5    1  0.1696945E+000  0.6497004E+02  0.7546771E-02  0.1378084E+00
         21   -1    0    0  503  502  0.00000000000E+00  0.00000000000E+00  0.20894971418E+02  0.20894971418E+02  0.00000000000E+00 0.  1.
         21   -1    0    0  501  503 -0.00000000000E+00 -0.00000000000E+00 -0.24411853487E+03  0.24411853487E+03  0.00000000000E+00 0. -1.
         24    1    1    2    0    0  0.56005462410E+01  0.31698208126E+01 -0.16442291494E+03  0.18314891425E+03  0.80419002446E+02 0. -1.
          1    1    1    2  501    0 -0.21790185358E+02  0.13814092582E+02 -0.50971177126E+02  0.57128821355E+02  0.00000000000E+00 0. -1.
         -2    1    1    2    0  502  0.16189639117E+02 -0.16983913395E+02 -0.78294713948E+01  0.24735770683E+02  0.00000000000E+00 0.  1.
<mgrwt>
<rscale>  2 0.64970036E+02</rscale>
<asrwt>0</asrwt>
<pdfrwt beam="1">  1       21 0.32146109E-02 0.64970036E+02</pdfrwt>
<pdfrwt beam="2">  1       21 0.37556699E-01 0.64970036E+02</pdfrwt>
<totfact> 0.36795726E+06</totfact>
</mgrwt>
</event>
<event>
 5    1  0.1696945E+000  0.8174199E+02  0.7546771E-02  0.1324179E+00
         21   -1    0    0  501  502  0.00000000000E+00  0.00000000000E+00  0.79833558928E+03  0.79833558928E+03  0.00000000000E+00 0. -1.
         21   -1    0    0  502  503 -0.00000000000E+00 -0.00000000000E+00 -0.22324092292E+02  0.22324092292E+02  0.00000000000E+00 0.  1.
         24    1    1    2    0    0 -0.32338322324E+02  0.73940557296E+01  0.29577195683E+03  0.30829970086E+03  0.80419002446E+02 0. -1.
          1    1    1    2  501    0  0.54021332373E+02 -0.89296963804E+01  0.48663160416E+03  0.48970231977E+03  0.00000000000E+00 0. -1.
         -2    1    1    2    0  503 -0.21683010049E+02  0.15356406507E+01 -0.63920639962E+01  0.22657660937E+02  0.00000000000E+00 0.  1.
<mgrwt>
<rscale>  2 0.81741993E+02</rscale>
<asrwt>0</asrwt>
<pdfrwt beam="1">  1       21 0.12282084E+00 0.81741993E+02</pdfrwt>
<pdfrwt beam="2">  1       21 0.34344764E-02 0.81741993E+02</pdfrwt>
<totfact> 0.26125991E+05</totfact>
</mgrwt>
</event>
<event>
 5    1  0.1696945E+000  0.7688559E+02  0.7546771E-02  0.1338129E+00
         21   -1    0    0  501  502  0.00000000000E+00  0.00000000000E+00  0.15456577806E+03  0.15456577806E+03  0.00000000000E+00 0.  1.
         21   -1    0    0  502  503 -0.00000000000E+00 -0.00000000000E+00 -0.67461466567E+02  0.67461466567E+02  0.00000000000E+00 0. -1.
         24    1    1    2    0    0 -0.32265457880E+02 -0.93995015166E+01  0.54198943234E+02  0.10263601611E+03  0.80419002446E+02 0.  0.
          1    1    1    2  501    0 -0.13646428948E+02  0.15094634076E+02  0.61652276222E+02  0.64923617923E+02  0.00000000000E+00 0. -1.
         -2    1    1    2    0  503  0.45911886827E+02 -0.56951325590E+01 -0.28746907960E+02  0.54467610597E+02  0.00000000000E+00 0.  1.
<mgrwt>
<rscale>  2 0.76885588E+02</rscale>
<asrwt>0</asrwt>
<pdfrwt beam="1">  1       21 0.23779350E-01 0.76885588E+02</pdfrwt>
<pdfrwt beam="2">  1       21 0.10378687E-01 0.76885588E+02</pdfrwt>
<totfact> 0.12497326E+06</totfact>
</mgrwt>
</event>
<event>
 5    1  0.1696945E+000  0.1020424E+03  0.7546771E-02  0.1276059E+00
         21   -1    0    0  503  502  0.00000000000E+00  0.00000000000E+00  0.23521671097E+03  0.23521671097E+03  0.00000000000E+00 0. -1.
         21   -1    0    0  501  503 -0.00000000000E+00 -0.00000000000E+00 -0.49137967965E+02  0.49137967965E+02  0.00000000000E+00 0.  1.
         24    1    1    2    0    0 -0.21232489589E+01  0.35521421846E+02  0.11396665600E+03  0.14395101330E+03  0.80419002446E+02 0. -1.
          1    1    1    2  501    0  0.51017718506E+02  0.68115352705E+01  0.13715825146E+02  0.53266579332E+02  0.00000000000E+00 0. -1.
         -2    1    1    2    0  502 -0.48894469547E+02 -0.42332957117E+02  0.58396261864E+02  0.87137086308E+02  0.00000000000E+00 0.  1.
<mgrwt>
<rscale>  2 0.10204245E+03</rscale>
<asrwt>0</asrwt>
<pdfrwt beam="1">  1       21 0.36187186E-01 0.10204245E+03</pdfrwt>
<pdfrwt beam="2">  1       21 0.75596875E-02 0.10204245E+03</pdfrwt>
<totfact> 0.97442567E+05</totfact>
</mgrwt>
</event>
<event>
 5    1  0.1696945E+000  0.1209821E+03  0.7546771E-02  0.1241486E+00
         21   -1    0    0  503  502  0.00000000000E+00  0.00000000000E+00  0.24421807951E+03  0.24421807951E+03  0.00000000000E+00 0.  1.
         21   -1    0    0  501  503 -0.00000000000E+00 -0.00000000000E+00 -0.12461039447E+03  0.12461039447E+03  0.00000000000E+00 0. -1.
         24    1    1    2    0    0  0.78573433137E+01  0.83661124558E+02  0.13266982271E+02  0.11706472731E+03  0.80419002446E+02 0. -1.
          1    1    1    2  501    0  0.74194124726E+00  0.20813002666E+02 -0.55308823046E+02  0.59099893938E+02  0.00000000000E+00 0. -1.
         -2    1    1    2    0  502 -0.85992845610E+01 -0.10447412722E+03  0.16164952582E+03  0.19266385274E+03  0.00000000000E+00 0.  1.
<mgrwt>
<rscale>  2 0.12098209E+03</rscale>
<asrwt>0</asrwt>
<pdfrwt beam="1">  1       21 0.37572012E-01 0.12098209E+03</pdfrwt>
<pdfrwt beam="2">  1       21 0.19170830E-01 0.12098209E+03</pdfrwt>
<totfact> 0.17431899E+05</totfact>
</mgrwt>
</event>
<event>
 5    1  0.1696945E+000  0.2348896E+03  0.7546771E-02  0.1123245E+00
         21   -1    0    0  501  502  0.00000000000E+00  0.00000000000E+00  0.45980964456E+03  0.45980964456E+03  0.00000000000E+00 0. -1.
         21   -1    0    0  502  503 -0.00000000000E+00 -0.00000000000E+00 -0.30320911103E+03  0.30320911103E+03  0.00000000000E+00 0. -1.
         24    1    1    2    0    0  0.21597466685E+03 -0.79448031782E+01 -0.12877679192E+03  0.26411901618E+03  0.80419002446E+02 0. -1.
          1    1    1    2  501    0 -0.17976031983E+03 -0.34863244061E+02  0.36098415928E+03  0.40477003548E+03  0.00000000000E+00 0. -1.
         -2    1    1    2    0  503 -0.36214347022E+02  0.42808047239E+02 -0.75606833835E+02  0.94129703926E+02  0.00000000000E+00 0.  1.
<mgrwt>
<rscale>  2 0.23488960E+03</rscale>
<asrwt>0</asrwt>
<pdfrwt beam="1">  1       21 0.70739945E-01 0.23488960E+03</pdfrwt>
<pdfrwt beam="2">  1       21 0.46647556E-01 0.23488960E+03</pdfrwt>
<totfact> 0.77421318E+03</totfact>
</mgrwt>
</event>
<event>
 5    1  0.1696945E+000  0.7209164E+02  0.7546771E-02  0.1353121E+00
         21   -1    0    0  503  502  0.00000000000E+00  0.00000000000E+00  0.29473185904E+03  0.29473185904E+03  0.00000000000E+00 0. -1.
         21   -1    0    0  501  503 -0.00000000000E+00 -0.00000000000E+00 -0.23374430888E+02  0.23374430888E+02  0.00000000000E+00 0.  1.
         24    1    1    2    0    0 -0.63922556617E+01 -0.20202197746E+02  0.82216133481E+02  0.11694314125E+03  0.80419002446E+02 0.  1.
          1    1    1    2  501    0  0.34209532385E+01  0.40430107431E+02  0.75641604577E+02  0.85836756992E+02  0.00000000000E+00 0. -1.
         -2    1    1    2    0  502  0.29713024232E+01 -0.20227909685E+02  0.11349969009E+03  0.11532639169E+03  0.00000000000E+00 0.  1.
<mgrwt>
<rscale>  2 0.72091641E+02</rscale>
<asrwt>0</asrwt>
<pdfrwt beam="1">  1       21 0.45343360E-01 0.72091641E+02</pdfrwt>
<pdfrwt beam="2">  1       21 0.35960665E-02 0.72091641E+02</pdfrwt>
<totfact> 0.21287203E+06</totfact>
</mgrwt>
</event>
<event>
 5    1  0.1696945E+000  0.1181985E+03  0.7546771E-02  0.1246099E+00
         21   -1    0    0  503  502  0.00000000000E+00  0.00000000000E+00  0.25768288678E+03  0.25768288678E+03  0.00000000000E+00 0. -1.
         21   -1    0    0  501  503 -0.00000000000E+00 -0.00000000000E+00 -0.96478357481E+02  0.96478357481E+02  0.00000000000E+00 0. -1.
         24    1    1    2    0    0  0.10129850872E+03  0.23860874479E+02  0.16236643469E+03  0.20895167927E+03  0.80419002446E+02 0. -1.
          1    1    1    2  501    0 -0.81100002000E+02 -0.24331855141E+02 -0.45762006788E+02  0.96246614300E+02  0.00000000000E+00 0. -1.
         -2    1    1    2    0  502 -0.20198506716E+02  0.47098066211E+00  0.44600101392E+02  0.48962950692E+02  0.00000000000E+00 0.  1.
<mgrwt>
<rscale>  2 0.11819854E+03</rscale>
<asrwt>0</asrwt>
<pdfrwt beam="1">  1       21 0.39643521E-01 0.11819854E+03</pdfrwt>
<pdfrwt beam="2">  1       21 0.14842824E-01 0.11819854E+03</pdfrwt>
<totfact> 0.24963719E+05</totfact>
</mgrwt>
</event>
<event>
 5    1  0.1696945E+000  0.9994615E+02  0.7546771E-02  0.1280409E+00
         21   -1    0    0  503  502  0.00000000000E+00  0.00000000000E+00  0.16021828451E+04  0.16021828451E+04  0.00000000000E+00 0.  1.
         21   -1    0    0  501  503 -0.00000000000E+00 -0.00000000000E+00 -0.70146962779E+01  0.70146962779E+01  0.00000000000E+00 0.  1.
         24    1    1    2    0    0 -0.38473682301E+02  0.67504342293E+02  0.11306887597E+04  0.11362048001E+04  0.80419002446E+02 0.  1.
          1    1    1    2  501    0  0.12400629406E+02 -0.59525126974E+02  0.28140098132E+03  0.28789499586E+03  0.00000000000E+00 0. -1.
         -2    1    1    2    0  502  0.26073052895E+02 -0.79792153193E+01  0.18307840779E+03  0.18509774543E+03  0.00000000000E+00 0.  1.
<mgrwt>
<rscale>  2 0.99946150E+02</rscale>
<asrwt>0</asrwt>
<pdfrwt beam="1">  1       21 0.24648938E+00 0.99946150E+02</pdfrwt>
<pdfrwt beam="2">  1       21 0.10791853E-02 0.99946150E+02</pdfrwt>
<totfact> 0.24707467E+05</totfact>
</mgrwt>
</event>
<event>
 5    1  0.1696945E+000  0.8844420E+02  0.7546771E-02  0.1306664E+00
         21   -1    0    0  503  502  0.00000000000E+00  0.00000000000E+00  0.26179434122E+03  0.26179434122E+03  0.00000000000E+00 0.  1.
         21   -1    0    0  501  503 -0.00000000000E+00 -0.00000000000E+00 -0.48721278486E+02  0.48721278486E+02  0.00000000000E+00 0. -1.
         24    1    1    2    0    0  0.11311376162E+02 -0.39438542472E+01  0.16821370710E+03  0.18683299609E+03  0.80419002446E+02 0.  0.
          1    1    1    2  501    0 -0.52340363406E+02  0.12169905015E+02 -0.10027018403E+02  0.54664077122E+02  0.00000000000E+00 0. -1.
         -2    1    1    2    0  502  0.41028987243E+02 -0.82260507681E+01  0.54886374037E+02  0.69018546496E+02  0.00000000000E+00 0.  1.
<mgrwt>
<rscale>  2 0.88444198E+02</rscale>
<asrwt>0</asrwt>
<pdfrwt beam="1">  1       21 0.40276052E-01 0.88444198E+02</pdfrwt>
<pdfrwt beam="2">  1       21 0.74955814E-02 0.88444198E+02</pdfrwt>
<totfact> 0.79933835E+05</totfact>
</mgrwt>
</event>
<event>
 5    1  0.1696945E+000  0.1409457E+03  0.7546771E-02  0.1212062E+00
         21   -1    0    0  501  502  0.00000000000E+00  0.00000000000E+00  0.17699711270E+02  0.17699711270E+02  0.00000000000E+00 0.  1.
         21   -1    0    0  502  503 -0.00000000000E+00 -0.00000000000E+00 -0.12861099790E+04  0.12861099790E+04  0.00000000000E+00 0.  1.
         24    1    1    2    0    0  0.38697187543E+02  0.10248215276E+03 -0.40977541562E+03  0.43172117294E+03  0.80419002446E+02 0.  1.
          1    1    1    2  501    0  0.32387918104E+02 -0.25560428947E+02 -0.14312052149E+03  0.14894897260E+03  0.00000000000E+00 0. -1.
         -2    1    1    2    0  503 -0.71085105647E+02 -0.76921723812E+02 -0.71551433060E+03  0.72313954472E+03  0.00000000000E+00 0.  1.
<mgrwt>
<rscale>  2 0.14094572E+03</rscale>
<asrwt>0</asrwt>
<pdfrwt beam="1">  1       21 0.27230323E-02 0.14094572E+03</pdfrwt>
<pdfrwt beam="2">  1       21 0.19786309E+00 0.14094572E+03</pdfrwt>
<totfact> 0.10610573E+05</totfact>
</mgrwt>
</event>
<event>
 5    1  0.1696945E+000  0.6627772E+02  0.7546771E-02  0.1373229E+00
         21   -1    0    0  501  502  0.00000000000E+00  0.00000000000E+00  0.43420993272E+03  0.43420993272E+03  0.00000000000E+00 0. -1.
         21   -1    0    0  502  503 -0.00000000000E+00 -0.00000000000E+00 -0.16860444617E+02  0.16860444617E+02  0.00000000000E+00 0.  1.
         24    1    1    2    0    0 -0.82671686423E+01  0.11112907375E+01  0.26599427160E+03  0.27801034067E+03  0.80419002446E+02 0.  1.
          1    1    1    2  501    0 -0.92117667831E+01 -0.22364589885E+02  0.14192524212E+03  0.14397154538E+03  0.00000000000E+00 0. -1.
         -2    1    1    2    0  503  0.17478935425E+02  0.21253299147E+02  0.94299743858E+01  0.29088491284E+02  0.00000000000E+00 0.  1.
<mgrwt>
<rscale>  2 0.66277721E+02</rscale>
<asrwt>0</asrwt>
<pdfrwt beam="1">  1       21 0.66801520E-01 0.66277721E+02</pdfrwt>
<pdfrwt beam="2">  1       21 0.25939149E-02 0.66277721E+02</pdfrwt>
<totfact> 0.16207007E+06</totfact>
</mgrwt>
</event>
<event>
 5    1  0.1696945E+000  0.1058772E+03  0.7546771E-02  0.1268401E+00
         21   -1    0    0  503  502  0.00000000000E+00  0.00000000000E+00  0.22585713926E+03  0.22585713926E+03  0.00000000000E+00 0. -1.
         21   -1    0    0  501  503 -0.00000000000E+00 -0.00000000000E+00 -0.86892201909E+02  0.86892201909E+02  0.00000000000E+00 0. -1.
         24    1    1    2    0    0 -0.84552406525E+02 -0.21614123584E+02  0.15384206990E+03  0.19429585228E+03  0.80419002446E+02 0. -1.
          1    1    1    2  501    0  0.55412163316E+02 -0.21871174054E+01 -0.44067780591E+02  0.70832623925E+02  0.00000000000E+00 0. -1.
         -2    1    1    2    0  502  0.29140243209E+02  0.23801240990E+02  0.29190648041E+02  0.47620864965E+02  0.00000000000E+00 0.  1.
<mgrwt>
<rscale>  2 0.10587719E+03</rscale>
<asrwt>0</asrwt>
<pdfrwt beam="1">  1       21 0.34747252E-01 0.10587719E+03</pdfrwt>
<pdfrwt beam="2">  1       21 0.13368031E-01 0.10587719E+03</pdfrwt>
<totfact> 0.39113614E+05</totfact>
</mgrwt>
</event>
<event>
 5    1  0.1696945E+000  0.8926773E+02  0.7546771E-02  0.1304635E+00
         21   -1    0    0  503  502  0.00000000000E+00  0.00000000000E+00  0.11980205781E+03  0.11980205781E+03  0.00000000000E+00 0.  1.
         21   -1    0    0  501  503 -0.00000000000E+00 -0.00000000000E+00 -0.85912895237E+02  0.85912895237E+02  0.00000000000E+00 0.  1.
         24    1    1    2    0    0  0.55699446778E+02 -0.29413435601E+01  0.34126499156E+02  0.10364802831E+03  0.80419002446E+02 0.  1.
          1    1    1    2  501    0 -0.32679322449E+02  0.30539504402E+02 -0.31277622578E+02  0.54579200424E+02  0.00000000000E+00 0. -1.
         -2    1    1    2    0  502 -0.23020124329E+02 -0.27598160842E+02  0.31040285994E+02  0.47487724314E+02  0.00000000000E+00 0.  1.
<mgrwt>
<rscale>  2 0.89267726E+02</rscale>
<asrwt>0</asrwt>
<pdfrwt beam="1">  1       21 0.18431086E-01 0.89267726E+02</pdfrwt>
<pdfrwt beam="2">  1       21 0.13217369E-01 0.89267726E+02</pdfrwt>
<totfact> 0.13127728E+06</totfact>
</mgrwt>
</event>
<event>
 5    1  0.1696945E+000  0.7072860E+02  0.7546771E-02  0.1357633E+00
         21   -1    0    0  503  502  0.00000000000E+00  0.00000000000E+00  0.64767788030E+03  0.64767788030E+03  0.00000000000E+00 0.  1.
         21   -1    0    0  501  503 -0.00000000000E+00 -0.00000000000E+00 -0.51282636205E+02  0.51282636205E+02  0.00000000000E+00 0.  1.
         24    1    1    2    0    0 -0.43575883517E+02  0.16088371273E+02  0.36336787228E+02  0.99725981444E+02  0.80419002446E+02 0.  1.
          1    1    1    2  501    0  0.20262069397E+02 -0.24301213385E-02 -0.13903857064E+02  0.24573740119E+02  0.00000000000E+00 0. -1.
         -2    1    1    2    0  502  0.23313814120E+02 -0.16085941152E+02  0.57396231393E+03  0.57466079494E+03  0.00000000000E+00 0.  1.
<mgrwt>
<rscale>  2 0.70728604E+02</rscale>
<asrwt>0</asrwt>
<pdfrwt beam="1">  1       21 0.99642745E-01 0.70728604E+02</pdfrwt>
<pdfrwt beam="2">  1       21 0.78896368E-02 0.70728604E+02</pdfrwt>
<totfact> 0.10787099E+05</totfact>
</mgrwt>
</event>
<event>
 5    1  0.1696945E+000  0.7258169E+02  0.7546771E-02  0.1351528E+00
         21   -1    0    0  501  502  0.00000000000E+00  0.00000000000E+00  0.25853465130E+03  0.25853465130E+03  0.00000000000E+00 0. -1.
         21   -1    0    0  502  503 -0.00000000000E+00 -0.00000000000E+00 -0.28394328512E+02  0.28394328512E+02  0.00000000000E+00 0.  1.
         24    1    1    2    0    0  0.13759776565E+02 -0.59535070220E+01  0.11559807776E+03  0.14161534957E+03  0.80419002446E+02 0. -1.
          1    1    1    2  501    0 -0.38209272515E+02  0.61359396084E-01  0.11391936855E+03  0.12015645968E+03  0.00000000000E+00 0. -1.
         -2    1    1    2    0  503  0.24449495951E+02  0.58921476259E+01  0.62287647835E+00  0.25157170568E+02  0.00000000000E+00 0.  1.
<mgrwt>
<rscale>  2 0.72581687E+02</rscale>
<asrwt>0</asrwt>
<pdfrwt beam="1">  1       21 0.39774560E-01 0.72581687E+02</pdfrwt>
<pdfrwt beam="2">  1       21 0.43683584E-02 0.72581687E+02</pdfrwt>
<totfact> 0.20083331E+06</totfact>
</mgrwt>
</event>
<event>
 5    1  0.1696945E+000  0.1274317E+03  0.7546771E-02  0.1231317E+00
         21   -1    0    0  503  502  0.00000000000E+00  0.00000000000E+00  0.77642659145E+02  0.77642659145E+02  0.00000000000E+00 0. -1.
         21   -1    0    0  501  503 -0.00000000000E+00 -0.00000000000E+00 -0.21351829830E+03  0.21351829830E+03  0.00000000000E+00 0.  1.
         24    1    1    2    0    0  0.59994727268E+02 -0.68956222906E+02 -0.72828679142E+02  0.14186458486E+03  0.80419002446E+02 0.  0.
          1    1    1    2  501    0 -0.86274186109E+02  0.43864664610E+02 -0.57399039031E+02  0.11252552453E+03  0.00000000000E+00 0. -1.
         -2    1    1    2    0  502  0.26279458841E+02  0.25091558296E+02 -0.56479209769E+01  0.36770848046E+02  0.00000000000E+00 0.  1.
<mgrwt>
<rscale>  2 0.12743165E+03</rscale>
<asrwt>0</asrwt>
<pdfrwt beam="1">  1       21 0.11945025E-01 0.12743165E+03</pdfrwt>
<pdfrwt beam="2">  1       21 0.32848968E-01 0.12743165E+03</pdfrwt>
<totfact> 0.53185498E+05</totfact>
</mgrwt>
</event>
<event>
 5    1  0.1696945E+000  0.1066748E+03  0.7546771E-02  0.1266855E+00
         21   -1    0    0  503  502  0.00000000000E+00  0.00000000000E+00  0.73687887130E+03  0.73687887130E+03  0.00000000000E+00 0.  1.
         21   -1    0    0  501  503 -0.00000000000E+00 -0.00000000000E+00 -0.12526408458E+03  0.12526408458E+03  0.00000000000E+00 0. -1.
         24    1    1    2    0    0 -0.36449648179E+02 -0.12033450918E+02  0.60704356017E+02  0.10782214794E+03  0.80419002446E+02 0.  0.
          1    1    1    2  501    0  0.25379584178E+02  0.65182861236E+02 -0.88389821286E+02  0.11271951561E+03  0.00000000000E+00 0. -1.
         -2    1    1    2    0  502  0.11070064001E+02 -0.53149410318E+02  0.63930025199E+03  0.64160129234E+03  0.00000000000E+00 0.  1.
<mgrwt>
<rscale>  2 0.10667476E+03</rscale>
<asrwt>0</asrwt>
<pdfrwt beam="1">  1       21 0.11336598E+00 0.10667476E+03</pdfrwt>
<pdfrwt beam="2">  1       21 0.19271398E-01 0.10667476E+03</pdfrwt>
<totfact> 0.16057400E+04</totfact>
</mgrwt>
</event>
<event>
 5    1  0.2426340E+000  0.7671851E+02  0.7546771E-02  0.1338630E+00
         21   -1    0    0  501  502  0.00000000000E+00  0.00000000000E+00  0.12981321892E+03  0.12981321892E+03  0.00000000000E+00 0. -1.
         21   -1    0    0  502  503 -0.00000000000E+00 -0.00000000000E+00 -0.53587059966E+03  0.53587059966E+03  0.00000000000E+00 0.  1.
         24    1    1    2    0    0 -0.22756754909E+02 -0.19319207919E+02  0.31111642655E+02  0.91248298349E+02  0.80419002446E+02 0.  0.
          1    1    1    2  501    0 -0.19638840978E+02  0.15632142064E+02  0.65408561938E+02  0.70059459856E+02  0.00000000000E+00 0. -1.
         -2    1    1    2    0  503  0.42395595887E+02  0.36870658550E+01 -0.50257758533E+03  0.50437606037E+03  0.00000000000E+00 0.  1.
<mgrwt>
<rscale>  2 0.76718508E+02</rscale>
<asrwt>0</asrwt>
<pdfrwt beam="1">  1       21 0.19971264E-01 0.76718508E+02</pdfrwt>
<pdfrwt beam="2">  1       21 0.82441632E-01 0.76718508E+02</pdfrwt>
<totfact> 0.32258859E+04</totfact>
</mgrwt>
</event>
<event>
 5    1  0.1696945E+000  0.8286116E+02  0.7546771E-02  0.1321123E+00
         21   -1    0    0  501  502  0.00000000000E+00  0.00000000000E+00  0.12413763745E+02  0.12413763745E+02  0.00000000000E+00 0.  1.
         21   -1    0    0  502  503 -0.00000000000E+00 -0.00000000000E+00 -0.71985724337E+03  0.71985724337E+03  0.00000000000E+00 0. -1.
         24    1    1    2    0    0  0.24558410885E+02  0.30332174597E+02 -0.25812780504E+03  0.27316723093E+03  0.80419002446E+02 0.  0.
          1    1    1    2  501    0 -0.45860315601E+02 -0.10109841797E+02 -0.12617582893E+03  0.13463178397E+03  0.00000000000E+00 0. -1.
         -2    1    1    2    0  503  0.21301904716E+02 -0.20222332800E+02 -0.32313984566E+03  0.32447199222E+03  0.00000000000E+00 0.  1.
<mgrwt>
<rscale>  2 0.82861160E+02</rscale>
<asrwt>0</asrwt>
<pdfrwt beam="1">  1       21 0.19098097E-02 0.82861160E+02</pdfrwt>
<pdfrwt beam="2">  1       21 0.11074728E+00 0.82861160E+02</pdfrwt>
<totfact> 0.86038344E+05</totfact>
</mgrwt>
</event>
<event>
 5    1  0.1696945E+000  0.7542146E+02  0.7546771E-02  0.1342571E+00
         21   -1    0    0  503  502  0.00000000000E+00  0.00000000000E+00  0.99251296505E+03  0.99251296505E+03  0.00000000000E+00 0. -1.
         21   -1    0    0  501  503 -0.00000000000E+00 -0.00000000000E+00 -0.28773371798E+02  0.28773371798E+02  0.00000000000E+00 0. -1.
         24    1    1    2    0    0 -0.51044379760E+02  0.84158232685E+01  0.75125371808E+03  0.75731480882E+03  0.80419002446E+02 0. -1.
          1    1    1    2  501    0  0.20488219758E+02  0.61210720104E+01 -0.19854889721E+02  0.29179638744E+02  0.00000000000E+00 0. -1.
         -2    1    1    2    0  502  0.30556160002E+02 -0.14536895279E+02  0.23234076490E+03  0.23479188928E+03  0.00000000000E+00 0.  1.
<mgrwt>
<rscale>  2 0.75421459E+02</rscale>
<asrwt>0</asrwt>
<pdfrwt beam="1">  1       21 0.15269428E+00 0.75421459E+02</pdfrwt>
<pdfrwt beam="2">  1       21 0.44266734E-02 0.75421459E+02</pdfrwt>
<totfact> 0.10097908E+05</totfact>
</mgrwt>
</event>
<event>
 5    1  0.1696945E+000  0.7903496E+02  0.7546771E-02  0.1331813E+00
         21   -1    0    0  503  502  0.00000000000E+00  0.00000000000E+00  0.49965637081E+01  0.49965637081E+01  0.00000000000E+00 0.  1.
         21   -1    0    0  501  503 -0.00000000000E+00 -0.00000000000E+00 -0.14067796813E+04  0.14067796813E+04  0.00000000000E+00 0. -1.
         24    1    1    2    0    0  0.16330967618E+02 -0.26567886956E+01 -0.90802998011E+03  0.91173429231E+03  0.80419002446E+02 0. -1.
          1    1    1    2  501    0  0.23572836851E+02  0.21438485074E+02 -0.27852315184E+03  0.28033985338E+03  0.00000000000E+00 0. -1.
         -2    1    1    2    0  502 -0.39903804469E+02 -0.18781696378E+02 -0.21522998560E+03  0.21970209929E+03  0.00000000000E+00 0.  1.
<mgrwt>
<rscale>  2 0.79034957E+02</rscale>
<asrwt>0</asrwt>
<pdfrwt beam="1">  1       21 0.76870181E-03 0.79034957E+02</pdfrwt>
<pdfrwt beam="2">  1       21 0.21642773E+00 0.79034957E+02</pdfrwt>
<totfact> 0.63391817E+05</totfact>
</mgrwt>
</event>
<event>
 5    1  0.1696945E+000  0.9901118E+02  0.7546771E-02  0.1282389E+00
         21   -1    0    0  501  502  0.00000000000E+00  0.00000000000E+00  0.21870209622E+02  0.21870209622E+02  0.00000000000E+00 0.  1.
         21   -1    0    0  502  503 -0.00000000000E+00 -0.00000000000E+00 -0.68079715714E+03  0.68079715714E+03  0.00000000000E+00 0.  1.
         24    1    1    2    0    0 -0.59270777161E+02 -0.23069853949E+02 -0.20050995328E+03  0.22520368670E+03  0.80419002446E+02 0.  1.
          1    1    1    2  501    0  0.38319011664E+01  0.37908527688E+02 -0.40428180273E+02  0.55553377019E+02  0.00000000000E+00 0. -1.
         -2    1    1    2    0  503  0.55438875995E+02 -0.14838673740E+02 -0.41798881396E+03  0.42191030304E+03  0.00000000000E+00 0.  1.
<mgrwt>
<rscale>  2 0.99011182E+02</rscale>
<asrwt>0</asrwt>
<pdfrwt beam="1">  1       21 0.33646473E-02 0.99011182E+02</pdfrwt>
<pdfrwt beam="2">  1       21 0.10473803E+00 0.99011182E+02</pdfrwt>
<totfact> 0.39250983E+05</totfact>
</mgrwt>
</event>
<event>
 5    1  0.1696945E+000  0.8661146E+02  0.7546771E-02  0.1311271E+00
         21   -1    0    0  503  502  0.00000000000E+00  0.00000000000E+00  0.32765593693E+03  0.32765593693E+03  0.00000000000E+00 0.  1.
         21   -1    0    0  501  503 -0.00000000000E+00 -0.00000000000E+00 -0.71230027974E+02  0.71230027974E+02  0.00000000000E+00 0. -1.
         24    1    1    2    0    0  0.15322473940E+02 -0.42202549865E+02  0.92880876859E+02  0.13080484189E+03  0.80419002446E+02 0. -1.
          1    1    1    2  501    0 -0.29005124863E+02 -0.71765041850E+01 -0.44621118700E+02  0.53701431216E+02  0.00000000000E+00 0. -1.
         -2    1    1    2    0  502  0.13682650923E+02  0.49379054050E+02  0.20816615080E+03  0.21437969180E+03  0.00000000000E+00 0.  1.
<mgrwt>
<rscale>  2 0.86611456E+02</rscale>
<asrwt>0</asrwt>
<pdfrwt beam="1">  1       21 0.50408605E-01 0.86611456E+02</pdfrwt>
<pdfrwt beam="2">  1       21 0.10958466E-01 0.86611456E+02</pdfrwt>
<totfact> 0.26490267E+05</totfact>
</mgrwt>
</event>
<event>
 5    1  0.1696945E+000  0.8996879E+02  0.7546771E-02  0.1302927E+00
         21   -1    0    0  503  502  0.00000000000E+00  0.00000000000E+00  0.13692412879E+02  0.13692412879E+02  0.00000000000E+00 0.  1.
         21   -1    0    0  501  503 -0.00000000000E+00 -0.00000000000E+00 -0.12487733631E+04  0.12487733631E+04  0.00000000000E+00 0. -1.
         24    1    1    2    0    0  0.29483547994E+01  0.34010066394E+02 -0.54664787403E+03  0.55358512584E+03  0.80419002446E+02 0. -1.
          1    1    1    2  501    0  0.31804756012E+02 -0.45899899092E+02 -0.66018841969E+03  0.66254591745E+03  0.00000000000E+00 0. -1.
         -2    1    1    2    0  502 -0.34753110811E+02  0.11889832697E+02 -0.28244656505E+02  0.46334732693E+02  0.00000000000E+00 0.  1.
<mgrwt>
<rscale>  2 0.89968788E+02</rscale>
<asrwt>0</asrwt>
<pdfrwt beam="1">  1       21 0.21065249E-02 0.89968788E+02</pdfrwt>
<pdfrwt beam="2">  1       21 0.19211900E+00 0.89968788E+02</pdfrwt>
<totfact> 0.18108037E+05</totfact>
</mgrwt>
</event>
<event>
 5    1  0.1696945E+000  0.7691327E+02  0.7546771E-02  0.1338047E+00
         21   -1    0    0  501  502  0.00000000000E+00  0.00000000000E+00  0.21507521856E+02  0.21507521856E+02  0.00000000000E+00 0. -1.
         21   -1    0    0  502  503 -0.00000000000E+00 -0.00000000000E+00 -0.28980872741E+03  0.28980872741E+03  0.00000000000E+00 0.  1.
         24    1    1    2    0    0  0.44959887292E+02 -0.14416995523E+01 -0.19355896378E+03  0.21437294226E+03  0.80419002446E+02 0.  0.
          1    1    1    2  501    0 -0.33692258424E+02 -0.18750487274E+02 -0.48714116669E+02  0.62127403081E+02  0.00000000000E+00 0. -1.
         -2    1    1    2    0  503 -0.11267628868E+02  0.20192186827E+02 -0.26028125111E+02  0.34815903923E+02  0.00000000000E+00 0.  1.
<mgrwt>
<rscale>  2 0.76913268E+02</rscale>
<asrwt>0</asrwt>
<pdfrwt beam="1">  1       21 0.33088496E-02 0.76913268E+02</pdfrwt>
<pdfrwt beam="2">  1       21 0.44585956E-01 0.76913268E+02</pdfrwt>
<totfact> 0.25287850E+06</totfact>
</mgrwt>
</event>
<event>
 5    1  0.1696945E+000  0.1030305E+03  0.7546771E-02  0.1274049E+00
         21   -1    0    0  501  502  0.00000000000E+00  0.00000000000E+00  0.20171502296E+03  0.20171502296E+03  0.00000000000E+00 0. -1.
         21   -1    0    0  502  503 -0.00000000000E+00 -0.00000000000E+00 -0.79407741284E+02  0.79407741284E+02  0.00000000000E+00 0.  1.
         24    1    1    2    0    0  0.27943110434E+02  0.20069501013E+02  0.55098587991E+02  0.10337636405E+03  0.80419002446E+02 0.  1.
          1    1    1    2  501    0  0.42089276213E+02 -0.23996958947E+02  0.91484543848E+02  0.10352189611E+03  0.00000000000E+00 0. -1.
         -2    1    1    2    0  503 -0.70032386647E+02  0.39274579344E+01 -0.24275850164E+02  0.74224504084E+02  0.00000000000E+00 0.  1.
<mgrwt>
<rscale>  2 0.10303048E+03</rscale>
<asrwt>0</asrwt>
<pdfrwt beam="1">  1       21 0.31033080E-01 0.10303048E+03</pdfrwt>
<pdfrwt beam="2">  1       21 0.12216576E-01 0.10303048E+03</pdfrwt>
<totfact> 0.57119035E+05</totfact>
</mgrwt>
</event>
<event>
 5    1  0.1696945E+000  0.1069224E+03  0.7546771E-02  0.1266378E+00
         21   -1    0    0  503  502  0.00000000000E+00  0.00000000000E+00  0.74435378231E+03  0.74435378231E+03  0.00000000000E+00 0.  1.
         21   -1    0    0  501  503 -0.00000000000E+00 -0.00000000000E+00 -0.17417576201E+02  0.17417576201E+02  0.00000000000E+00 0.  1.
         24    1    1    2    0    0  0.68273659488E+02  0.18857717029E+01  0.46165857201E+03  0.47356171908E+03  0.80419002446E+02 0.  1.
          1    1    1    2  501    0  0.20017772750E+02  0.23939074967E+00  0.23866856478E+02  0.31151169673E+02  0.00000000000E+00 0. -1.
         -2    1    1    2    0  502 -0.88291432238E+02 -0.21251624526E+01  0.24141077762E+03  0.25705846976E+03  0.00000000000E+00 0.  1.
<mgrwt>
<rscale>  2 0.10692240E+03</rscale>
<asrwt>0</asrwt>
<pdfrwt beam="1">  1       21 0.11451594E+00 0.10692240E+03</pdfrwt>
<pdfrwt beam="2">  1       21 0.26796277E-02 0.10692240E+03</pdfrwt>
<totfact> 0.45989403E+05</totfact>
</mgrwt>
</event>
<event>
 5    1  0.1696945E+000  0.1551803E+03  0.7546771E-02  0.1194248E+00
         21   -1    0    0  501  502  0.00000000000E+00  0.00000000000E+00  0.40718040813E+03  0.40718040813E+03  0.00000000000E+00 0. -1.
         21   -1    0    0  502  503 -0.00000000000E+00 -0.00000000000E+00 -0.87913819695E+02  0.87913819695E+02  0.00000000000E+00 0.  1.
         24    1    1    2    0    0 -0.53770055260E+02  0.41983950203E+01  0.14323810776E+03  0.17289654951E+03  0.80419002446E+02 0. -1.
          1    1    1    2  501    0  0.12930917415E+03  0.26491751866E+02  0.19780758645E+03  0.23780352540E+03  0.00000000000E+00 0. -1.
         -2    1    1    2    0  503 -0.75539118888E+02 -0.30690146887E+02 -0.21779105772E+02  0.84394152917E+02  0.00000000000E+00 0.  1.
<mgrwt>
<rscale>  2 0.15518029E+03</rscale>
<asrwt>0</asrwt>
<pdfrwt beam="1">  1       21 0.62643139E-01 0.15518029E+03</pdfrwt>
<pdfrwt beam="2">  1       21 0.13525203E-01 0.15518029E+03</pdfrwt>
<totfact> 0.11335368E+05</totfact>
</mgrwt>
</event>
<event>
 5    1  0.1696945E+000  0.1657766E+03  0.7546771E-02  0.1182325E+00
         21   -1    0    0  503  502  0.00000000000E+00  0.00000000000E+00  0.14245809535E+03  0.14245809535E+03  0.00000000000E+00 0.  1.
         21   -1    0    0  501  503 -0.00000000000E+00 -0.00000000000E+00 -0.41561309245E+03  0.41561309245E+03  0.00000000000E+00 0.  1.
         24    1    1    2    0    0 -0.79464204756E+02 -0.11508497442E+03 -0.19348397097E+03  0.25191739549E+03  0.80419002446E+02 0.  1.
          1    1    1    2  501    0 -0.20969453872E+02  0.57062997434E+01 -0.14305586658E+03  0.14469713479E+03  0.00000000000E+00 0. -1.
         -2    1    1    2    0  502  0.10043365863E+03  0.10937867468E+03  0.63384840444E+02  0.16145665752E+03  0.00000000000E+00 0.  1.
<mgrwt>
<rscale>  2 0.16577663E+03</rscale>
<asrwt>0</asrwt>
<pdfrwt beam="1">  1       21 0.21916630E-01 0.16577663E+03</pdfrwt>
<pdfrwt beam="2">  1       21 0.63940477E-01 0.16577663E+03</pdfrwt>
<totfact> 0.44518192E+04</totfact>
</mgrwt>
</event>
<event>
 5    1  0.1696945E+000  0.7740021E+02  0.7546771E-02  0.1336595E+00
         21   -1    0    0  503  502  0.00000000000E+00  0.00000000000E+00  0.67508373422E+02  0.67508373422E+02  0.00000000000E+00 0.  1.
         21   -1    0    0  501  503 -0.00000000000E+00 -0.00000000000E+00 -0.46695691469E+03  0.46695691469E+03  0.00000000000E+00 0. -1.
         24    1    1    2    0    0 -0.71146494184E+01  0.53834640941E+01 -0.35663481290E+03  0.36569824398E+03  0.80419002446E+02 0.  0.
          1    1    1    2  501    0 -0.11228051801E+02 -0.36268486955E+02 -0.96767558479E+02  0.10394918310E+03  0.00000000000E+00 0. -1.
         -2    1    1    2    0  502  0.18342701219E+02  0.30885022860E+02  0.53953830112E+02  0.64817861033E+02  0.00000000000E+00 0.  1.
<mgrwt>
<rscale>  2 0.77400208E+02</rscale>
<asrwt>0</asrwt>
<pdfrwt beam="1">  1       21 0.10385903E-01 0.77400208E+02</pdfrwt>
<pdfrwt beam="2">  1       21 0.71839528E-01 0.77400208E+02</pdfrwt>
<totfact> 0.13876181E+05</totfact>
</mgrwt>
</event>
<event>
 5    1  0.1696945E+000  0.9888041E+02  0.7546771E-02  0.1282668E+00
         21   -1    0    0  503  502  0.00000000000E+00  0.00000000000E+00  0.27493788020E+03  0.27493788020E+03  0.00000000000E+00 0. -1.
         21   -1    0    0  501  503 -0.00000000000E+00 -0.00000000000E+00 -0.11918565593E+03  0.11918565593E+03  0.00000000000E+00 0. -1.
         24    1    1    2    0    0  0.91445515075E+01 -0.35117370175E+02 -0.69179529004E+02  0.11211545700E+03  0.80419002446E+02 0. -1.
          1    1    1    2  501    0  0.47201422850E+02  0.19433276934E+02  0.15207722581E+01  0.51067987230E+02  0.00000000000E+00 0. -1.
         -2    1    1    2    0  502 -0.56345974358E+02  0.15684093241E+02  0.22341098102E+03  0.23094009190E+03  0.00000000000E+00 0.  1.
<mgrwt>
<rscale>  2 0.98880411E+02</rscale>
<asrwt>0</asrwt>
<pdfrwt beam="1">  1       21 0.42298135E-01 0.98880411E+02</pdfrwt>
<pdfrwt beam="2">  1       21 0.18336255E-01 0.98880411E+02</pdfrwt>
<totfact> 0.15052516E+05</totfact>
</mgrwt>
</event>
<event>
 5    1  0.1696945E+000  0.1011894E+03  0.7546771E-02  0.1277815E+00
         21   -1    0    0  503  502  0.00000000000E+00  0.00000000000E+00  0.55905682316E+02  0.55905682316E+02  0.00000000000E+00 0. -1.
         21   -1    0    0  501  503 -0.00000000000E+00 -0.00000000000E+00 -0.40260415140E+03  0.40260415140E+03  0.00000000000E+00 0.  1.
         24    1    1    2    0    0  0.59388160155E+02 -0.38376359916E+00 -0.29039409427E+03  0.30712057368E+03  0.80419002446E+02 0.  1.
          1    1    1    2  501    0 -0.78822561627E+02  0.12052708846E+02 -0.83852816513E+02  0.11571326134E+03  0.00000000000E+00 0. -1.
         -2    1    1    2    0  502  0.19434401472E+02 -0.11668945247E+02  0.27548441689E+02  0.35675998700E+02  0.00000000000E+00 0.  1.
<mgrwt>
<rscale>  2 0.10118939E+03</rscale>
<asrwt>0</asrwt>
<pdfrwt beam="1">  1       21 0.86008746E-02 0.10118939E+03</pdfrwt>
<pdfrwt beam="2">  1       21 0.61939097E-01 0.10118939E+03</pdfrwt>
<totfact> 0.26163301E+05</totfact>
</mgrwt>
</event>
<event>
 5    1  0.1696945E+000  0.7230414E+02  0.7546771E-02  0.1352428E+00
         21   -1    0    0  503  502  0.00000000000E+00  0.00000000000E+00  0.52935665846E+02  0.52935665846E+02  0.00000000000E+00 0. -1.
         21   -1    0    0  501  503 -0.00000000000E+00 -0.00000000000E+00 -0.10863718476E+03  0.10863718476E+03  0.00000000000E+00 0.  1.
         24    1    1    2    0    0 -0.16081951008E+02 -0.42054225191E+02 -0.29092624895E+02  0.96647730352E+02  0.80419002446E+02 0.  0.
          1    1    1    2  501    0 -0.37043847047E+01  0.27827909398E+02 -0.29092844201E+02  0.40429056274E+02  0.00000000000E+00 0. -1.
         -2    1    1    2    0  502  0.19786335713E+02  0.14226315793E+02  0.24839501831E+01  0.24496063980E+02  0.00000000000E+00 0.  1.
<mgrwt>
<rscale>  2 0.72304136E+02</rscale>
<asrwt>0</asrwt>
<pdfrwt beam="1">  1       21 0.81439486E-02 0.72304136E+02</pdfrwt>
<pdfrwt beam="2">  1       21 0.16713413E-01 0.72304136E+02</pdfrwt>
<totfact> 0.35869078E+06</totfact>
</mgrwt>
</event>
<event>
 5    1  0.1696945E+000  0.1155358E+03  0.7546771E-02  0.1250649E+00
         21   -1    0    0  501  502  0.00000000000E+00  0.00000000000E+00  0.26845428332E+04  0.26845428332E+04  0.00000000000E+00 0. -1.
         21   -1    0    0  502  503 -0.00000000000E+00 -0.00000000000E+00 -0.66812562855E+01  0.66812562855E+01  0.00000000000E+00 0.  1.
         24    1    1    2    0    0 -0.40964838766E+02 -0.43810515723E+02  0.12112004775E+04  0.12153482184E+04  0.80419002446E+02 0. -1.
          1    1    1    2  501    0 -0.11320755516E+02  0.70944202466E+02  0.12262659982E+04  0.12283686490E+04  0.00000000000E+00 0. -1.
         -2    1    1    2    0  503  0.52285594282E+02 -0.27133686743E+02  0.24039510112E+03  0.24750722205E+03  0.00000000000E+00 0.  1.
<mgrwt>
<rscale>  2 0.11553580E+03</rscale>
<asrwt>0</asrwt>
<pdfrwt beam="1">  1       21 0.41300573E+00 0.11553580E+03</pdfrwt>
<pdfrwt beam="2">  1       21 0.10278877E-02 0.11553580E+03</pdfrwt>
<totfact> 0.29091087E+04</totfact>
</mgrwt>
</event>
<event>
 5    1  0.1696945E+000  0.1311107E+03  0.7546771E-02  0.1225817E+00
         21   -1    0    0  503  502  0.00000000000E+00  0.00000000000E+00  0.45303763492E+02  0.45303763492E+02  0.00000000000E+00 0.  1.
         21   -1    0    0  501  503 -0.00000000000E+00 -0.00000000000E+00 -0.11611468869E+04  0.11611468869E+04  0.00000000000E+00 0. -1.
         24    1    1    2    0    0 -0.62915149431E+02  0.73483352231E+01 -0.23023128757E+03  0.25196423514E+03  0.80419002446E+02 0. -1.
          1    1    1    2  501    0  0.52867633185E+02 -0.74832536025E+02 -0.88137749912E+03  0.88612707387E+03  0.00000000000E+00 0. -1.
         -2    1    1    2    0  502  0.10047516246E+02  0.67484200801E+02 -0.42343366657E+01  0.68359341333E+02  0.00000000000E+00 0.  1.
<mgrwt>
<rscale>  2 0.13111065E+03</rscale>
<asrwt>0</asrwt>
<pdfrwt beam="1">  1       21 0.69698105E-02 0.13111065E+03</pdfrwt>
<pdfrwt beam="2">  1       21 0.17863796E+00 0.13111065E+03</pdfrwt>
<totfact> 0.29649342E+04</totfact>
</mgrwt>
</event>
<event>
 5    1  0.1696945E+000  0.9755808E+02  0.7546771E-02  0.1285516E+00
         21   -1    0    0  501  502  0.00000000000E+00  0.00000000000E+00  0.39395074961E+03  0.39395074961E+03  0.00000000000E+00 0.  1.
         21   -1    0    0  502  503 -0.00000000000E+00 -0.00000000000E+00 -0.25665129422E+02  0.25665129422E+02  0.00000000000E+00 0. -1.
         24    1    1    2    0    0 -0.15186481788E+01 -0.36897557279E+01  0.17244334133E+03  0.19031511373E+03  0.80419002446E+02 0.  1.
          1    1    1    2  501    0 -0.88913237678E+00  0.59114515513E+02  0.13254575198E+03  0.14513336236E+03  0.00000000000E+00 0. -1.
         -2    1    1    2    0  503  0.24077805556E+01 -0.55424759785E+02  0.63296526876E+02  0.84167402947E+02  0.00000000000E+00 0.  1.
<mgrwt>
<rscale>  2 0.97558082E+02</rscale>
<asrwt>0</asrwt>
<pdfrwt beam="1">  1       21 0.60607803E-01 0.97558082E+02</pdfrwt>
<pdfrwt beam="2">  1       21 0.39484817E-02 0.97558082E+02</pdfrwt>
<totfact> 0.10156107E+06</totfact>
</mgrwt>
</event>
<event>
 5    1  0.1696945E+000  0.9239110E+02  0.7546771E-02  0.1297162E+00
         21   -1    0    0  503  502  0.00000000000E+00  0.00000000000E+00  0.18757874641E+02  0.18757874641E+02  0.00000000000E+00 0.  1.
         21   -1    0    0  501  503 -0.00000000000E+00 -0.00000000000E+00 -0.55956639931E+03  0.55956639931E+03  0.00000000000E+00 0. -1.
         24    1    1    2    0    0  0.56837600037E+02 -0.79076325796E+00 -0.23449245207E+03  0.25433258564E+03  0.80419002446E+02 0.  1.
          1    1    1    2  501    0 -0.40699181933E+02 -0.30657880730E+02 -0.26391646246E+03  0.26879030529E+03  0.00000000000E+00 0. -1.
         -2    1    1    2    0  502 -0.16138418104E+02  0.31448643988E+02 -0.42399610132E+02  0.55201383017E+02  0.00000000000E+00 0.  1.
<mgrwt>
<rscale>  2 0.92391095E+02</rscale>
<asrwt>0</asrwt>
<pdfrwt beam="1">  1       21 0.28858269E-02 0.92391095E+02</pdfrwt>
<pdfrwt beam="2">  1       21 0.86087138E-01 0.92391095E+02</pdfrwt>
<totfact> 0.79075502E+05</totfact>
</mgrwt>
</event>
<event>
 5    1  0.1696945E+000  0.1048541E+03  0.7546771E-02  0.1270407E+00
         21   -1    0    0  503  502  0.00000000000E+00  0.00000000000E+00  0.12566755986E+04  0.12566755986E+04  0.00000000000E+00 0.  1.
         21   -1    0    0  501  503 -0.00000000000E+00 -0.00000000000E+00 -0.49189049492E+02  0.49189049492E+02  0.00000000000E+00 0.  1.
         24    1    1    2    0    0 -0.73645342706E+02  0.24088304779E+02  0.29721867174E+02  0.11556162110E+03  0.80419002446E+02 0.  1.
          1    1    1    2  501    0  0.45400297194E+02  0.16739845935E+02  0.97006017956E+02  0.10840469061E+03  0.00000000000E+00 0. -1.
         -2    1    1    2    0  502  0.28245045512E+02 -0.40828150715E+02  0.10807586640E+04  0.10818983364E+04  0.00000000000E+00 0.  1.
<mgrwt>
<rscale>  2 0.10485407E+03</rscale>
<asrwt>0</asrwt>
<pdfrwt beam="1">  1       21 0.19333468E+00 0.10485407E+03</pdfrwt>
<pdfrwt beam="2">  1       21 0.75675470E-02 0.10485407E+03</pdfrwt>
<totfact> 0.21213037E+04</totfact>
</mgrwt>
</event>
<event>
 5    1  0.1696945E+000  0.6468267E+02  0.7546771E-02  0.1379169E+00
         21   -1    0    0  501  502  0.00000000000E+00  0.00000000000E+00  0.53555996117E+03  0.53555996117E+03  0.00000000000E+00 0. -1.
         21   -1    0    0  502  503 -0.00000000000E+00 -0.00000000000E+00 -0.25267648325E+02  0.25267648325E+02  0.00000000000E+00 0.  1.
         24    1    1    2    0    0 -0.19506325355E+02  0.10740026081E+02  0.24333592460E+03  0.25724586108E+03  0.80419002446E+02 0.  0.
          1    1    1    2  501    0  0.20197596940E+02  0.11785244089E+02  0.27765309783E+03  0.27863610253E+03  0.00000000000E+00 0. -1.
         -2    1    1    2    0  503 -0.69127158461E+00 -0.22525270170E+02 -0.10696709581E+02  0.24945645882E+02  0.00000000000E+00 0.  1.
<mgrwt>
<rscale>  2 0.64682667E+02</rscale>
<asrwt>0</asrwt>
<pdfrwt beam="1">  1       21 0.82393832E-01 0.64682667E+02</pdfrwt>
<pdfrwt beam="2">  1       21 0.38873309E-02 0.64682667E+02</pdfrwt>
<totfact> 0.53595391E+05</totfact>
</mgrwt>
</event>
<event>
 5    1  0.1696945E+000  0.8568218E+02  0.7546771E-02  0.1313658E+00
         21   -1    0    0  501  502  0.00000000000E+00  0.00000000000E+00  0.38058019638E+02  0.38058019638E+02  0.00000000000E+00 0. -1.
         21   -1    0    0  502  503 -0.00000000000E+00 -0.00000000000E+00 -0.26294177547E+03  0.26294177547E+03  0.00000000000E+00 0.  1.
         24    1    1    2    0    0  0.96693492423E+01  0.29041391222E+02 -0.88596353581E+02  0.12350477133E+03  0.80419002446E+02 0.  1.
          1    1    1    2  501    0  0.27577674821E+02  0.11840377253E+02  0.43004822957E+00  0.30015123246E+02  0.00000000000E+00 0. -1.
         -2    1    1    2    0  503 -0.37247024063E+02 -0.40881768475E+02 -0.13671745049E+03  0.14747990054E+03  0.00000000000E+00 0.  1.
<mgrwt>
<rscale>  2 0.85682180E+02</rscale>
<asrwt>0</asrwt>
<pdfrwt beam="1">  1       21 0.58550801E-02 0.85682180E+02</pdfrwt>
<pdfrwt beam="2">  1       21 0.40452580E-01 0.85682180E+02</pdfrwt>
<totfact> 0.12016124E+06</totfact>
</mgrwt>
</event>
<event>
 5    1  0.1696945E+000  0.6784570E+02  0.7546771E-02  0.1367576E+00
         21   -1    0    0  501  502  0.00000000000E+00  0.00000000000E+00  0.10423972135E+02  0.10423972135E+02  0.00000000000E+00 0. -1.
         21   -1    0    0  502  503 -0.00000000000E+00 -0.00000000000E+00 -0.46547658892E+03  0.46547658892E+03  0.00000000000E+00 0. -1.
         24    1    1    2    0    0  0.16827789816E+02  0.40631161202E+02 -0.31407176458E+03  0.32717327982E+03  0.80419002446E+02 0. -1.
          1    1    1    2  501    0 -0.75194978298E+01 -0.21027761430E+02 -0.43936941429E+02  0.49286554156E+02  0.00000000000E+00 0. -1.
         -2    1    1    2    0  503 -0.93082919865E+01 -0.19603399771E+02 -0.97043910781E+02  0.99440727079E+02  0.00000000000E+00 0.  1.
<mgrwt>
<rscale>  2 0.67845705E+02</rscale>
<asrwt>0</asrwt>
<pdfrwt beam="1">  1       21 0.16036884E-02 0.67845705E+02</pdfrwt>
<pdfrwt beam="2">  1       21 0.71611764E-01 0.67845705E+02</pdfrwt>
<totfact> 0.30030146E+06</totfact>
</mgrwt>
</event>
<event>
 5    1  0.1696945E+000  0.1134733E+03  0.7546771E-02  0.1254270E+00
         21   -1    0    0  503  502  0.00000000000E+00  0.00000000000E+00  0.60331373804E+02  0.60331373804E+02  0.00000000000E+00 0.  1.
         21   -1    0    0  501  503 -0.00000000000E+00 -0.00000000000E+00 -0.43603005913E+03  0.43603005913E+03  0.00000000000E+00 0.  1.
         24    1    1    2    0    0  0.28765185038E+02 -0.65303560327E+02 -0.20272391340E+03  0.22946937025E+03  0.80419002446E+02 0.  1.
          1    1    1    2  501    0  0.34559350142E+02  0.35156650198E+02 -0.18868563669E+03  0.19501950730E+03  0.00000000000E+00 0. -1.
         -2    1    1    2    0  502 -0.63324535180E+02  0.30146910129E+02  0.15710864764E+02  0.71872555386E+02  0.00000000000E+00 0.  1.
<mgrwt>
<rscale>  2 0.11347330E+03</rscale>
<asrwt>0</asrwt>
<pdfrwt beam="1">  1       21 0.92817494E-02 0.11347330E+03</pdfrwt>
<pdfrwt beam="2">  1       21 0.67081551E-01 0.11347330E+03</pdfrwt>
<totfact> 0.19275230E+05</totfact>
</mgrwt>
</event>
<event>
 5    1  0.1696945E+000  0.7935297E+02  0.7546771E-02  0.1330898E+00
         21   -1    0    0  503  502  0.00000000000E+00  0.00000000000E+00  0.48571471576E+02  0.48571471576E+02  0.00000000000E+00 0.  1.
         21   -1    0    0  501  503 -0.00000000000E+00 -0.00000000000E+00 -0.35389141540E+03  0.35389141540E+03  0.00000000000E+00 0.  1.
         24    1    1    2    0    0 -0.16423539679E+02 -0.55512572264E+02 -0.20229535789E+03  0.22525986352E+03  0.80419002446E+02 0.  1.
          1    1    1    2  501    0  0.15878674366E+02  0.28705817910E+02 -0.13299990506E+03  0.13698587893E+03  0.00000000000E+00 0. -1.
         -2    1    1    2    0  502  0.54486531245E+00  0.26806754354E+02  0.29975319123E+02  0.40217144525E+02  0.00000000000E+00 0.  1.
<mgrwt>
<rscale>  2 0.79352966E+02</rscale>
<asrwt>0</asrwt>
<pdfrwt beam="1">  1       21 0.74725340E-02 0.79352966E+02</pdfrwt>
<pdfrwt beam="2">  1       21 0.54444834E-01 0.79352966E+02</pdfrwt>
<totfact> 0.43702210E+05</totfact>
</mgrwt>
</event>
<event>
 5    1  0.1696945E+000  0.7101634E+02  0.7546771E-02  0.1356671E+00
         21   -1    0    0  503  502  0.00000000000E+00  0.00000000000E+00  0.55489713018E+03  0.55489713018E+03  0.00000000000E+00 0.  1.
         21   -1    0    0  501  503 -0.00000000000E+00 -0.00000000000E+00 -0.69059706957E+02  0.69059706957E+02  0.00000000000E+00 0.  1.
         24    1    1    2    0    0  0.32315707044E+02  0.22021701104E+02 -0.19683335434E+02  0.91563693075E+02  0.80419002446E+02 0.  1.
          1    1    1    2  501    0 -0.20083105050E+02  0.68775477634E+01 -0.42567164660E+01  0.21650667583E+02  0.00000000000E+00 0. -1.
         -2    1    1    2    0  502 -0.12232601994E+02 -0.28899248868E+02  0.50977747513E+03  0.51074247648E+03  0.00000000000E+00 0.  1.
<mgrwt>
<rscale>  2 0.71016340E+02</rscale>
<asrwt>0</asrwt>
<pdfrwt beam="1">  1       21 0.85368786E-01 0.71016340E+02</pdfrwt>
<pdfrwt beam="2">  1       21 0.10624571E-01 0.71016340E+02</pdfrwt>
<totfact> 0.91817374E+04</totfact>
</mgrwt>
</event>
<event>
 5    1  0.1696945E+000  0.7004097E+02  0.7546771E-02  0.1359954E+00
         21   -1    0    0  501  502  0.00000000000E+00  0.00000000000E+00  0.12710219994E+02  0.12710219994E+02  0.00000000000E+00 0.  1.
         21   -1    0    0  502  503 -0.00000000000E+00 -0.00000000000E+00 -0.57149808004E+03  0.57149808004E+03  0.00000000000E+00 0.  1.
         24    1    1    2    0    0 -0.77511751679E+01 -0.28509583046E+02 -0.18611992915E+03  0.20489197404E+03  0.80419002446E+02 0.  1.
          1    1    1    2  501    0  0.26993236812E+02  0.18435260443E+02 -0.88911821894E+02  0.94730173301E+02  0.00000000000E+00 0. -1.
         -2    1    1    2    0  503 -0.19242061644E+02  0.10074322603E+02 -0.28375610900E+03  0.28458615270E+03  0.00000000000E+00 0.  1.
<mgrwt>
<rscale>  2 0.70040973E+02</rscale>
<asrwt>0</asrwt>
<pdfrwt beam="1">  1       21 0.19554189E-02 0.70040973E+02</pdfrwt>
<pdfrwt beam="2">  1       21 0.87922762E-01 0.70040973E+02</pdfrwt>
<totfact> 0.14029100E+06</totfact>
</mgrwt>
</event>
<event>
 5    1  0.1696945E+000  0.8099531E+02  0.7546771E-02  0.1326250E+00
         21   -1    0    0  501  502  0.00000000000E+00  0.00000000000E+00  0.33334311019E+02  0.33334311019E+02  0.00000000000E+00 0. -1.
         21   -1    0    0  502  503 -0.00000000000E+00 -0.00000000000E+00 -0.98450388108E+03  0.98450388108E+03  0.00000000000E+00 0. -1.
         24    1    1    2    0    0 -0.28933362140E+02  0.16920032982E+02 -0.68340301068E+03  0.68893418983E+03  0.80419002446E+02 0. -1.
          1    1    1    2  501    0 -0.21252951493E+02 -0.12082520842E+02  0.23139094429E+02  0.33661446019E+02  0.00000000000E+00 0. -1.
         -2    1    1    2    0  503  0.50186313633E+02 -0.48375121400E+01 -0.29090565381E+03  0.29524255625E+03  0.00000000000E+00 0.  1.
<mgrwt>
<rscale>  2 0.80995307E+02</rscale>
<asrwt>0</asrwt>
<pdfrwt beam="1">  1       21 0.51283562E-02 0.80995307E+02</pdfrwt>
<pdfrwt beam="2">  1       21 0.15146212E+00 0.80995307E+02</pdfrwt>
<totfact> 0.80432472E+04</totfact>
</mgrwt>
</event>
<event>
 5    1  0.1696945E+000  0.8534881E+02  0.7546771E-02  0.1314523E+00
         21   -1    0    0  501  502  0.00000000000E+00  0.00000000000E+00  0.23377667239E+03  0.23377667239E+03  0.00000000000E+00 0.  1.
         21   -1    0    0  502  503 -0.00000000000E+00 -0.00000000000E+00 -0.31579483464E+02  0.31579483464E+02  0.00000000000E+00 0.  1.
         24    1    1    2    0    0  0.14151908776E+02 -0.44239209070E+02  0.12034625249E+03  0.15201256719E+03  0.80419002446E+02 0.  1.
          1    1    1    2  501    0 -0.36494503680E+02  0.11635833505E+02  0.47144349984E+02  0.60743980406E+02  0.00000000000E+00 0. -1.
         -2    1    1    2    0  503  0.22342594904E+02  0.32603375566E+02  0.34706586444E+02  0.52599608249E+02  0.00000000000E+00 0.  1.
<mgrwt>
<rscale>  2 0.85348815E+02</rscale>
<asrwt>0</asrwt>
<pdfrwt beam="1">  1       21 0.35965641E-01 0.85348815E+02</pdfrwt>
<pdfrwt beam="2">  1       21 0.48583822E-02 0.85348815E+02</pdfrwt>
<totfact> 0.20656250E+06</totfact>
</mgrwt>
</event>
<event>
 5    1  0.1696945E+000  0.6877928E+02  0.7546771E-02  0.1364294E+00
         21   -1    0    0  501  502  0.00000000000E+00  0.00000000000E+00  0.12564613653E+03  0.12564613653E+03  0.00000000000E+00 0. -1.
         21   -1    0    0  502  503 -0.00000000000E+00 -0.00000000000E+00 -0.88666184100E+02  0.88666184100E+02  0.00000000000E+00 0.  1.
         24    1    1    2    0    0 -0.13108634098E+01 -0.15609807087E+02  0.97455189758E+02  0.12731894755E+03  0.80419002446E+02 0. -1.
          1    1    1    2  501    0  0.27342648350E+02  0.72619107985E+01 -0.10779364448E+02  0.30274584475E+02  0.00000000000E+00 0. -1.
         -2    1    1    2    0  503 -0.26031784940E+02  0.83478962890E+01 -0.49695872880E+02  0.56718788606E+02  0.00000000000E+00 0.  1.
<mgrwt>
<rscale>  2 0.68779281E+02</rscale>
<asrwt>0</asrwt>
<pdfrwt beam="1">  1       21 0.19330175E-01 0.68779281E+02</pdfrwt>
<pdfrwt beam="2">  1       21 0.13640951E-01 0.68779281E+02</pdfrwt>
<totfact> 0.11299315E+06</totfact>
</mgrwt>
</event>
<event>
 5    1  0.1696945E+000  0.1095373E+03  0.7546771E-02  0.1261429E+00
         21   -1    0    0  501  502  0.00000000000E+00  0.00000000000E+00  0.19093635742E+03  0.19093635742E+03  0.00000000000E+00 0.  1.
         21   -1    0    0  502  503 -0.00000000000E+00 -0.00000000000E+00 -0.16446224283E+03  0.16446224283E+03  0.00000000000E+00 0.  1.
         24    1    1    2    0    0 -0.29826006013E+02 -0.89761191082E+02  0.12902329929E+03  0.17905554941E+03  0.80419002446E+02 0.  1.
          1    1    1    2  501    0  0.10475370001E+02  0.20681825666E+02  0.22417363960E+02  0.32249178229E+02  0.00000000000E+00 0. -1.
         -2    1    1    2    0  503  0.19350636012E+02  0.69079365416E+02 -0.12496654866E+03  0.14409387261E+03  0.00000000000E+00 0.  1.
<mgrwt>
<rscale>  2 0.10953726E+03</rscale>
<asrwt>0</asrwt>
<pdfrwt beam="1">  1       21 0.29374824E-01 0.10953726E+03</pdfrwt>
<pdfrwt beam="2">  1       21 0.25301883E-01 0.10953726E+03</pdfrwt>
<totfact> 0.16855992E+05</totfact>
</mgrwt>
</event>
<event>
 5    1  0.1696945E+000  0.8539716E+02  0.7546771E-02  0.1314397E+00
         21   -1    0    0  503  502  0.00000000000E+00  0.00000000000E+00  0.99972581437E+03  0.99972581437E+03  0.00000000000E+00 0.  1.
         21   -1    0    0  501  503 -0.00000000000E+00 -0.00000000000E+00 -0.31505945805E+02  0.31505945805E+02  0.00000000000E+00 0.  1.
         24    1    1    2    0    0 -0.40899500553E+02 -0.19127292788E+02  0.11253911392E+03  0.14550220133E+03  0.80419002446E+02 0.  1.
          1    1    1    2  501    0 -0.16674091580E+02  0.12023557751E+02 -0.65302168488E+01  0.21569306968E+02  0.00000000000E+00 0. -1.
         -2    1    1    2    0  502  0.57573592133E+02  0.71037350368E+01  0.86221097150E+03  0.86416025188E+03  0.00000000000E+00 0.  1.
<mgrwt>
<rscale>  2 0.85397156E+02</rscale>
<asrwt>0</asrwt>
<pdfrwt beam="1">  1       21 0.15380395E+00 0.85397156E+02</pdfrwt>
<pdfrwt beam="2">  1       21 0.48470693E-02 0.85397156E+02</pdfrwt>
<totfact> 0.84625399E+04</totfact>
</mgrwt>
</event>
<event>
 5    1  0.1696945E+000  0.7665085E+02  0.7546771E-02  0.1338834E+00
         21   -1    0    0  503  502  0.00000000000E+00  0.00000000000E+00  0.45373247936E+03  0.45373247936E+03  0.00000000000E+00 0.  1.
         21   -1    0    0  501  503 -0.00000000000E+00 -0.00000000000E+00 -0.20569098747E+02  0.20569098747E+02  0.00000000000E+00 0.  1.
         24    1    1    2    0    0 -0.18814843467E+02 -0.57974279102E+01  0.31253769154E+03  0.32331816078E+03  0.80419002446E+02 0.  1.
          1    1    1    2  501    0  0.12968562141E+02 -0.30814390707E+02  0.10901610367E+02  0.35164689494E+02  0.00000000000E+00 0. -1.
         -2    1    1    2    0  502  0.58462813261E+01  0.36611818617E+02  0.10972407871E+03  0.11581872783E+03  0.00000000000E+00 0.  1.
<mgrwt>
<rscale>  2 0.76650849E+02</rscale>
<asrwt>0</asrwt>
<pdfrwt beam="1">  1       21 0.69804989E-01 0.76650849E+02</pdfrwt>
<pdfrwt beam="2">  1       21 0.31644771E-02 0.76650849E+02</pdfrwt>
<totfact> 0.10756696E+06</totfact>
</mgrwt>
</event>
<event>
 5    1  0.1696945E+000  0.8444533E+02  0.7546771E-02  0.1316889E+00
         21   -1    0    0  501  502  0.00000000000E+00  0.00000000000E+00  0.16396286007E+03  0.16396286007E+03  0.00000000000E+00 0. -1.
         21   -1    0    0  502  503 -0.00000000000E+00 -0.00000000000E+00 -0.85593521065E+02  0.85593521065E+02  0.00000000000E+00 0.  1.
         24    1    1    2    0    0 -0.37225190161E+02 -0.13790871045E+02  0.10650689864E+03  0.13923662707E+03  0.80419002446E+02 0.  0.
          1    1    1    2  501    0  0.17349667843E+02 -0.27994995254E+02  0.23893797202E+02  0.40689608972E+02  0.00000000000E+00 0. -1.
         -2    1    1    2    0  503  0.19875522318E+02  0.41785866299E+02 -0.52031356842E+02  0.69630145085E+02  0.00000000000E+00 0.  1.
<mgrwt>
<rscale>  2 0.84445328E+02</rscale>
<asrwt>0</asrwt>
<pdfrwt beam="1">  1       21 0.25225055E-01 0.84445328E+02</pdfrwt>
<pdfrwt beam="2">  1       21 0.13168234E-01 0.84445328E+02</pdfrwt>
<totfact> 0.74041784E+05</totfact>
</mgrwt>
</event>
<event>
 5    1  0.1696945E+000  0.8702975E+02  0.7546771E-02  0.1310208E+00
         21   -1    0    0  501  502  0.00000000000E+00  0.00000000000E+00  0.12752959260E+03  0.12752959260E+03  0.00000000000E+00 0. -1.
         21   -1    0    0  502  503 -0.00000000000E+00 -0.00000000000E+00 -0.13066677802E+03  0.13066677802E+03  0.00000000000E+00 0. -1.
         24    1    1    2    0    0 -0.23840346940E+02 -0.40407520595E+02 -0.77712330023E+02  0.12127469668E+03  0.80419002446E+02 0. -1.
          1    1    1    2  501    0  0.36520258632E+02 -0.21162786754E+01  0.83944735057E+02  0.91569244126E+02  0.00000000000E+00 0. -1.
         -2    1    1    2    0  503 -0.12679911693E+02  0.42523799270E+02 -0.93695904577E+01  0.45352429817E+02  0.00000000000E+00 0.  1.
<mgrwt>
<rscale>  2 0.87029748E+02</rscale>
<asrwt>0</asrwt>
<pdfrwt beam="1">  1       21 0.19619937E-01 0.87029748E+02</pdfrwt>
<pdfrwt beam="2">  1       21 0.20102581E-01 0.87029748E+02</pdfrwt>
<totfact> 0.55122145E+05</totfact>
</mgrwt>
</event>
<event>
 5    1  0.1696945E+000  0.6542213E+02  0.7546771E-02  0.1376391E+00
         21   -1    0    0  501  502  0.00000000000E+00  0.00000000000E+00  0.10481172903E+04  0.10481172903E+04  0.00000000000E+00 0. -1.
         21   -1    0    0  502  503 -0.00000000000E+00 -0.00000000000E+00 -0.15349381046E+02  0.15349381046E+02  0.00000000000E+00 0. -1.
         24    1    1    2    0    0 -0.18195068722E+01  0.25098126413E+02  0.30638975960E+03  0.31776583720E+03  0.80419002446E+02 0. -1.
          1    1    1    2  501    0 -0.18710261251E+02 -0.12033850382E+02  0.72026789387E+03  0.72061135598E+03  0.00000000000E+00 0. -1.
         -2    1    1    2    0  503  0.20529768124E+02 -0.13064276031E+02  0.61102557605E+01  0.25089478131E+02  0.00000000000E+00 0.  1.
<mgrwt>
<rscale>  2 0.65422127E+02</rscale>
<asrwt>0</asrwt>
<pdfrwt beam="1">  1       21 0.16124876E+00 0.65422127E+02</pdfrwt>
<pdfrwt beam="2">  1       21 0.23614441E-02 0.65422127E+02</pdfrwt>
<totfact> 0.24490163E+05</totfact>
</mgrwt>
</event>
<event>
 5    1  0.1696945E+000  0.7271636E+02  0.7546771E-02  0.1351092E+00
         21   -1    0    0  501  502  0.00000000000E+00  0.00000000000E+00  0.16210636781E+02  0.16210636781E+02  0.00000000000E+00 0.  1.
         21   -1    0    0  502  503 -0.00000000000E+00 -0.00000000000E+00 -0.69766487107E+03  0.69766487107E+03  0.00000000000E+00 0.  1.
         24    1    1    2    0    0  0.15288686576E+02  0.30691529748E+01 -0.20252223990E+03  0.21846198123E+03  0.80419002446E+02 0.  0.
          1    1    1    2  501    0 -0.36241137059E+02 -0.15206076481E+02 -0.40935433463E+02  0.56748167284E+02  0.00000000000E+00 0. -1.
         -2    1    1    2    0  503  0.20952450484E+02  0.12136923506E+02 -0.43799656093E+03  0.43866535934E+03  0.00000000000E+00 0.  1.
<mgrwt>
<rscale>  2 0.72716358E+02</rscale>
<asrwt>0</asrwt>
<pdfrwt beam="1">  1       21 0.24939440E-02 0.72716358E+02</pdfrwt>
<pdfrwt beam="2">  1       21 0.10733306E+00 0.72716358E+02</pdfrwt>
<totfact> 0.60415155E+05</totfact>
</mgrwt>
</event>
<event>
 5    1  0.1696945E+000  0.7487864E+02  0.7546771E-02  0.1344247E+00
         21   -1    0    0  501  502  0.00000000000E+00  0.00000000000E+00  0.39569176422E+03  0.39569176422E+03  0.00000000000E+00 0.  1.
         21   -1    0    0  502  503 -0.00000000000E+00 -0.00000000000E+00 -0.23407589953E+02  0.23407589953E+02  0.00000000000E+00 0.  1.
         24    1    1    2    0    0  0.36901770974E+02 -0.37627401941E+02  0.24468960744E+03  0.26290260938E+03  0.80419002446E+02 0.  1.
          1    1    1    2  501    0 -0.21297663023E+02  0.14716647680E+02  0.12578123234E+03  0.12841763344E+03  0.00000000000E+00 0. -1.
         -2    1    1    2    0  503 -0.15604107951E+02  0.22910754262E+02  0.18133344961E+01  0.27779111357E+02  0.00000000000E+00 0.  1.
<mgrwt>
<rscale>  2 0.74878639E+02</rscale>
<asrwt>0</asrwt>
<pdfrwt beam="1">  1       21 0.60875651E-01 0.74878639E+02</pdfrwt>
<pdfrwt beam="2">  1       21 0.36011680E-02 0.74878639E+02</pdfrwt>
<totfact> 0.11644489E+06</totfact>
</mgrwt>
</event>
<event>
 5    1  0.1696945E+000  0.1576059E+03  0.7546771E-02  0.1191427E+00
         21   -1    0    0  503  502  0.00000000000E+00  0.00000000000E+00  0.44063773356E+03  0.44063773356E+03  0.00000000000E+00 0.  1.
         21   -1    0    0  501  503 -0.00000000000E+00 -0.00000000000E+00 -0.86755649385E+02  0.86755649385E+02  0.00000000000E+00 0.  1.
         24    1    1    2    0    0  0.57400627338E+02 -0.81764745148E+02  0.23838770547E+03  0.27069580647E+03  0.80419002446E+02 0.  1.
          1    1    1    2  501    0 -0.81228266282E+02 -0.18999471066E+02 -0.20373312662E+02  0.85872481114E+02  0.00000000000E+00 0. -1.
         -2    1    1    2    0  502  0.23827638944E+02  0.10076421621E+03  0.13586769137E+03  0.17082509536E+03  0.00000000000E+00 0.  1.
<mgrwt>
<rscale>  2 0.15760586E+03</rscale>
<asrwt>0</asrwt>
<pdfrwt beam="1">  1       21 0.67790419E-01 0.15760586E+03</pdfrwt>
<pdfrwt beam="2">  1       21 0.13347023E-01 0.15760586E+03</pdfrwt>
<totfact> 0.97759074E+04</totfact>
</mgrwt>
</event>
<event>
 5    1  0.1696945E+000  0.8990338E+02  0.7546771E-02  0.1303086E+00
         21   -1    0    0  503  502  0.00000000000E+00  0.00000000000E+00  0.45768188628E+02  0.45768188628E+02  0.00000000000E+00 0. -1.
         21   -1    0    0  501  503 -0.00000000000E+00 -0.00000000000E+00 -0.22609517558E+03  0.22609517558E+03  0.00000000000E+00 0. -1.
         24    1    1    2    0    0  0.69284233131E+02  0.19460805638E+01 -0.12426311972E+03  0.16343999225E+03  0.80419002446E+02 0. -1.
          1    1    1    2  501    0 -0.51433078941E+02 -0.12463002543E+02 -0.66691537080E+02  0.85137824495E+02  0.00000000000E+00 0. -1.
         -2    1    1    2    0  502 -0.17851154191E+02  0.10516921979E+02  0.10627669854E+02  0.23285547457E+02  0.00000000000E+00 0.  1.
<mgrwt>
<rscale>  2 0.89903380E+02</rscale>
<asrwt>0</asrwt>
<pdfrwt beam="1">  1       21 0.70412597E-02 0.89903380E+02</pdfrwt>
<pdfrwt beam="2">  1       21 0.34783874E-01 0.89903380E+02</pdfrwt>
<totfact> 0.11852434E+06</totfact>
</mgrwt>
</event>
<event>
 5    1  0.1696945E+000  0.1225661E+03  0.7546771E-02  0.1238923E+00
         21   -1    0    0  501  502  0.00000000000E+00  0.00000000000E+00  0.16342219628E+03  0.16342219628E+03  0.00000000000E+00 0. -1.
         21   -1    0    0  502  503 -0.00000000000E+00 -0.00000000000E+00 -0.25443699535E+03  0.25443699535E+03  0.00000000000E+00 0.  1.
         24    1    1    2    0    0  0.74438346066E+02  0.39769229300E+02 -0.25738610960E+02  0.11938321077E+03  0.80419002446E+02 0.  1.
          1    1    1    2  501    0  0.22547777476E+02  0.26434436683E+01  0.99814434622E+02  0.10236362353E+03  0.00000000000E+00 0. -1.
         -2    1    1    2    0  503 -0.96986123541E+02 -0.42412672968E+02 -0.16509062273E+03  0.19611235734E+03  0.00000000000E+00 0.  1.
<mgrwt>
<rscale>  2 0.12256609E+03</rscale>
<asrwt>0</asrwt>
<pdfrwt beam="1">  1       21 0.25141877E-01 0.12256609E+03</pdfrwt>
<pdfrwt beam="2">  1       21 0.39144153E-01 0.12256609E+03</pdfrwt>
<totfact> 0.96920546E+04</totfact>
</mgrwt>
</event>
<event>
 5    1  0.1696945E+000  0.1204943E+03  0.7546771E-02  0.1242284E+00
         21   -1    0    0  503  502  0.00000000000E+00  0.00000000000E+00  0.54044997043E+03  0.54044997043E+03  0.00000000000E+00 0.  1.
         21   -1    0    0  501  503 -0.00000000000E+00 -0.00000000000E+00 -0.74194916188E+02  0.74194916188E+02  0.00000000000E+00 0. -1.
         24    1    1    2    0    0 -0.10705964932E+03 -0.18009502027E+01  0.11055523904E+03  0.17365105461E+03  0.80419002446E+02 0. -1.
          1    1    1    2  501    0  0.82241124043E+02  0.10716484101E+01 -0.21572932152E+01  0.82276392897E+02  0.00000000000E+00 0. -1.
         -2    1    1    2    0  502  0.24818525273E+02  0.72930179264E+00  0.35785710842E+03  0.35871743912E+03  0.00000000000E+00 0.  1.
<mgrwt>
<rscale>  2 0.12049431E+03</rscale>
<asrwt>0</asrwt>
<pdfrwt beam="1">  1       21 0.83146147E-01 0.12049431E+03</pdfrwt>
<pdfrwt beam="2">  1       21 0.11414603E-01 0.12049431E+03</pdfrwt>
<totfact> 0.83478925E+04</totfact>
</mgrwt>
</event>
<event>
 5    1  0.1696945E+000  0.1162545E+03  0.7546771E-02  0.1249407E+00
         21   -1    0    0  501  502  0.00000000000E+00  0.00000000000E+00  0.52520654950E+02  0.52520654950E+02  0.00000000000E+00 0. -1.
         21   -1    0    0  502  503 -0.00000000000E+00 -0.00000000000E+00 -0.38890251628E+03  0.38890251628E+03  0.00000000000E+00 0.  1.
         24    1    1    2    0    0 -0.21387940296E+02 -0.71367799227E+02 -0.26705209358E+03  0.28867775009E+03  0.80419002446E+02 0.  1.
          1    1    1    2  501    0  0.40360779279E+02 -0.81131247178E+01  0.60047215114E+01  0.41603749556E+02  0.00000000000E+00 0. -1.
         -2    1    1    2    0  503 -0.18972838983E+02  0.79480923945E+02 -0.75334489257E+02  0.11114167158E+03  0.00000000000E+00 0.  1.
<mgrwt>
<rscale>  2 0.11625446E+03</rscale>
<asrwt>0</asrwt>
<pdfrwt beam="1">  1       21 0.80801008E-02 0.11625446E+03</pdfrwt>
<pdfrwt beam="2">  1       21 0.59831156E-01 0.11625446E+03</pdfrwt>
<totfact> 0.31248051E+05</totfact>
</mgrwt>
</event>
<event>
 5    1  0.1696945E+000  0.1340688E+03  0.7546771E-02  0.1221540E+00
         21   -1    0    0  501  502  0.00000000000E+00  0.00000000000E+00  0.12838302715E+03  0.12838302715E+03  0.00000000000E+00 0. -1.
         21   -1    0    0  502  503 -0.00000000000E+00 -0.00000000000E+00 -0.14722378377E+03  0.14722378377E+03  0.00000000000E+00 0. -1.
         24    1    1    2    0    0 -0.82018278386E+00  0.81930307076E+02 -0.26349007289E+02  0.11779106102E+03  0.80419002446E+02 0. -1.
          1    1    1    2  501    0 -0.62382058505E+02 -0.21762315555E+02  0.21413348199E+02  0.69452509550E+02  0.00000000000E+00 0. -1.
         -2    1    1    2    0  503  0.63202241289E+02 -0.60167991520E+02 -0.13905097534E+02  0.88363240349E+02  0.00000000000E+00 0.  1.
<mgrwt>
<rscale>  2 0.13406878E+03</rscale>
<asrwt>0</asrwt>
<pdfrwt beam="1">  1       21 0.19751235E-01 0.13406878E+03</pdfrwt>
<pdfrwt beam="2">  1       21 0.22649813E-01 0.13406878E+03</pdfrwt>
<totfact> 0.43556580E+05</totfact>
</mgrwt>
</event>
<event>
 5    1  0.1696945E+000  0.7894577E+02  0.7546771E-02  0.1332070E+00
         21   -1    0    0  503  502  0.00000000000E+00  0.00000000000E+00  0.40742045093E+03  0.40742045093E+03  0.00000000000E+00 0.  1.
         21   -1    0    0  501  503 -0.00000000000E+00 -0.00000000000E+00 -0.75811430697E+02  0.75811430697E+02  0.00000000000E+00 0. -1.
         24    1    1    2    0    0  0.38443293550E+02  0.26707511530E+02  0.37410710126E+02  0.10028935725E+03  0.80419002446E+02 0.  1.
          1    1    1    2  501    0 -0.11795615119E+02 -0.34998953373E+02 -0.35994776718E+02  0.51572155513E+02  0.00000000000E+00 0. -1.
         -2    1    1    2    0  502 -0.26647678431E+02  0.82914418435E+01  0.33019308683E+03  0.33137036887E+03  0.00000000000E+00 0.  1.
<mgrwt>
<rscale>  2 0.78945772E+02</rscale>
<asrwt>0</asrwt>
<pdfrwt beam="1">  1       21 0.62680068E-01 0.78945772E+02</pdfrwt>
<pdfrwt beam="2">  1       21 0.11663297E-01 0.78945772E+02</pdfrwt>
<totfact> 0.15161018E+05</totfact>
</mgrwt>
</event>
<event>
 5    1  0.1696945E+000  0.7996831E+02  0.7546771E-02  0.1329141E+00
         21   -1    0    0  501  502  0.00000000000E+00  0.00000000000E+00  0.51783862404E+03  0.51783862404E+03  0.00000000000E+00 0. -1.
         21   -1    0    0  502  503 -0.00000000000E+00 -0.00000000000E+00 -0.33283664672E+02  0.33283664672E+02  0.00000000000E+00 0.  1.
         24    1    1    2    0    0  0.10033048265E+02 -0.43101550833E+02  0.38916643257E+02  0.99700184646E+02  0.80419002446E+02 0.  1.
          1    1    1    2  501    0  0.12126566159E+02  0.44323218924E+02  0.36138511167E+03  0.36429493584E+03  0.00000000000E+00 0. -1.
         -2    1    1    2    0  503 -0.22159614424E+02 -0.12216680908E+01  0.84253204441E+02  0.87127168225E+02  0.00000000000E+00 0.  1.
<mgrwt>
<rscale>  2 0.79968307E+02</rscale>
<asrwt>0</asrwt>
<pdfrwt beam="1">  1       21 0.79667475E-01 0.79968307E+02</pdfrwt>
<pdfrwt beam="2">  1       21 0.51205642E-02 0.79968307E+02</pdfrwt>
<totfact> 0.36655808E+05</totfact>
</mgrwt>
</event>
<event>
 5    1  0.1696945E+000  0.6243725E+02  0.7546771E-02  0.1387879E+00
         21   -1    0    0  501  502  0.00000000000E+00  0.00000000000E+00  0.34097322431E+02  0.34097322431E+02  0.00000000000E+00 0. -1.
         21   -1    0    0  502  503 -0.00000000000E+00 -0.00000000000E+00 -0.19482909181E+03  0.19482909181E+03  0.00000000000E+00 0.  1.
         24    1    1    2    0    0  0.13396341471E+02 -0.13694181388E+02 -0.10451158868E+03  0.13325494622E+03  0.80419002446E+02 0.  0.
          1    1    1    2  501    0 -0.21676965121E+02 -0.45683124614E+01  0.11559651777E+02  0.24987713877E+02  0.00000000000E+00 0. -1.
         -2    1    1    2    0  503  0.82806236508E+01  0.18262493850E+02 -0.67779832470E+02  0.70683754140E+02  0.00000000000E+00 0.  1.
<mgrwt>
<rscale>  2 0.62437250E+02</rscale>
<asrwt>0</asrwt>
<pdfrwt beam="1">  1       21 0.52457418E-02 0.62437250E+02</pdfrwt>
<pdfrwt beam="2">  1       21 0.29973707E-01 0.62437250E+02</pdfrwt>
<totfact> 0.25407530E+06</totfact>
</mgrwt>
</event>
<event>
 5    1  0.1696945E+000  0.1407285E+03  0.7546771E-02  0.1212352E+00
         21   -1    0    0  503  502  0.00000000000E+00  0.00000000000E+00  0.65898250742E+03  0.65898250742E+03  0.00000000000E+00 0. -1.
         21   -1    0    0  501  503 -0.00000000000E+00 -0.00000000000E+00 -0.78478049011E+02  0.78478049011E+02  0.00000000000E+00 0. -1.
         24    1    1    2    0    0  0.21879282652E+02 -0.10137340366E+03  0.30815492413E+03  0.33493572996E+03  0.80419002446E+02 0. -1.
          1    1    1    2  501    0  0.34547849972E+02  0.84557798229E+02 -0.28720024160E+02  0.95751840540E+02  0.00000000000E+00 0. -1.
         -2    1    1    2    0  502 -0.56427132624E+02  0.16815605434E+02  0.30106955844E+03  0.30677298594E+03  0.00000000000E+00 0.  1.
<mgrwt>
<rscale>  2 0.14072853E+03</rscale>
<asrwt>0</asrwt>
<pdfrwt beam="1">  1       21 0.10138192E+00 0.14072853E+03</pdfrwt>
<pdfrwt beam="2">  1       21 0.12073546E-01 0.14072853E+03</pdfrwt>
<totfact> 0.47411868E+04</totfact>
</mgrwt>
</event>
<event>
 5    1  0.1696945E+000  0.6343166E+02  0.7546771E-02  0.1383970E+00
         21   -1    0    0  503  502  0.00000000000E+00  0.00000000000E+00  0.96919029337E+02  0.96919029337E+02  0.00000000000E+00 0. -1.
         21   -1    0    0  501  503 -0.00000000000E+00 -0.00000000000E+00 -0.77052012710E+02  0.77052012710E+02  0.00000000000E+00 0. -1.
         24    1    1    2    0    0  0.35939524378E+01 -0.30536268355E+00 -0.18746853970E+02  0.82653918411E+02  0.80419002446E+02 0.  1.
          1    1    1    2  501    0 -0.17134984010E+02 -0.17169023860E+02 -0.18218592670E+02  0.30336449631E+02  0.00000000000E+00 0. -1.
         -2    1    1    2    0  502  0.13541031572E+02  0.17474386544E+02  0.56832463267E+02  0.60980674005E+02  0.00000000000E+00 0.  1.
<mgrwt>
<rscale>  2 0.63431664E+02</rscale>
<asrwt>0</asrwt>
<pdfrwt beam="1">  1       21 0.14910620E-01 0.63431664E+02</pdfrwt>
<pdfrwt beam="2">  1       21 0.11854156E-01 0.63431664E+02</pdfrwt>
<totfact> 0.22880318E+06</totfact>
</mgrwt>
</event>
<event>
 5    1  0.1696945E+000  0.7193086E+02  0.7546771E-02  0.1353647E+00
         21   -1    0    0  501  502  0.00000000000E+00  0.00000000000E+00  0.88643932709E+01  0.88643932709E+01  0.00000000000E+00 0.  1.
         21   -1    0    0  502  503 -0.00000000000E+00 -0.00000000000E+00 -0.66280163382E+03  0.66280163382E+03  0.00000000000E+00 0. -1.
         24    1    1    2    0    0 -0.19718355698E+02 -0.26115645231E+02 -0.33025721733E+03  0.34147896865E+03  0.80419002446E+02 0.  1.
          1    1    1    2  501    0 -0.32273793577E+00  0.35082579416E+02 -0.11187721365E+03  0.11724931757E+03  0.00000000000E+00 0. -1.
         -2    1    1    2    0  503  0.20041093634E+02 -0.89669341859E+01 -0.21180280956E+03  0.21293774086E+03  0.00000000000E+00 0.  1.
<mgrwt>
<rscale>  2 0.71930856E+02</rscale>
<asrwt>0</asrwt>
<pdfrwt beam="1">  1       21 0.13637523E-02 0.71930856E+02</pdfrwt>
<pdfrwt beam="2">  1       21 0.10196952E+00 0.71930856E+02</pdfrwt>
<totfact> 0.17723907E+06</totfact>
</mgrwt>
</event>
<event>
 5    1  0.1696945E+000  0.1142242E+03  0.7546771E-02  0.1252941E+00
         21   -1    0    0  503  502  0.00000000000E+00  0.00000000000E+00  0.42788637882E+02  0.42788637882E+02  0.00000000000E+00 0.  1.
         21   -1    0    0  501  503 -0.00000000000E+00 -0.00000000000E+00 -0.56709278600E+03  0.56709278600E+03  0.00000000000E+00 0. -1.
         24    1    1    2    0    0 -0.21239647233E+02 -0.64626033146E+02 -0.74442768711E+02  0.12898290019E+03  0.80419002446E+02 0.  1.
          1    1    1    2  501    0 -0.11633759535E+01 -0.27896161545E+02 -0.31267107624E+03  0.31391519745E+03  0.00000000000E+00 0. -1.
         -2    1    1    2    0  502  0.22403023186E+02  0.92522194691E+02 -0.13719030317E+03  0.16698332624E+03  0.00000000000E+00 0.  1.
<mgrwt>
<rscale>  2 0.11422421E+03</rscale>
<asrwt>0</asrwt>
<pdfrwt beam="1">  1       21 0.65828674E-02 0.11422421E+03</pdfrwt>
<pdfrwt beam="2">  1       21 0.87245043E-01 0.11422421E+03</pdfrwt>
<totfact> 0.19453459E+05</totfact>
</mgrwt>
</event>
<event>
 5    1  0.1696945E+000  0.8642020E+02  0.7546771E-02  0.1311760E+00
         21   -1    0    0  503  502  0.00000000000E+00  0.00000000000E+00  0.27549785351E+03  0.27549785351E+03  0.00000000000E+00 0.  1.
         21   -1    0    0  501  503 -0.00000000000E+00 -0.00000000000E+00 -0.41135829812E+02  0.41135829812E+02  0.00000000000E+00 0.  1.
         24    1    1    2    0    0  0.34641338313E+02  0.40315187587E+02  0.10186122920E+03  0.14024358324E+03  0.80419002446E+02 0.  1.
          1    1    1    2  501    0 -0.17366995755E+02  0.12157550477E+02 -0.10085482678E+02  0.23476276025E+02  0.00000000000E+00 0. -1.
         -2    1    1    2    0  502 -0.17274342559E+02 -0.52472738064E+02  0.14258627718E+03  0.15291382406E+03  0.00000000000E+00 0.  1.
<mgrwt>
<rscale>  2 0.86420200E+02</rscale>
<asrwt>0</asrwt>
<pdfrwt beam="1">  1       21 0.42384284E-01 0.86420200E+02</pdfrwt>
<pdfrwt beam="2">  1       21 0.63285894E-02 0.86420200E+02</pdfrwt>
<totfact> 0.96140570E+05</totfact>
</mgrwt>
</event>
<event>
 5    1  0.1696945E+000  0.7452606E+02  0.7546771E-02  0.1345345E+00
         21   -1    0    0  503  502  0.00000000000E+00  0.00000000000E+00  0.59444902540E+01  0.59444902540E+01  0.00000000000E+00 0.  1.
         21   -1    0    0  501  503 -0.00000000000E+00 -0.00000000000E+00 -0.28631719979E+04  0.28631719979E+04  0.00000000000E+00 0. -1.
         24    1    1    2    0    0  0.67786231429E+01  0.11969136053E+02 -0.46383689932E+03  0.47095763618E+03  0.80419002446E+02 0.  1.
          1    1    1    2  501    0 -0.35764572156E+02 -0.14002551668E+02 -0.23006973871E+04  0.23010179580E+04  0.00000000000E+00 0. -1.
         -2    1    1    2    0  502  0.28985949013E+02  0.20334156156E+01 -0.92693221227E+02  0.97140893967E+02  0.00000000000E+00 0.  1.
<mgrwt>
<rscale>  2 0.74526064E+02</rscale>
<asrwt>0</asrwt>
<pdfrwt beam="1">  1       21 0.91453637E-03 0.74526064E+02</pdfrwt>
<pdfrwt beam="2">  1       21 0.44048829E+00 0.74526064E+02</pdfrwt>
<totfact> 0.26092800E+04</totfact>
</mgrwt>
</event>
<event>
 5    1  0.1696945E+000  0.6505950E+02  0.7546771E-02  0.1377748E+00
         21   -1    0    0  501  502  0.00000000000E+00  0.00000000000E+00  0.77355210374E+02  0.77355210374E+02  0.00000000000E+00 0. -1.
         21   -1    0    0  502  503 -0.00000000000E+00 -0.00000000000E+00 -0.18115481800E+03  0.18115481800E+03  0.00000000000E+00 0. -1.
         24    1    1    2    0    0  0.38463283834E+01  0.10502559955E+02 -0.11706260917E+03  0.14246391974E+03  0.80419002446E+02 0. -1.
          1    1    1    2  501    0  0.12451431683E+02 -0.24473954031E+02  0.59245488930E+02  0.65299621251E+02  0.00000000000E+00 0. -1.
         -2    1    1    2    0  503 -0.16297760067E+02  0.13971394076E+02 -0.45982487384E+02  0.50746487382E+02  0.00000000000E+00 0.  1.
<mgrwt>
<rscale>  2 0.65059500E+02</rscale>
<asrwt>0</asrwt>
<pdfrwt beam="1">  1       21 0.11900802E-01 0.65059500E+02</pdfrwt>
<pdfrwt beam="2">  1       21 0.27869972E-01 0.65059500E+02</pdfrwt>
<totfact> 0.73016298E+05</totfact>
</mgrwt>
</event>
<event>
 5    1  0.1696945E+000  0.8199570E+02  0.7546771E-02  0.1323481E+00
         21   -1    0    0  503  502  0.00000000000E+00  0.00000000000E+00  0.49688698000E+03  0.49688698000E+03  0.00000000000E+00 0.  1.
         21   -1    0    0  501  503 -0.00000000000E+00 -0.00000000000E+00 -0.28618824790E+02  0.28618824790E+02  0.00000000000E+00 0.  1.
         24    1    1    2    0    0 -0.88792325580E+01  0.36527156218E+02  0.17463639472E+03  0.19590344619E+03  0.80419002446E+02 0.  0.
          1    1    1    2  501    0 -0.12340125865E+02 -0.49051955118E+02  0.19254973246E+02  0.54121409830E+02  0.00000000000E+00 0. -1.
         -2    1    1    2    0  502  0.21219358423E+02  0.12524798900E+02  0.27437678725E+03  0.27548094878E+03  0.00000000000E+00 0.  1.
<mgrwt>
<rscale>  2 0.81995701E+02</rscale>
<asrwt>0</asrwt>
<pdfrwt beam="1">  1       21 0.76444144E-01 0.81995701E+02</pdfrwt>
<pdfrwt beam="2">  1       21 0.44028965E-02 0.81995701E+02</pdfrwt>
<totfact> 0.51513898E+05</totfact>
</mgrwt>
</event>
<event>
 5    1  0.1696945E+000  0.6732964E+02  0.7546771E-02  0.1369417E+00
         21   -1    0    0  501  502  0.00000000000E+00  0.00000000000E+00  0.61502390886E+03  0.61502390886E+03  0.00000000000E+00 0. -1.
         21   -1    0    0  502  503 -0.00000000000E+00 -0.00000000000E+00 -0.10688517577E+02  0.10688517577E+02  0.00000000000E+00 0.  1.
         24    1    1    2    0    0 -0.20014245993E+02 -0.38896674784E+01  0.25007706524E+03  0.26347951356E+03  0.80419002446E+02 0.  0.
          1    1    1    2  501    0  0.64503894827E+00 -0.20522780187E+02  0.29091716149E+03  0.29164086722E+03  0.00000000000E+00 0. -1.
         -2    1    1    2    0  503  0.19369207045E+02  0.24412447665E+02  0.63341164551E+02  0.70592045651E+02  0.00000000000E+00 0.  1.
<mgrwt>
<rscale>  2 0.67329636E+02</rscale>
<asrwt>0</asrwt>
<pdfrwt beam="1">  1       21 0.94619036E-01 0.67329636E+02</pdfrwt>
<pdfrwt beam="2">  1       21 0.16443878E-02 0.67329636E+02</pdfrwt>
<totfact> 0.15631177E+06</totfact>
</mgrwt>
</event>
<event>
 5    1  0.1696945E+000  0.6820528E+02  0.7546771E-02  0.1366305E+00
         21   -1    0    0  501  502  0.00000000000E+00  0.00000000000E+00  0.44868128379E+03  0.44868128379E+03  0.00000000000E+00 0. -1.
         21   -1    0    0  502  503 -0.00000000000E+00 -0.00000000000E+00 -0.58932858748E+02  0.58932858748E+02  0.00000000000E+00 0.  1.
         24    1    1    2    0    0 -0.98797005097E+01  0.50892194030E+01  0.18540607022E+03  0.20240092753E+03  0.80419002446E+02 0.  1.
          1    1    1    2  501    0 -0.18909370965E+02 -0.15666989940E+02  0.24945560299E+03  0.25066135870E+03  0.00000000000E+00 0. -1.
         -2    1    1    2    0  503  0.28789071475E+02  0.10577770537E+02 -0.45113248169E+02  0.54551856304E+02  0.00000000000E+00 0.  1.
<mgrwt>
<rscale>  2 0.68205276E+02</rscale>
<asrwt>0</asrwt>
<pdfrwt beam="1">  1       21 0.69027888E-01 0.68205276E+02</pdfrwt>
<pdfrwt beam="2">  1       21 0.90665939E-02 0.68205276E+02</pdfrwt>
<totfact> 0.19165225E+05</totfact>
</mgrwt>
</event>
<event>
 5    1  0.1784510E+000  0.7409754E+02  0.7546771E-02  0.1346689E+00
         21   -1    0    0  503  502  0.00000000000E+00  0.00000000000E+00  0.64081595857E+03  0.64081595857E+03  0.00000000000E+00 0.  1.
         21   -1    0    0  501  503 -0.00000000000E+00 -0.00000000000E+00 -0.81108220119E+02  0.81108220119E+02  0.00000000000E+00 0. -1.
         24    1    1    2    0    0  0.39030151285E+02 -0.15591894310E+02  0.31211408761E+03  0.32503673564E+03  0.80419002446E+02 0. -1.
          1    1    1    2  501    0 -0.34807864987E+02 -0.61157245170E+01 -0.70057821464E+02  0.78467113491E+02  0.00000000000E+00 0. -1.
         -2    1    1    2    0  502 -0.42222862978E+01  0.21707618827E+02  0.31765147230E+03  0.31842032955E+03  0.00000000000E+00 0.  1.
<mgrwt>
<rscale>  2 0.74097545E+02</rscale>
<asrwt>0</asrwt>
<pdfrwt beam="1">  1       21 0.98587067E-01 0.74097545E+02</pdfrwt>
<pdfrwt beam="2">  1       21 0.12478188E-01 0.74097545E+02</pdfrwt>
<totfact> 0.50075457E+04</totfact>
</mgrwt>
</event>
<event>
 5    1  0.1696945E+000  0.7007783E+02  0.7546771E-02  0.1359829E+00
         21   -1    0    0  501  502  0.00000000000E+00  0.00000000000E+00  0.16018116646E+03  0.16018116646E+03  0.00000000000E+00 0.  1.
         21   -1    0    0  502  503 -0.00000000000E+00 -0.00000000000E+00 -0.37435669252E+02  0.37435669252E+02  0.00000000000E+00 0. -1.
         24    1    1    2    0    0 -0.60569685110E+00 -0.39258605924E+01  0.93541355279E+02  0.12342196057E+03  0.80419002446E+02 0.  1.
          1    1    1    2  501    0 -0.19000446166E+02  0.24641351904E+02  0.33074783330E+02  0.45410950997E+02  0.00000000000E+00 0. -1.
         -2    1    1    2    0  503  0.19606143017E+02 -0.20715491311E+02 -0.38706413976E+01  0.28783924144E+02  0.00000000000E+00 0.  1.
<mgrwt>
<rscale>  2 0.70077832E+02</rscale>
<asrwt>0</asrwt>
<pdfrwt beam="1">  1       21 0.24643256E-01 0.70077832E+02</pdfrwt>
<pdfrwt beam="2">  1       21 0.57593338E-02 0.70077832E+02</pdfrwt>
<totfact> 0.31608674E+06</totfact>
</mgrwt>
</event>
<event>
 5    1  0.1696945E+000  0.9863766E+02  0.7546771E-02  0.1283187E+00
         21   -1    0    0  503  502  0.00000000000E+00  0.00000000000E+00  0.23094459680E+02  0.23094459680E+02  0.00000000000E+00 0.  1.
         21   -1    0    0  501  503 -0.00000000000E+00 -0.00000000000E+00 -0.18094456770E+04  0.18094456770E+04  0.00000000000E+00 0. -1.
         24    1    1    2    0    0  0.95423752161E+01  0.51568387264E+02 -0.19465008787E+03  0.21703969257E+03  0.80419002446E+02 0.  1.
          1    1    1    2  501    0  0.38142906202E+02 -0.14260327126E+02 -0.15245138094E+04  0.15250575705E+04  0.00000000000E+00 0. -1.
         -2    1    1    2    0  502 -0.47685281418E+02 -0.37308060138E+02 -0.67187320062E+02  0.90442873640E+02  0.00000000000E+00 0.  1.
<mgrwt>
<rscale>  2 0.98637660E+02</rscale>
<asrwt>0</asrwt>
<pdfrwt beam="1">  1       21 0.35529915E-02 0.98637660E+02</pdfrwt>
<pdfrwt beam="2">  1       21 0.27837644E+00 0.98637660E+02</pdfrwt>
<totfact> 0.24304874E+04</totfact>
</mgrwt>
</event>
<event>
 5    1  0.1696945E+000  0.1115034E+03  0.7546771E-02  0.1257811E+00
         21   -1    0    0  503  502  0.00000000000E+00  0.00000000000E+00  0.11438246039E+03  0.11438246039E+03  0.00000000000E+00 0.  1.
         21   -1    0    0  501  503 -0.00000000000E+00 -0.00000000000E+00 -0.20752502123E+03  0.20752502123E+03  0.00000000000E+00 0.  1.
         24    1    1    2    0    0  0.35678924712E+02  0.26058885646E+02 -0.43747005892E+02  0.10165169781E+03  0.80419002446E+02 0.  1.
          1    1    1    2  501    0 -0.12979378390E+02 -0.75626454732E+02 -0.11293308384E+03  0.13653463423E+03  0.00000000000E+00 0. -1.
         -2    1    1    2    0  502 -0.22699546322E+02  0.49567569086E+02  0.63537528897E+02  0.83721149578E+02  0.00000000000E+00 0.  1.
<mgrwt>
<rscale>  2 0.11150337E+03</rscale>
<asrwt>0</asrwt>
<pdfrwt beam="1">  1       21 0.17597302E-01 0.11150337E+03</pdfrwt>
<pdfrwt beam="2">  1       21 0.31926926E-01 0.11150337E+03</pdfrwt>
<totfact> 0.28103922E+05</totfact>
</mgrwt>
</event>
<event>
 5    1  0.1696945E+000  0.9779249E+02  0.7546771E-02  0.1285008E+00
         21   -1    0    0  503  502  0.00000000000E+00  0.00000000000E+00  0.96272667369E+02  0.96272667369E+02  0.00000000000E+00 0.  1.
         21   -1    0    0  501  503 -0.00000000000E+00 -0.00000000000E+00 -0.45687085281E+03  0.45687085281E+03  0.00000000000E+00 0. -1.
         24    1    1    2    0    0 -0.54096114803E+02  0.38346666516E+02 -0.27265590679E+02  0.10773803813E+03  0.80419002446E+02 0. -1.
          1    1    1    2  501    0  0.61309323215E+02 -0.10019075132E+02 -0.38287506169E+03  0.38788210560E+03  0.00000000000E+00 0. -1.
         -2    1    1    2    0  502 -0.72132084124E+01 -0.28327591384E+02  0.49542466929E+02  0.57523376454E+02  0.00000000000E+00 0.  1.
<mgrwt>
<rscale>  2 0.97792490E+02</rscale>
<asrwt>0</asrwt>
<pdfrwt beam="1">  1       21 0.14811180E-01 0.97792490E+02</pdfrwt>
<pdfrwt beam="2">  1       21 0.70287823E-01 0.97792490E+02</pdfrwt>
<totfact> 0.77086505E+04</totfact>
</mgrwt>
</event>
<event>
 5    1  0.1696945E+000  0.8181270E+02  0.7546771E-02  0.1323985E+00
         21   -1    0    0  503  502  0.00000000000E+00  0.00000000000E+00  0.80645443271E+02  0.80645443271E+02  0.00000000000E+00 0.  1.
         21   -1    0    0  501  503 -0.00000000000E+00 -0.00000000000E+00 -0.69920039309E+03  0.69920039309E+03  0.00000000000E+00 0. -1.
         24    1    1    2    0    0  0.36141734483E+02 -0.42523316871E+02 -0.12277160852E+03  0.15701764634E+03  0.80419002446E+02 0. -1.
          1    1    1    2  501    0 -0.25692696985E+01  0.29684883079E+02 -0.55378844744E+03  0.55458943188E+03  0.00000000000E+00 0. -1.
         -2    1    1    2    0  502 -0.33572464784E+02  0.12838433792E+02  0.58005106145E+02  0.68238758142E+02  0.00000000000E+00 0.  1.
<mgrwt>
<rscale>  2 0.81812697E+02</rscale>
<asrwt>0</asrwt>
<pdfrwt beam="1">  1       21 0.12406992E-01 0.81812697E+02</pdfrwt>
<pdfrwt beam="2">  1       21 0.10756929E+00 0.81812697E+02</pdfrwt>
<totfact> 0.41020681E+04</totfact>
</mgrwt>
</event>
<event>
 5    1  0.1696945E+000  0.1840281E+03  0.7546771E-02  0.1163961E+00
         21   -1    0    0  503  502  0.00000000000E+00  0.00000000000E+00  0.41982786020E+03  0.41982786020E+03  0.00000000000E+00 0.  1.
         21   -1    0    0  501  503 -0.00000000000E+00 -0.00000000000E+00 -0.16184498915E+03  0.16184498915E+03  0.00000000000E+00 0.  1.
         24    1    1    2    0    0 -0.85028371647E+02 -0.13162644846E+03  0.26859308452E+03  0.32119278779E+03  0.80419002446E+02 0.  1.
          1    1    1    2  501    0 -0.27278691133E+02  0.28507265171E+02 -0.82849024666E+02  0.91764655754E+02  0.00000000000E+00 0. -1.
         -2    1    1    2    0  502  0.11230706278E+03  0.10311918329E+03  0.72238811198E+02  0.16871540581E+03  0.00000000000E+00 0.  1.
<mgrwt>
<rscale>  2 0.18402813E+03</rscale>
<asrwt>0</asrwt>
<pdfrwt beam="1">  1       21 0.64588901E-01 0.18402813E+03</pdfrwt>
<pdfrwt beam="2">  1       21 0.24899229E-01 0.18402813E+03</pdfrwt>
<totfact> 0.33883051E+04</totfact>
</mgrwt>
</event>
<event>
 5    1  0.1696945E+000  0.1087631E+03  0.7546771E-02  0.1262878E+00
         21   -1    0    0  503  502  0.00000000000E+00  0.00000000000E+00  0.22080881094E+04  0.22080881094E+04  0.00000000000E+00 0.  1.
         21   -1    0    0  501  503 -0.00000000000E+00 -0.00000000000E+00 -0.48815522492E+02  0.48815522492E+02  0.00000000000E+00 0. -1.
         24    1    1    2    0    0 -0.53386471964E+02  0.40584668690E+02  0.35753413597E+03  0.37255215079E+03  0.80419002446E+02 0. -1.
          1    1    1    2  501    0  0.78667723181E+02 -0.38110579250E+02  0.51299035408E+01  0.87563364665E+02  0.00000000000E+00 0. -1.
         -2    1    1    2    0  502 -0.25281251217E+02 -0.24740894404E+01  0.17966085474E+04  0.17967881165E+04  0.00000000000E+00 0.  1.
<mgrwt>
<rscale>  2 0.10876312E+03</rscale>
<asrwt>0</asrwt>
<pdfrwt beam="1">  1       21 0.33970579E+00 0.10876312E+03</pdfrwt>
<pdfrwt beam="2">  1       21 0.75100821E-02 0.10876312E+03</pdfrwt>
<totfact> 0.31017476E+03</totfact>
</mgrwt>
</event>
<event>
 5    1  0.1696945E+000  0.7279539E+02  0.7546771E-02  0.1350837E+00
         21   -1    0    0  503  502  0.00000000000E+00  0.00000000000E+00  0.12087089477E+03  0.12087089477E+03  0.00000000000E+00 0. -1.
         21   -1    0    0  501  503 -0.00000000000E+00 -0.00000000000E+00 -0.24484843413E+03  0.24484843413E+03  0.00000000000E+00 0. -1.
         24    1    1    2    0    0 -0.21980211123E+02 -0.45559468630E+02  0.38016623742E+02  0.10232924557E+03  0.80419002446E+02 0. -1.
          1    1    1    2  501    0  0.13012554544E+02  0.26624241111E+02 -0.20943900690E+03  0.21152511530E+03  0.00000000000E+00 0. -1.
         -2    1    1    2    0  502  0.89676565791E+01  0.18935227519E+02  0.47444843799E+02  0.51864968031E+02  0.00000000000E+00 0.  1.
<mgrwt>
<rscale>  2 0.72795390E+02</rscale>
<asrwt>0</asrwt>
<pdfrwt beam="1">  1       21 0.18595523E-01 0.72795390E+02</pdfrwt>
<pdfrwt beam="2">  1       21 0.37668989E-01 0.72795390E+02</pdfrwt>
<totfact> 0.18624347E+05</totfact>
</mgrwt>
</event>
<event>
 5    1  0.1696945E+000  0.7420926E+02  0.7546771E-02  0.1346337E+00
         21   -1    0    0  503  502  0.00000000000E+00  0.00000000000E+00  0.18271898803E+03  0.18271898803E+03  0.00000000000E+00 0.  1.
         21   -1    0    0  501  503 -0.00000000000E+00 -0.00000000000E+00 -0.42943964136E+02  0.42943964136E+02  0.00000000000E+00 0.  1.
         24    1    1    2    0    0 -0.18020042970E+02 -0.42218611909E+02  0.45751912923E+02  0.10328400956E+03  0.80419002446E+02 0.  1.
          1    1    1    2  501    0  0.20627988475E+02  0.90099812038E+01 -0.12649710103E+00  0.22510212601E+02  0.00000000000E+00 0. -1.
         -2    1    1    2    0  502 -0.26079455054E+01  0.33208630705E+02  0.94149608075E+02  0.99868730010E+02  0.00000000000E+00 0.  1.
<mgrwt>
<rscale>  2 0.74209258E+02</rscale>
<asrwt>0</asrwt>
<pdfrwt beam="1">  1       21 0.28110613E-01 0.74209258E+02</pdfrwt>
<pdfrwt beam="2">  1       21 0.66067638E-02 0.74209258E+02</pdfrwt>
<totfact> 0.19708299E+06</totfact>
</mgrwt>
</event>
<event>
 5    1  0.1696945E+000  0.7072041E+02  0.7546771E-02  0.1357660E+00
         21   -1    0    0  503  502  0.00000000000E+00  0.00000000000E+00  0.13092999851E+03  0.13092999851E+03  0.00000000000E+00 0. -1.
         21   -1    0    0  501  503 -0.00000000000E+00 -0.00000000000E+00 -0.84873297166E+02  0.84873297166E+02  0.00000000000E+00 0. -1.
         24    1    1    2    0    0 -0.21218044923E+02 -0.40608008804E+02  0.57268836292E+02  0.10884002653E+03  0.80419002446E+02 0. -1.
          1    1    1    2  501    0  0.28159051722E+01  0.23790444763E+02 -0.53079913798E+02  0.58235657743E+02  0.00000000000E+00 0. -1.
         -2    1    1    2    0  502  0.18402139751E+02  0.16817564041E+02  0.41867778850E+02  0.48727611408E+02  0.00000000000E+00 0.  1.
<mgrwt>
<rscale>  2 0.70720409E+02</rscale>
<asrwt>0</asrwt>
<pdfrwt beam="1">  1       21 0.20143077E-01 0.70720409E+02</pdfrwt>
<pdfrwt beam="2">  1       21 0.13057430E-01 0.70720409E+02</pdfrwt>
<totfact> 0.11332616E+06</totfact>
</mgrwt>
</event>
<event>
 5    1  0.1696945E+000  0.8026456E+02  0.7546771E-02  0.1328302E+00
         21   -1    0    0  503  502  0.00000000000E+00  0.00000000000E+00  0.60395820076E+03  0.60395820076E+03  0.00000000000E+00 0. -1.
         21   -1    0    0  501  503 -0.00000000000E+00 -0.00000000000E+00 -0.10944652234E+02  0.10944652234E+02  0.00000000000E+00 0. -1.
         24    1    1    2    0    0  0.30664550570E+02  0.48957492368E+02  0.38548438376E+03  0.39799821205E+03  0.80419002446E+02 0. -1.
          1    1    1    2  501    0 -0.54008730764E+01 -0.28491526295E+02  0.74124532879E+02  0.79595118413E+02  0.00000000000E+00 0. -1.
         -2    1    1    2    0  502 -0.25263677494E+02 -0.20465966073E+02  0.13340463189E+03  0.13730952253E+03  0.00000000000E+00 0.  1.
<mgrwt>
<rscale>  2 0.80264561E+02</rscale>
<asrwt>0</asrwt>
<pdfrwt beam="1">  1       21 0.92916620E-01 0.80264561E+02</pdfrwt>
<pdfrwt beam="2">  1       21 0.16837931E-02 0.80264561E+02</pdfrwt>
<totfact> 0.15765770E+06</totfact>
</mgrwt>
</event>
<event>
 5    1  0.1696945E+000  0.9202115E+02  0.7546771E-02  0.1298030E+00
         21   -1    0    0  503  502  0.00000000000E+00  0.00000000000E+00  0.55054890859E+03  0.55054890859E+03  0.00000000000E+00 0.  1.
         21   -1    0    0  501  503 -0.00000000000E+00 -0.00000000000E+00 -0.38542578304E+02  0.38542578304E+02  0.00000000000E+00 0. -1.
         24    1    1    2    0    0 -0.32359896228E+02  0.13845015354E+02  0.23929700931E+03  0.25489041166E+03  0.80419002446E+02 0.  0.
          1    1    1    2  501    0  0.72660825606E+01 -0.50949371611E+02 -0.60921519482E+01  0.51824209966E+02  0.00000000000E+00 0. -1.
         -2    1    1    2    0  502  0.25093813668E+02  0.37104356257E+02  0.27880147292E+03  0.28237686527E+03  0.00000000000E+00 0.  1.
<mgrwt>
<rscale>  2 0.92021147E+02</rscale>
<asrwt>0</asrwt>
<pdfrwt beam="1">  1       21 0.84699826E-01 0.92021147E+02</pdfrwt>
<pdfrwt beam="2">  1       21 0.59296278E-02 0.92021147E+02</pdfrwt>
<totfact> 0.24982370E+05</totfact>
</mgrwt>
</event>
<event>
 5    1  0.1696945E+000  0.6278159E+02  0.7546771E-02  0.1386516E+00
         21   -1    0    0  503  502  0.00000000000E+00  0.00000000000E+00  0.41597737910E+02  0.41597737910E+02  0.00000000000E+00 0.  1.
         21   -1    0    0  501  503 -0.00000000000E+00 -0.00000000000E+00 -0.14084851625E+03  0.14084851625E+03  0.00000000000E+00 0. -1.
         24    1    1    2    0    0  0.22615616272E+01 -0.10800223487E+00 -0.42447340568E+02  0.90962184457E+02  0.80419002446E+02 0. -1.
          1    1    1    2  501    0 -0.23483272332E+02  0.30766691700E+01 -0.64503590552E+02  0.68714213717E+02  0.00000000000E+00 0. -1.
         -2    1    1    2    0  502  0.21221710705E+02 -0.29686669351E+01  0.77001527838E+01  0.22769855983E+02  0.00000000000E+00 0.  1.
<mgrwt>
<rscale>  2 0.62781587E+02</rscale>
<asrwt>0</asrwt>
<pdfrwt beam="1">  1       21 0.63996520E-02 0.62781587E+02</pdfrwt>
<pdfrwt beam="2">  1       21 0.21669003E-01 0.62781587E+02</pdfrwt>
<totfact> 0.33354649E+06</totfact>
</mgrwt>
</event>
<event>
 5    1  0.1696945E+000  0.7138169E+02  0.7546771E-02  0.1355457E+00
         21   -1    0    0  503  502  0.00000000000E+00  0.00000000000E+00  0.15881442695E+03  0.15881442695E+03  0.00000000000E+00 0.  1.
         21   -1    0    0  501  503 -0.00000000000E+00 -0.00000000000E+00 -0.32677947122E+03  0.32677947122E+03  0.00000000000E+00 0.  1.
         24    1    1    2    0    0  0.48059525740E+02 -0.39692517669E+01 -0.29100348441E+03  0.30573798728E+03  0.80419002446E+02 0.  1.
          1    1    1    2  501    0 -0.26628658025E+02 -0.21255700190E+01 -0.21077754132E+02  0.34027565229E+02  0.00000000000E+00 0. -1.
         -2    1    1    2    0  502 -0.21430867715E+02  0.60948217859E+01  0.14411619428E+03  0.14582834565E+03  0.00000000000E+00 0.  1.
<mgrwt>
<rscale>  2 0.71381691E+02</rscale>
<asrwt>0</asrwt>
<pdfrwt beam="1">  1       21 0.24432989E-01 0.71381691E+02</pdfrwt>
<pdfrwt beam="2">  1       21 0.50273765E-01 0.71381691E+02</pdfrwt>
<totfact> 0.63706731E+04</totfact>
</mgrwt>
</event>
<event>
 5    1  0.1696945E+000  0.8380075E+02  0.7546771E-02  0.1318599E+00
         21   -1    0    0  501  502  0.00000000000E+00  0.00000000000E+00  0.52606396074E+03  0.52606396074E+03  0.00000000000E+00 0. -1.
         21   -1    0    0  502  503 -0.00000000000E+00 -0.00000000000E+00 -0.26482409159E+02  0.26482409159E+02  0.00000000000E+00 0.  1.
         24    1    1    2    0    0  0.26441534745E+02 -0.49641570689E+02  0.30350529924E+03  0.31897668085E+03  0.80419002446E+02 0. -1.
          1    1    1    2  501    0 -0.46187858815E+00  0.42526819956E+02  0.20163029755E+03  0.20606678684E+03  0.00000000000E+00 0. -1.
         -2    1    1    2    0  503 -0.25979656157E+02  0.71147507335E+01 -0.55540452121E+01  0.27502902215E+02  0.00000000000E+00 0.  1.
<mgrwt>
<rscale>  2 0.83800749E+02</rscale>
<asrwt>0</asrwt>
<pdfrwt beam="1">  1       21 0.80932910E-01 0.83800749E+02</pdfrwt>
<pdfrwt beam="2">  1       21 0.40742172E-02 0.83800749E+02</pdfrwt>
<totfact> 0.51636987E+05</totfact>
</mgrwt>
</event>
<event>
 5    1  0.2231597E+000  0.6747796E+02  0.7546771E-02  0.1368886E+00
         21   -1    0    0  501  502  0.00000000000E+00  0.00000000000E+00  0.16785365609E+04  0.16785365609E+04  0.00000000000E+00 0.  1.
         21   -1    0    0  502  503 -0.00000000000E+00 -0.00000000000E+00 -0.45817840282E+02  0.45817840282E+02  0.00000000000E+00 0.  1.
         24    1    1    2    0    0 -0.28762796038E+01 -0.10996530088E+02  0.13328459861E+04  0.13353182524E+04  0.80419002446E+02 0.  1.
          1    1    1    2  501    0 -0.22293536256E+02 -0.63369864871E+01  0.33877416592E+03  0.33956603872E+03  0.00000000000E+00 0. -1.
         -2    1    1    2    0  503  0.25169815859E+02  0.17333516575E+02 -0.38901431369E+02  0.49470110064E+02  0.00000000000E+00 0.  1.
<mgrwt>
<rscale>  2 0.67477963E+02</rscale>
<asrwt>0</asrwt>
<pdfrwt beam="1">  1       21 0.25823635E+00 0.67477963E+02</pdfrwt>
<pdfrwt beam="2">  1       21 0.70488998E-02 0.67477963E+02</pdfrwt>
<totfact> 0.10721810E+04</totfact>
</mgrwt>
</event>
<event>
 5    1  0.1696945E+000  0.6552252E+02  0.7546771E-02  0.1376017E+00
         21   -1    0    0  503  502  0.00000000000E+00  0.00000000000E+00  0.72545228152E+03  0.72545228152E+03  0.00000000000E+00 0.  1.
         21   -1    0    0  501  503 -0.00000000000E+00 -0.00000000000E+00 -0.52413128562E+02  0.52413128562E+02  0.00000000000E+00 0. -1.
         24    1    1    2    0    0  0.83202672220E+00  0.21377353146E+02  0.27391324730E+03  0.28627498406E+03  0.80419002446E+02 0. -1.
          1    1    1    2  501    0  0.20873367380E+02 -0.12831359279E+02 -0.42656455975E+02  0.49192626308E+02  0.00000000000E+00 0. -1.
         -2    1    1    2    0  502 -0.21705394102E+02 -0.85459938670E+01  0.44178236163E+03  0.44239779971E+03  0.00000000000E+00 0.  1.
<mgrwt>
<rscale>  2 0.65522520E+02</rscale>
<asrwt>0</asrwt>
<pdfrwt beam="1">  1       21 0.11160804E+00 0.65522520E+02</pdfrwt>
<pdfrwt beam="2">  1       21 0.80635588E-02 0.65522520E+02</pdfrwt>
<totfact> 0.80246271E+04</totfact>
</mgrwt>
</event>
<event>
 5    1  0.1696945E+000  0.1072853E+03  0.7546771E-02  0.1265681E+00
         21   -1    0    0  501  502  0.00000000000E+00  0.00000000000E+00  0.22606959948E+03  0.22606959948E+03  0.00000000000E+00 0. -1.
         21   -1    0    0  502  503 -0.00000000000E+00 -0.00000000000E+00 -0.56657896655E+02  0.56657896655E+02  0.00000000000E+00 0.  1.
         24    1    1    2    0    0 -0.13648186934E+02  0.40159050459E+02  0.10551082364E+03  0.13927947515E+03  0.80419002446E+02 0. -1.
          1    1    1    2  501    0  0.24295029382E+02  0.37818928162E+02  0.42565459923E+02  0.61905881453E+02  0.00000000000E+00 0. -1.
         -2    1    1    2    0  503 -0.10646842448E+02 -0.77977978621E+02  0.21335419270E+02  0.81542139531E+02  0.00000000000E+00 0.  1.
<mgrwt>
<rscale>  2 0.10728526E+03</rscale>
<asrwt>0</asrwt>
<pdfrwt beam="1">  1       21 0.34779938E-01 0.10728526E+03</pdfrwt>
<pdfrwt beam="2">  1       21 0.87165996E-02 0.10728526E+03</pdfrwt>
<totfact> 0.82519969E+05</totfact>
</mgrwt>
</event>
<event>
 5    1  0.1696945E+000  0.7495987E+02  0.7546771E-02  0.1343995E+00
         21   -1    0    0  503  502  0.00000000000E+00  0.00000000000E+00  0.11322471480E+03  0.11322471480E+03  0.00000000000E+00 0.  1.
         21   -1    0    0  501  503 -0.00000000000E+00 -0.00000000000E+00 -0.99432480248E+03  0.99432480248E+03  0.00000000000E+00 0. -1.
         24    1    1    2    0    0  0.40060708414E+02 -0.23693695913E+02 -0.24207389075E+03  0.25929372558E+03  0.80419002446E+02 0.  0.
          1    1    1    2  501    0 -0.87827765754E+01  0.24175723795E+02 -0.74107443381E+03  0.74152068024E+03  0.00000000000E+00 0. -1.
         -2    1    1    2    0  502 -0.31277931838E+02 -0.48202788152E+00  0.10204823688E+03  0.10673511147E+03  0.00000000000E+00 0.  1.
<mgrwt>
<rscale>  2 0.74959870E+02</rscale>
<asrwt>0</asrwt>
<pdfrwt beam="1">  1       21 0.17419187E-01 0.74959870E+02</pdfrwt>
<pdfrwt beam="2">  1       21 0.15297305E+00 0.74959870E+02</pdfrwt>
<totfact> 0.96174483E+03</totfact>
</mgrwt>
</event>
<event>
 5    1  0.1696945E+000  0.7909463E+02  0.7546771E-02  0.1331641E+00
         21   -1    0    0  503  502  0.00000000000E+00  0.00000000000E+00  0.63904396810E+02  0.63904396810E+02  0.00000000000E+00 0.  1.
         21   -1    0    0  501  503 -0.00000000000E+00 -0.00000000000E+00 -0.12045627476E+03  0.12045627476E+03  0.00000000000E+00 0.  1.
         24    1    1    2    0    0 -0.43821149447E+02  0.16874411483E+02 -0.67612674086E+01  0.93370067972E+02  0.80419002446E+02 0.  1.
          1    1    1    2  501    0  0.16820164280E+02  0.15524293560E+02 -0.42384629403E+02  0.48170306482E+02  0.00000000000E+00 0. -1.
         -2    1    1    2    0  502  0.27000985168E+02 -0.32398705043E+02 -0.74059811379E+01  0.42820297116E+02  0.00000000000E+00 0.  1.
<mgrwt>
<rscale>  2 0.79094630E+02</rscale>
<asrwt>0</asrwt>
<pdfrwt beam="1">  1       21 0.98314457E-02 0.79094630E+02</pdfrwt>
<pdfrwt beam="2">  1       21 0.18531734E-01 0.79094630E+02</pdfrwt>
<totfact> 0.21687424E+06</totfact>
</mgrwt>
</event>
<event>
 5    1  0.1696945E+000  0.6708066E+02  0.7546771E-02  0.1370312E+00
         21   -1    0    0  503  502  0.00000000000E+00  0.00000000000E+00  0.27476766714E+02  0.27476766714E+02  0.00000000000E+00 0. -1.
         21   -1    0    0  501  503 -0.00000000000E+00 -0.00000000000E+00 -0.69509820875E+03  0.69509820875E+03  0.00000000000E+00 0. -1.
         24    1    1    2    0    0 -0.90423964550E+01 -0.42001472559E+02 -0.10622162934E+03  0.13998621048E+03  0.80419002446E+02 0. -1.
          1    1    1    2  501    0  0.52460076238E+01  0.21154732802E+02 -0.56097158735E+03  0.56139483889E+03  0.00000000000E+00 0. -1.
         -2    1    1    2    0  502  0.37963888312E+01  0.20846739757E+02 -0.42822535222E+00  0.21193926102E+02  0.00000000000E+00 0.  1.
<mgrwt>
<rscale>  2 0.67080658E+02</rscale>
<asrwt>0</asrwt>
<pdfrwt beam="1">  1       21 0.42271948E-02 0.67080658E+02</pdfrwt>
<pdfrwt beam="2">  1       21 0.10693819E+00 0.67080658E+02</pdfrwt>
<totfact> 0.25939314E+05</totfact>
</mgrwt>
</event>
<event>
 5    1  0.1696945E+000  0.9977654E+02  0.7546771E-02  0.1280767E+00
         21   -1    0    0  501  502  0.00000000000E+00  0.00000000000E+00  0.13846479616E+03  0.13846479616E+03  0.00000000000E+00 0.  1.
         21   -1    0    0  502  503 -0.00000000000E+00 -0.00000000000E+00 -0.97277908087E+02  0.97277908087E+02  0.00000000000E+00 0.  1.
         24    1    1    2    0    0 -0.20674203449E+02  0.69176615995E+02  0.76501243082E+02  0.13241028297E+03  0.80419002446E+02 0.  1.
          1    1    1    2  501    0 -0.17249381531E+02 -0.40224278549E+02  0.34325887839E+00  0.43768157086E+02  0.00000000000E+00 0. -1.
         -2    1    1    2    0  503  0.37923584981E+02 -0.28952337445E+02 -0.35657613883E+02  0.59564264196E+02  0.00000000000E+00 0.  1.
<mgrwt>
<rscale>  2 0.99776535E+02</rscale>
<asrwt>0</asrwt>
<pdfrwt beam="1">  1       21 0.21302276E-01 0.99776535E+02</pdfrwt>
<pdfrwt beam="2">  1       21 0.14965832E-01 0.99776535E+02</pdfrwt>
<totfact> 0.80898386E+05</totfact>
</mgrwt>
</event>
<event>
 5    1  0.1696945E+000  0.7408247E+02  0.7546771E-02  0.1346736E+00
         21   -1    0    0  503  502  0.00000000000E+00  0.00000000000E+00  0.20186147115E+03  0.20186147115E+03  0.00000000000E+00 0. -1.
         21   -1    0    0  501  503 -0.00000000000E+00 -0.00000000000E+00 -0.48540672672E+02  0.48540672672E+02  0.00000000000E+00 0. -1.
         24    1    1    2    0    0 -0.31042886749E+02  0.34101349169E+02  0.16842643304E+03  0.19225306794E+03  0.80419002446E+02 0. -1.
          1    1    1    2  501    0  0.32013698702E+02 -0.13345861483E+02 -0.13804086034E+02  0.37330171639E+02  0.00000000000E+00 0. -1.
         -2    1    1    2    0  502 -0.97081195360E+00 -0.20755487686E+02 -0.13015485337E+01  0.20818904234E+02  0.00000000000E+00 0.  1.
<mgrwt>
<rscale>  2 0.74082473E+02</rscale>
<asrwt>0</asrwt>
<pdfrwt beam="1">  1       21 0.31055611E-01 0.74082473E+02</pdfrwt>
<pdfrwt beam="2">  1       21 0.74677959E-02 0.74082473E+02</pdfrwt>
<totfact> 0.13271462E+06</totfact>
</mgrwt>
</event>
<event>
 5    1  0.1696945E+000  0.9257712E+02  0.7546771E-02  0.1296728E+00
         21   -1    0    0  501  502  0.00000000000E+00  0.00000000000E+00  0.89359583282E+02  0.89359583282E+02  0.00000000000E+00 0. -1.
         21   -1    0    0  502  503 -0.00000000000E+00 -0.00000000000E+00 -0.17580105471E+03  0.17580105471E+03  0.00000000000E+00 0.  1.
         24    1    1    2    0    0 -0.22945369495E+02  0.71433946287E+02 -0.38525672896E+02  0.11653644104E+03  0.80419002446E+02 0.  1.
          1    1    1    2  501    0  0.80412536664E+01 -0.32524744076E+02  0.39494486385E+02  0.51791265601E+02  0.00000000000E+00 0. -1.
         -2    1    1    2    0  503  0.14904115829E+02 -0.38909202211E+02 -0.87410284921E+02  0.96832931358E+02  0.00000000000E+00 0.  1.
<mgrwt>
<rscale>  2 0.92577117E+02</rscale>
<asrwt>0</asrwt>
<pdfrwt beam="1">  1       21 0.13747628E-01 0.92577117E+02</pdfrwt>
<pdfrwt beam="2">  1       21 0.27046316E-01 0.92577117E+02</pdfrwt>
<totfact> 0.60240813E+05</totfact>
</mgrwt>
</event>
<event>
 5    1  0.1696945E+000  0.1358502E+03  0.7546771E-02  0.1219024E+00
         21   -1    0    0  503  502  0.00000000000E+00  0.00000000000E+00  0.76206541559E+03  0.76206541559E+03  0.00000000000E+00 0.  1.
         21   -1    0    0  501  503 -0.00000000000E+00 -0.00000000000E+00 -0.54849698326E+02  0.54849698326E+02  0.00000000000E+00 0. -1.
         24    1    1    2    0    0 -0.38956759655E+02 -0.33113976572E+02  0.13079350392E+03  0.16182806057E+03  0.80419002446E+02 0.  1.
          1    1    1    2  501    0 -0.62972949272E+02 -0.13368100130E+02 -0.34729886629E+01  0.64469838618E+02  0.00000000000E+00 0. -1.
         -2    1    1    2    0  502  0.10192970893E+03  0.46482076702E+02  0.57989520201E+03  0.59061721473E+03  0.00000000000E+00 0.  1.
<mgrwt>
<rscale>  2 0.13585020E+03</rscale>
<asrwt>0</asrwt>
<pdfrwt beam="1">  1       21 0.11724083E+00 0.13585020E+03</pdfrwt>
<pdfrwt beam="2">  1       21 0.84384157E-02 0.13585020E+03</pdfrwt>
<totfact> 0.62952986E+04</totfact>
</mgrwt>
</event>
<event>
 5    1  0.1696945E+000  0.7072625E+02  0.7546771E-02  0.1357641E+00
         21   -1    0    0  501  502  0.00000000000E+00  0.00000000000E+00  0.80121632496E+02  0.80121632496E+02  0.00000000000E+00 0. -1.
         21   -1    0    0  502  503 -0.00000000000E+00 -0.00000000000E+00 -0.11180043320E+03  0.11180043320E+03  0.00000000000E+00 0. -1.
         24    1    1    2    0    0 -0.95420782574E+01 -0.23841695404E+02  0.38328891256E+02  0.92713524129E+02  0.80419002446E+02 0.  0.
          1    1    1    2  501    0 -0.85998249277E+01  0.34794112583E+02 -0.12562179526E+02  0.37978883787E+02  0.00000000000E+00 0. -1.
         -2    1    1    2    0  503  0.18141903185E+02 -0.10952417179E+02 -0.57445512438E+02  0.61229657785E+02  0.00000000000E+00 0.  1.
<mgrwt>
<rscale>  2 0.70726245E+02</rscale>
<asrwt>0</asrwt>
<pdfrwt beam="1">  1       21 0.12326405E-01 0.70726245E+02</pdfrwt>
<pdfrwt beam="2">  1       21 0.17200067E-01 0.70726245E+02</pdfrwt>
<totfact> 0.16670346E+06</totfact>
</mgrwt>
</event>
<event>
 5    1  0.1696945E+000  0.7644892E+02  0.7546771E-02  0.1339442E+00
         21   -1    0    0  503  502  0.00000000000E+00  0.00000000000E+00  0.30642716451E+02  0.30642716451E+02  0.00000000000E+00 0. -1.
         21   -1    0    0  501  503 -0.00000000000E+00 -0.00000000000E+00 -0.35705699187E+03  0.35705699187E+03  0.00000000000E+00 0. -1.
         24    1    1    2    0    0  0.17154550412E+02  0.10908998252E+02 -0.39325364035E+02  0.91798611392E+02  0.80419002446E+02 0.  0.
          1    1    1    2  501    0  0.11466289177E+02  0.22925372199E+02 -0.13819263451E+03  0.14054982288E+03  0.00000000000E+00 0. -1.
         -2    1    1    2    0  502 -0.28620839589E+02 -0.33834370451E+02 -0.14889627687E+03  0.15535127405E+03  0.00000000000E+00 0.  1.
<mgrwt>
<rscale>  2 0.76448923E+02</rscale>
<asrwt>0</asrwt>
<pdfrwt beam="1">  1       21 0.47142641E-02 0.76448923E+02</pdfrwt>
<pdfrwt beam="2">  1       21 0.54931845E-01 0.76448923E+02</pdfrwt>
<totfact> 0.92698309E+05</totfact>
</mgrwt>
</event>
<event>
 5    1  0.1696945E+000  0.6679871E+02  0.7546771E-02  0.1371330E+00
         21   -1    0    0  503  502  0.00000000000E+00  0.00000000000E+00  0.82479828948E+02  0.82479828948E+02  0.00000000000E+00 0.  1.
         21   -1    0    0  501  503 -0.00000000000E+00 -0.00000000000E+00 -0.82044354445E+02  0.82044354445E+02  0.00000000000E+00 0.  1.
         24    1    1    2    0    0 -0.45368706321E+01 -0.63255275161E+01  0.26380386495E+02  0.84992565789E+02  0.80419002446E+02 0.  0.
          1    1    1    2  501    0  0.39889605478E+01 -0.23064761785E+02 -0.40463698847E+02  0.46746186656E+02  0.00000000000E+00 0. -1.
         -2    1    1    2    0  502  0.54791008436E+00  0.29390289301E+02  0.14518786855E+02  0.32785430948E+02  0.00000000000E+00 0.  1.
<mgrwt>
<rscale>  2 0.66798713E+02</rscale>
<asrwt>0</asrwt>
<pdfrwt beam="1">  1       21 0.12689204E-01 0.66798713E+02</pdfrwt>
<pdfrwt beam="2">  1       21 0.12622208E-01 0.66798713E+02</pdfrwt>
<totfact> 0.27311840E+06</totfact>
</mgrwt>
</event>
<event>
 5    1  0.1696945E+000  0.6967376E+02  0.7546771E-02  0.1361206E+00
         21   -1    0    0  503  502  0.00000000000E+00  0.00000000000E+00  0.91931758801E+02  0.91931758801E+02  0.00000000000E+00 0. -1.
         21   -1    0    0  501  503 -0.00000000000E+00 -0.00000000000E+00 -0.66748428165E+02  0.66748428165E+02  0.00000000000E+00 0.  1.
         24    1    1    2    0    0  0.26150859163E+02  0.33667720128E+02 -0.15431078664E+02  0.92318562363E+02  0.80419002446E+02 0.  0.
          1    1    1    2  501    0 -0.16625786401E+01 -0.20416474167E+02  0.48748491133E+01  0.21056133050E+02  0.00000000000E+00 0. -1.
         -2    1    1    2    0  502 -0.24488280523E+02 -0.13251245960E+02  0.35739560187E+02  0.45305491553E+02  0.00000000000E+00 0.  1.
<mgrwt>
<rscale>  2 0.69673762E+02</rscale>
<asrwt>0</asrwt>
<pdfrwt beam="1">  1       21 0.14143347E-01 0.69673762E+02</pdfrwt>
<pdfrwt beam="2">  1       21 0.10268989E-01 0.69673762E+02</pdfrwt>
<totfact> 0.32373200E+06</totfact>
</mgrwt>
</event>
<event>
 5    1  0.1696945E+000  0.7608177E+02  0.7546771E-02  0.1340553E+00
         21   -1    0    0  503  502  0.00000000000E+00  0.00000000000E+00  0.18367208027E+03  0.18367208027E+03  0.00000000000E+00 0. -1.
         21   -1    0    0  501  503 -0.00000000000E+00 -0.00000000000E+00 -0.43140026267E+02  0.43140026267E+02  0.00000000000E+00 0.  1.
         24    1    1    2    0    0  0.12897393576E+02 -0.71627172788E+01  0.17264315050E+02  0.83563866643E+02  0.80419002446E+02 0.  1.
          1    1    1    2  501    0  0.13897375098E+02  0.31358449800E+02  0.41326678746E+02  0.53706459431E+02  0.00000000000E+00 0. -1.
         -2    1    1    2    0  502 -0.26794768674E+02 -0.24195732521E+02  0.81941060211E+02  0.89541780466E+02  0.00000000000E+00 0.  1.
<mgrwt>
<rscale>  2 0.76081770E+02</rscale>
<asrwt>0</asrwt>
<pdfrwt beam="1">  1       21 0.28257243E-01 0.76081770E+02</pdfrwt>
<pdfrwt beam="2">  1       21 0.66369272E-02 0.76081770E+02</pdfrwt>
<totfact> 0.19389094E+06</totfact>
</mgrwt>
</event>
<event>
 5    1  0.1696945E+000  0.2213014E+03  0.7546771E-02  0.1132917E+00
         21   -1    0    0  503  502  0.00000000000E+00  0.00000000000E+00  0.35821687807E+03  0.35821687807E+03  0.00000000000E+00 0. -1.
         21   -1    0    0  501  503 -0.00000000000E+00 -0.00000000000E+00 -0.14725705635E+03  0.14725705635E+03  0.00000000000E+00 0. -1.
         24    1    1    2    0    0  0.21070577031E+03  0.37237718387E+02  0.14810675647E+03  0.27237179843E+03  0.80419002446E+02 0. -1.
          1    1    1    2  501    0 -0.19000687823E+03 -0.34936653404E+02  0.31919758755E+02  0.19581127273E+03  0.00000000000E+00 0. -1.
         -2    1    1    2    0  502 -0.20698892072E+02 -0.23010649822E+01  0.30933306488E+02  0.37290863270E+02  0.00000000000E+00 0.  1.
<mgrwt>
<rscale>  2 0.22130140E+03</rscale>
<asrwt>0</asrwt>
<pdfrwt beam="1">  1       21 0.55110289E-01 0.22130140E+03</pdfrwt>
<pdfrwt beam="2">  1       21 0.22654932E-01 0.22130140E+03</pdfrwt>
<totfact> 0.55980874E+04</totfact>
</mgrwt>
</event>
<event>
 5    1  0.1696945E+000  0.1494659E+03  0.7546771E-02  0.1201131E+00
         21   -1    0    0  501  502  0.00000000000E+00  0.00000000000E+00  0.33192075493E+03  0.33192075493E+03  0.00000000000E+00 0. -1.
         21   -1    0    0  502  503 -0.00000000000E+00 -0.00000000000E+00 -0.14417670467E+03  0.14417670467E+03  0.00000000000E+00 0. -1.
         24    1    1    2    0    0 -0.66906225812E+02 -0.25704899719E+02 -0.21066976470E+00  0.10772393076E+03  0.80419002446E+02 0. -1.
          1    1    1    2  501    0  0.46771122718E+02 -0.75066420354E+02  0.23812326519E+03  0.25401809937E+03  0.00000000000E+00 0. -1.
         -2    1    1    2    0  503  0.20135103093E+02  0.10077132007E+03 -0.50168545163E+02  0.11435542947E+03  0.00000000000E+00 0.  1.
<mgrwt>
<rscale>  2 0.14946594E+03</rscale>
<asrwt>0</asrwt>
<pdfrwt beam="1">  1       21 0.51064731E-01 0.14946594E+03</pdfrwt>
<pdfrwt beam="2">  1       21 0.22181032E-01 0.14946594E+03</pdfrwt>
<totfact> 0.70634054E+04</totfact>
</mgrwt>
</event>
<event>
 5    1  0.1696945E+000  0.6576800E+02  0.7546771E-02  0.1375106E+00
         21   -1    0    0  503  502  0.00000000000E+00  0.00000000000E+00  0.14203920766E+02  0.14203920766E+02  0.00000000000E+00 0. -1.
         21   -1    0    0  501  503 -0.00000000000E+00 -0.00000000000E+00 -0.48559890964E+03  0.48559890964E+03  0.00000000000E+00 0.  1.
         24    1    1    2    0    0  0.14591530836E+02  0.40804087599E+01 -0.12290113871E+03  0.14765320301E+03  0.80419002446E+02 0. -1.
          1    1    1    2  501    0 -0.26705354799E+02  0.12240436620E+02 -0.23752131135E+03  0.23933110456E+03  0.00000000000E+00 0. -1.
         -2    1    1    2    0  502  0.12113823963E+02 -0.16320845379E+02 -0.11097253881E+03  0.11281852284E+03  0.00000000000E+00 0.  1.
<mgrwt>
<rscale>  2 0.65768002E+02</rscale>
<asrwt>0</asrwt>
<pdfrwt beam="1">  1       21 0.21852190E-02 0.65768002E+02</pdfrwt>
<pdfrwt beam="2">  1       21 0.74707512E-01 0.65768002E+02</pdfrwt>
<totfact> 0.16772878E+06</totfact>
</mgrwt>
</event>
<event>
 5    1  0.1696945E+000  0.7225965E+02  0.7546771E-02  0.1352573E+00
         21   -1    0    0  501  502  0.00000000000E+00  0.00000000000E+00  0.25577094565E+02  0.25577094565E+02  0.00000000000E+00 0.  1.
         21   -1    0    0  502  503 -0.00000000000E+00 -0.00000000000E+00 -0.22412963573E+03  0.22412963573E+03  0.00000000000E+00 0.  1.
         24    1    1    2    0    0  0.48883859260E+02  0.96441953418E+01 -0.10807035021E+03  0.14362819622E+03  0.80419002446E+02 0.  1.
          1    1    1    2  501    0 -0.28131252446E+02 -0.40421370293E+01 -0.27570490867E+02  0.39595936693E+02  0.00000000000E+00 0. -1.
         -2    1    1    2    0  503 -0.20752606814E+02 -0.56020583125E+01 -0.62911700081E+02  0.66482597377E+02  0.00000000000E+00 0.  1.
<mgrwt>
<rscale>  2 0.72259649E+02</rscale>
<asrwt>0</asrwt>
<pdfrwt beam="1">  1       21 0.39349377E-02 0.72259649E+02</pdfrwt>
<pdfrwt beam="2">  1       21 0.34481482E-01 0.72259649E+02</pdfrwt>
<totfact> 0.31461716E+06</totfact>
</mgrwt>
</event>
<event>
 5    1  0.1696945E+000  0.6737348E+02  0.7546771E-02  0.1369259E+00
         21   -1    0    0  503  502  0.00000000000E+00  0.00000000000E+00  0.57933348343E+01  0.57933348343E+01  0.00000000000E+00 0.  1.
         21   -1    0    0  501  503 -0.00000000000E+00 -0.00000000000E+00 -0.18458955355E+04  0.18458955355E+04  0.00000000000E+00 0.  1.
         24    1    1    2    0    0  0.10646040104E+01  0.27374579786E+02 -0.13611750345E+04  0.13638237392E+04  0.80419002446E+02 0.  1.
          1    1    1    2  501    0  0.18849991692E+02 -0.22375734008E+02 -0.45658426306E+03  0.45752069345E+03  0.00000000000E+00 0. -1.
         -2    1    1    2    0  502 -0.19914595703E+02 -0.49988457775E+01 -0.22342903073E+02  0.30344437692E+02  0.00000000000E+00 0.  1.
<mgrwt>
<rscale>  2 0.67373477E+02</rscale>
<asrwt>0</asrwt>
<pdfrwt beam="1">  1       21 0.89128173E-03 0.67373477E+02</pdfrwt>
<pdfrwt beam="2">  1       21 0.28398410E+00 0.67373477E+02</pdfrwt>
<totfact> 0.21541267E+05</totfact>
</mgrwt>
</event>
<event>
 5    1  0.1696945E+000  0.1075844E+03  0.7546771E-02  0.1265110E+00
         21   -1    0    0  501  502  0.00000000000E+00  0.00000000000E+00  0.52786687189E+03  0.52786687189E+03  0.00000000000E+00 0.  1.
         21   -1    0    0  502  503 -0.00000000000E+00 -0.00000000000E+00 -0.27708201807E+02  0.27708201807E+02  0.00000000000E+00 0. -1.
         24    1    1    2    0    0 -0.15933737258E+02 -0.37154463147E+02  0.19124766841E+03  0.21136987662E+03  0.80419002446E+02 0.  0.
          1    1    1    2  501    0  0.88475405486E+01 -0.43401017050E+02  0.21833550228E+03  0.22278312057E+03  0.00000000000E+00 0. -1.
         -2    1    1    2    0  503  0.70861967098E+01  0.80555480198E+02  0.90575499394E+02  0.12142207651E+03  0.00000000000E+00 0.  1.
<mgrwt>
<rscale>  2 0.10758442E+03</rscale>
<asrwt>0</asrwt>
<pdfrwt beam="1">  1       21 0.81210280E-01 0.10758442E+03</pdfrwt>
<pdfrwt beam="2">  1       21 0.42628007E-02 0.10758442E+03</pdfrwt>
<totfact> 0.47459954E+05</totfact>
</mgrwt>
</event>
<event>
 5    1  0.1696945E+000  0.8190172E+02  0.7546771E-02  0.1323740E+00
         21   -1    0    0  501  502  0.00000000000E+00  0.00000000000E+00  0.21607573734E+02  0.21607573734E+02  0.00000000000E+00 0.  1.
         21   -1    0    0  502  503 -0.00000000000E+00 -0.00000000000E+00 -0.41544266084E+03  0.41544266084E+03  0.00000000000E+00 0.  1.
         24    1    1    2    0    0 -0.25972637599E+02  0.27661982883E+02 -0.16301908587E+03  0.18569383812E+03  0.80419002446E+02 0.  1.
          1    1    1    2  501    0 -0.21334746129E+02 -0.30379259649E+01 -0.92313556348E+01  0.23443939802E+02  0.00000000000E+00 0. -1.
         -2    1    1    2    0  503  0.47307383729E+02 -0.24624056918E+02 -0.22158464559E+03  0.22791245665E+03  0.00000000000E+00 0.  1.
<mgrwt>
<rscale>  2 0.81901717E+02</rscale>
<asrwt>0</asrwt>
<pdfrwt beam="1">  1       21 0.33242423E-02 0.81901717E+02</pdfrwt>
<pdfrwt beam="2">  1       21 0.63914252E-01 0.81901717E+02</pdfrwt>
<totfact> 0.11997543E+06</totfact>
</mgrwt>
</event>
<event>
 5    1  0.1696945E+000  0.7637804E+02  0.7546771E-02  0.1339656E+00
         21   -1    0    0  501  502  0.00000000000E+00  0.00000000000E+00  0.12082386894E+04  0.12082386894E+04  0.00000000000E+00 0.  1.
         21   -1    0    0  502  503 -0.00000000000E+00 -0.00000000000E+00 -0.48623964466E+01  0.48623964466E+01  0.00000000000E+00 0. -1.
         24    1    1    2    0    0  0.32499740357E+02  0.53052475213E+01  0.63439536520E+03  0.64031950940E+03  0.80419002446E+02 0. -1.
          1    1    1    2  501    0 -0.28118130106E+02 -0.29800608489E+02  0.36048579216E+03  0.36280671418E+03  0.00000000000E+00 0. -1.
         -2    1    1    2    0  503 -0.43816102505E+01  0.24495360967E+02  0.20849513561E+03  0.20997486228E+03  0.00000000000E+00 0.  1.
<mgrwt>
<rscale>  2 0.76378038E+02</rscale>
<asrwt>0</asrwt>
<pdfrwt beam="1">  1       21 0.18588264E+00 0.76378038E+02</pdfrwt>
<pdfrwt beam="2">  1       21 0.74806195E-03 0.76378038E+02</pdfrwt>
<totfact> 0.10159928E+06</totfact>
</mgrwt>
</event>
<event>
 5    1  0.1696945E+000  0.7310067E+02  0.7546771E-02  0.1349856E+00
         21   -1    0    0  501  502  0.00000000000E+00  0.00000000000E+00  0.45725212571E+03  0.45725212571E+03  0.00000000000E+00 0.  1.
         21   -1    0    0  502  503 -0.00000000000E+00 -0.00000000000E+00 -0.46049480521E+02  0.46049480521E+02  0.00000000000E+00 0.  1.
         24    1    1    2    0    0 -0.51381536225E+00 -0.11817720029E+02  0.29985083031E+03  0.31067291305E+03  0.80419002446E+02 0.  1.
          1    1    1    2  501    0 -0.20146367270E+02 -0.19080565940E+02  0.14185633217E+03  0.14454467506E+03  0.00000000000E+00 0. -1.
         -2    1    1    2    0  503  0.20660182633E+02  0.30898285969E+02 -0.30504517298E+02  0.48084018112E+02  0.00000000000E+00 0.  1.
<mgrwt>
<rscale>  2 0.73100672E+02</rscale>
<asrwt>0</asrwt>
<pdfrwt beam="1">  1       21 0.70346478E-01 0.73100672E+02</pdfrwt>
<pdfrwt beam="2">  1       21 0.70845358E-02 0.73100672E+02</pdfrwt>
<totfact> 0.27932971E+05</totfact>
</mgrwt>
</event>
<event>
 5    1  0.1696945E+000  0.9026604E+02  0.7546771E-02  0.1302209E+00
         21   -1    0    0  503  502  0.00000000000E+00  0.00000000000E+00  0.15255904812E+04  0.15255904812E+04  0.00000000000E+00 0.  1.
         21   -1    0    0  501  503 -0.00000000000E+00 -0.00000000000E+00 -0.62194009157E+01  0.62194009157E+01  0.00000000000E+00 0. -1.
         24    1    1    2    0    0  0.46477805941E+02  0.25563142505E+02  0.52953605155E+03  0.53822793178E+03  0.80419002446E+02 0.  0.
          1    1    1    2  501    0 -0.27810920568E+02 -0.47713915837E+02  0.54050943197E+03  0.54332357865E+03  0.00000000000E+00 0. -1.
         -2    1    1    2    0  502 -0.18666885373E+02  0.22150773332E+02  0.44932559675E+03  0.45025837167E+03  0.00000000000E+00 0.  1.
<mgrwt>
<rscale>  2 0.90266043E+02</rscale>
<asrwt>0</asrwt>
<pdfrwt beam="1">  1       21 0.23470593E+00 0.90266043E+02</pdfrwt>
<pdfrwt beam="2">  1       21 0.95683212E-03 0.90266043E+02</pdfrwt>
<totfact> 0.35090893E+05</totfact>
</mgrwt>
</event>
<event>
 5    1  0.1696945E+000  0.8410277E+02  0.7546771E-02  0.1317796E+00
         21   -1    0    0  501  502  0.00000000000E+00  0.00000000000E+00  0.27300484038E+02  0.27300484038E+02  0.00000000000E+00 0.  1.
         21   -1    0    0  502  503 -0.00000000000E+00 -0.00000000000E+00 -0.30362963113E+03  0.30362963113E+03  0.00000000000E+00 0.  1.
         24    1    1    2    0    0  0.45670578776E+01 -0.28124315001E+02 -0.76684632383E+02  0.11471522963E+03  0.80419002446E+02 0.  1.
          1    1    1    2  501    0  0.19850799561E+02 -0.20463498997E+02 -0.63159299016E+02  0.69295786933E+02  0.00000000000E+00 0. -1.
         -2    1    1    2    0  503 -0.24417857438E+02  0.48587813998E+02 -0.13648521570E+03  0.14691909860E+03  0.00000000000E+00 0.  1.
<mgrwt>
<rscale>  2 0.84102767E+02</rscale>
<asrwt>0</asrwt>
<pdfrwt beam="1">  1       21 0.42000743E-02 0.84102767E+02</pdfrwt>
<pdfrwt beam="2">  1       21 0.46712253E-01 0.84102767E+02</pdfrwt>
<totfact> 0.15643274E+06</totfact>
</mgrwt>
</event>
<event>
 5    1  0.1696945E+000  0.1069949E+03  0.7546771E-02  0.1266238E+00
         21   -1    0    0  503  502  0.00000000000E+00  0.00000000000E+00  0.17109860800E+04  0.17109860800E+04  0.00000000000E+00 0. -1.
         21   -1    0    0  501  503 -0.00000000000E+00 -0.00000000000E+00 -0.75661833697E+01  0.75661833697E+01  0.00000000000E+00 0. -1.
         24    1    1    2    0    0 -0.75517688981E+02  0.33810518056E+02  0.97292319703E+03  0.97974120856E+03  0.80419002446E+02 0. -1.
          1    1    1    2  501    0  0.55882301214E+02 -0.48572258174E+02  0.36188523179E+03  0.36938193897E+03  0.00000000000E+00 0. -1.
         -2    1    1    2    0  502  0.19635387767E+02  0.14761740118E+02  0.36861146782E+03  0.36942911585E+03  0.00000000000E+00 0.  1.
<mgrwt>
<rscale>  2 0.10699489E+03</rscale>
<asrwt>0</asrwt>
<pdfrwt beam="1">  1       21 0.26322832E+00 0.10699489E+03</pdfrwt>
<pdfrwt beam="2">  1       21 0.11640296E-02 0.10699489E+03</pdfrwt>
<totfact> 0.17533188E+05</totfact>
</mgrwt>
</event>
<event>
 5    1  0.1696945E+000  0.7929996E+02  0.7546771E-02  0.1331050E+00
         21   -1    0    0  503  502  0.00000000000E+00  0.00000000000E+00  0.37253430732E+02  0.37253430732E+02  0.00000000000E+00 0. -1.
         21   -1    0    0  501  503 -0.00000000000E+00 -0.00000000000E+00 -0.29687161803E+03  0.29687161803E+03  0.00000000000E+00 0. -1.
         24    1    1    2    0    0 -0.43573729347E+02 -0.57546284259E+01 -0.55415737388E+02  0.10709764490E+03  0.80419002446E+02 0. -1.
          1    1    1    2  501    0  0.21304782440E+02 -0.22494873849E+02 -0.18229687800E+03  0.18491096461E+03  0.00000000000E+00 0. -1.
         -2    1    1    2    0  502  0.22268946906E+02  0.28249502275E+02 -0.21905571912E+02  0.42116439260E+02  0.00000000000E+00 0.  1.
<mgrwt>
<rscale>  2 0.79299957E+02</rscale>
<asrwt>0</asrwt>
<pdfrwt beam="1">  1       21 0.57312971E-02 0.79299957E+02</pdfrwt>
<pdfrwt beam="2">  1       21 0.45672556E-01 0.79299957E+02</pdfrwt>
<totfact> 0.97606397E+05</totfact>
</mgrwt>
</event>
<event>
 5    1  0.1696945E+000  0.1886401E+03  0.7546771E-02  0.1159694E+00
         21   -1    0    0  501  502  0.00000000000E+00  0.00000000000E+00  0.16038406380E+03  0.16038406380E+03  0.00000000000E+00 0. -1.
         21   -1    0    0  502  503 -0.00000000000E+00 -0.00000000000E+00 -0.32120135059E+03  0.32120135059E+03  0.00000000000E+00 0.  1.
         24    1    1    2    0    0  0.72001517811E+02 -0.83553517508E+02 -0.17154171097E+03  0.21922404843E+03  0.80419002446E+02 0.  1.
          1    1    1    2  501    0 -0.12921563154E+03 -0.11614429180E+02  0.57451402856E+02  0.14188811822E+03  0.00000000000E+00 0. -1.
         -2    1    1    2    0  503  0.57214113734E+02  0.95167946688E+02 -0.46726978675E+02  0.12047324775E+03  0.00000000000E+00 0.  1.
<mgrwt>
<rscale>  2 0.18864012E+03</rscale>
<asrwt>0</asrwt>
<pdfrwt beam="1">  1       21 0.24674471E-01 0.18864012E+03</pdfrwt>
<pdfrwt beam="2">  1       21 0.49415593E-01 0.18864012E+03</pdfrwt>
<totfact> 0.60752904E+04</totfact>
</mgrwt>
</event>
<event>
 5    1  0.1696945E+000  0.1058686E+03  0.7546771E-02  0.1268418E+00
         21   -1    0    0  503  502  0.00000000000E+00  0.00000000000E+00  0.81693194681E+03  0.81693194681E+03  0.00000000000E+00 0.  1.
         21   -1    0    0  501  503 -0.00000000000E+00 -0.00000000000E+00 -0.36634564308E+03  0.36634564308E+03  0.00000000000E+00 0.  1.
         24    1    1    2    0    0 -0.26019674959E+02 -0.53718134966E+02 -0.28876232773E+03  0.30563631882E+03  0.80419002446E+02 0.  1.
          1    1    1    2  501    0 -0.20234178900E+02 -0.17443493427E+02 -0.64244968983E+02  0.69578110770E+02  0.00000000000E+00 0. -1.
         -2    1    1    2    0  502  0.46253853859E+02  0.71161628393E+02  0.80359360045E+03  0.80806316030E+03  0.00000000000E+00 0.  1.
<mgrwt>
<rscale>  2 0.10586861E+03</rscale>
<asrwt>0</asrwt>
<pdfrwt beam="1">  1       21 0.12568184E+00 0.10586861E+03</pdfrwt>
<pdfrwt beam="2">  1       21 0.56360868E-01 0.10586861E+03</pdfrwt>
<totfact> 0.15504524E+03</totfact>
</mgrwt>
</event>
<event>
 5    1  0.1696945E+000  0.6662719E+02  0.7546771E-02  0.1371953E+00
         21   -1    0    0  503  502  0.00000000000E+00  0.00000000000E+00  0.68574568162E+03  0.68574568162E+03  0.00000000000E+00 0. -1.
         21   -1    0    0  501  503 -0.00000000000E+00 -0.00000000000E+00 -0.98858023270E+01  0.98858023270E+01  0.00000000000E+00 0.  1.
         24    1    1    2    0    0 -0.72366296401E+01  0.23628683681E+02  0.55901623579E+03  0.56531146400E+03  0.80419002446E+02 0. -1.
          1    1    1    2  501    0 -0.17524348107E+02 -0.14460751256E+02  0.21116005362E+02  0.31017765650E+02  0.00000000000E+00 0. -1.
         -2    1    1    2    0  502  0.24760977747E+02 -0.91679324256E+01  0.95727638138E+02  0.99302254292E+02  0.00000000000E+00 0.  1.
<mgrwt>
<rscale>  2 0.66627187E+02</rscale>
<asrwt>0</asrwt>
<pdfrwt beam="1">  1       21 0.10549930E+00 0.66627187E+02</pdfrwt>
<pdfrwt beam="2">  1       21 0.15208932E-02 0.66627187E+02</pdfrwt>
<totfact> 0.13773586E+06</totfact>
</mgrwt>
</event>
<event>
 5    1  0.1696945E+000  0.7222856E+02  0.7546771E-02  0.1352675E+00
         21   -1    0    0  501  502  0.00000000000E+00  0.00000000000E+00  0.10492934195E+03  0.10492934195E+03  0.00000000000E+00 0.  1.
         21   -1    0    0  502  503 -0.00000000000E+00 -0.00000000000E+00 -0.74476018064E+02  0.74476018064E+02  0.00000000000E+00 0. -1.
         24    1    1    2    0    0 -0.41279623798E+01 -0.49229570498E+02 -0.24080806852E+02  0.97404783752E+02  0.80419002446E+02 0.  0.
          1    1    1    2  501    0  0.56587681918E+01  0.19434608952E+02  0.47083294444E+02  0.51249998032E+02  0.00000000000E+00 0. -1.
         -2    1    1    2    0  503 -0.15308058120E+01  0.29794961546E+02  0.74508362937E+01  0.30750578229E+02  0.00000000000E+00 0.  1.
<mgrwt>
<rscale>  2 0.72228560E+02</rscale>
<asrwt>0</asrwt>
<pdfrwt beam="1">  1       21 0.16142976E-01 0.72228560E+02</pdfrwt>
<pdfrwt beam="2">  1       21 0.11457849E-01 0.72228560E+02</pdfrwt>
<totfact> 0.21228426E+06</totfact>
</mgrwt>
</event>
<event>
 5    1  0.1696945E+000  0.7173356E+02  0.7546771E-02  0.1354295E+00
         21   -1    0    0  503  502  0.00000000000E+00  0.00000000000E+00  0.14277942890E+03  0.14277942890E+03  0.00000000000E+00 0. -1.
         21   -1    0    0  501  503 -0.00000000000E+00 -0.00000000000E+00 -0.74554095740E+02  0.74554095740E+02  0.00000000000E+00 0.  1.
         24    1    1    2    0    0  0.37757537819E+01  0.16251743512E+02  0.19776272826E+01  0.82155355564E+02  0.80419002446E+02 0.  1.
          1    1    1    2  501    0 -0.28572157353E+02 -0.21784320344E+02 -0.22816012876E+02  0.42561663880E+02  0.00000000000E+00 0. -1.
         -2    1    1    2    0  502  0.24796403572E+02  0.55325768318E+01  0.89063718757E+02  0.92616505199E+02  0.00000000000E+00 0.  1.
<mgrwt>
<rscale>  2 0.71733557E+02</rscale>
<asrwt>0</asrwt>
<pdfrwt beam="1">  1       21 0.21966066E-01 0.71733557E+02</pdfrwt>
<pdfrwt beam="2">  1       21 0.11469861E-01 0.71733557E+02</pdfrwt>
<totfact> 0.12135688E+06</totfact>
</mgrwt>
</event>
<event>
 5    1  0.1696945E+000  0.8976430E+02  0.7546771E-02  0.1303423E+00
         21   -1    0    0  501  502  0.00000000000E+00  0.00000000000E+00  0.25127185050E+02  0.25127185050E+02  0.00000000000E+00 0.  1.
         21   -1    0    0  502  503 -0.00000000000E+00 -0.00000000000E+00 -0.43030203753E+03  0.43030203753E+03  0.00000000000E+00 0.  1.
         24    1    1    2    0    0 -0.61999422538E+02 -0.27876197871E+02 -0.15306583100E+03  0.18578852327E+03  0.80419002446E+02 0.  1.
          1    1    1    2  501    0  0.39681929553E+02  0.15460296573E+01 -0.46478285140E+02  0.61133270240E+02  0.00000000000E+00 0. -1.
         -2    1    1    2    0  503  0.22317492986E+02  0.26330168214E+02 -0.20563073634E+03  0.20850742907E+03  0.00000000000E+00 0.  1.
<mgrwt>
<rscale>  2 0.89764299E+02</rscale>
<asrwt>0</asrwt>
<pdfrwt beam="1">  1       21 0.38657209E-02 0.89764299E+02</pdfrwt>
<pdfrwt beam="2">  1       21 0.66200312E-01 0.89764299E+02</pdfrwt>
<totfact> 0.87117028E+05</totfact>
</mgrwt>
</event>
<event>
 5    1  0.1696945E+000  0.7534378E+02  0.7546771E-02  0.1342810E+00
         21   -1    0    0  501  502  0.00000000000E+00  0.00000000000E+00  0.13836552010E+02  0.13836552010E+02  0.00000000000E+00 0.  1.
         21   -1    0    0  502  503 -0.00000000000E+00 -0.00000000000E+00 -0.42370264971E+03  0.42370264971E+03  0.00000000000E+00 0. -1.
         24    1    1    2    0    0  0.17803075420E+02 -0.35448487324E+02 -0.27045569318E+03  0.28493340042E+03  0.80419002446E+02 0.  1.
          1    1    1    2  501    0  0.10309553011E+02  0.30855041873E+02 -0.60177499901E+02  0.68407981893E+02  0.00000000000E+00 0. -1.
         -2    1    1    2    0  503 -0.28112628431E+02  0.45934454509E+01 -0.79232904615E+02  0.84197819402E+02  0.00000000000E+00 0.  1.
<mgrwt>
<rscale>  2 0.75343778E+02</rscale>
<asrwt>0</asrwt>
<pdfrwt beam="1">  1       21 0.21287000E-02 0.75343778E+02</pdfrwt>
<pdfrwt beam="2">  1       21 0.65185032E-01 0.75343778E+02</pdfrwt>
<totfact> 0.23542594E+06</totfact>
</mgrwt>
</event>
<event>
 5    1  0.1696945E+000  0.9924904E+02  0.7546771E-02  0.1281883E+00
         21   -1    0    0  503  502  0.00000000000E+00  0.00000000000E+00  0.12509720136E+04  0.12509720136E+04  0.00000000000E+00 0.  1.
         21   -1    0    0  501  503 -0.00000000000E+00 -0.00000000000E+00 -0.10423437455E+02  0.10423437455E+02  0.00000000000E+00 0.  1.
         24    1    1    2    0    0  0.73221973766E+02 -0.11173579968E+02  0.42341747227E+03  0.43730524592E+03  0.80419002446E+02 0.  1.
          1    1    1    2  501    0 -0.11730980993E+02 -0.17699094322E+02  0.55302363851E+02  0.59238714557E+02  0.00000000000E+00 0. -1.
         -2    1    1    2    0  502 -0.61490992773E+02  0.28872674290E+02  0.76182874007E+03  0.76485149062E+03  0.00000000000E+00 0.  1.
<mgrwt>
<rscale>  2 0.99249040E+02</rscale>
<asrwt>0</asrwt>
<pdfrwt beam="1">  1       21 0.19245711E+00 0.99249040E+02</pdfrwt>
<pdfrwt beam="2">  1       21 0.16036067E-02 0.99249040E+02</pdfrwt>
<totfact> 0.27684926E+05</totfact>
</mgrwt>
</event>
<event>
 5    1  0.1696945E+000  0.6774686E+02  0.7546771E-02  0.1367927E+00
         21   -1    0    0  501  502  0.00000000000E+00  0.00000000000E+00  0.22010153549E+02  0.22010153549E+02  0.00000000000E+00 0.  1.
         21   -1    0    0  502  503 -0.00000000000E+00 -0.00000000000E+00 -0.32496847014E+03  0.32496847014E+03  0.00000000000E+00 0. -1.
         24    1    1    2    0    0  0.42249250430E+02 -0.16875410712E+01 -0.27416879368E+03  0.28883142201E+03  0.80419002446E+02 0.  0.
          1    1    1    2  501    0 -0.22440232801E+02  0.80347427015E+01 -0.15664207975E+01  0.23886707864E+02  0.00000000000E+00 0. -1.
         -2    1    1    2    0  503 -0.19809017628E+02 -0.63472016303E+01 -0.27223102118E+02  0.34260493821E+02  0.00000000000E+00 0.  1.
<mgrwt>
<rscale>  2 0.67746865E+02</rscale>
<asrwt>0</asrwt>
<pdfrwt beam="1">  1       21 0.33861775E-02 0.67746865E+02</pdfrwt>
<pdfrwt beam="2">  1       21 0.49995149E-01 0.67746865E+02</pdfrwt>
<totfact> 0.19230606E+06</totfact>
</mgrwt>
</event>
<event>
 5    1  0.1696945E+000  0.8540047E+02  0.7546771E-02  0.1314389E+00
         21   -1    0    0  501  502  0.00000000000E+00  0.00000000000E+00  0.70611537809E+02  0.70611537809E+02  0.00000000000E+00 0. -1.
         21   -1    0    0  502  503 -0.00000000000E+00 -0.00000000000E+00 -0.16024027241E+03  0.16024027241E+03  0.00000000000E+00 0. -1.
         24    1    1    2    0    0 -0.31909077560E+01 -0.39073541574E+02  0.19325082356E+02  0.91529221049E+02  0.80419002446E+02 0. -1.
          1    1    1    2  501    0  0.43314600101E+00  0.60113550417E+02 -0.55525762007E+02  0.81834814142E+02  0.00000000000E+00 0. -1.
         -2    1    1    2    0  503  0.27577617550E+01 -0.21040008843E+02 -0.53428054951E+02  0.57487775030E+02  0.00000000000E+00 0.  1.
<mgrwt>
<rscale>  2 0.85400470E+02</rscale>
<asrwt>0</asrwt>
<pdfrwt beam="1">  1       21 0.10863314E-01 0.85400470E+02</pdfrwt>
<pdfrwt beam="2">  1       21 0.24652349E-01 0.85400470E+02</pdfrwt>
<totfact> 0.10827818E+06</totfact>
</mgrwt>
</event>
<event>
 5    1  0.1696945E+000  0.6819739E+02  0.7546771E-02  0.1366332E+00
         21   -1    0    0  503  502  0.00000000000E+00  0.00000000000E+00  0.83165827089E+01  0.83165827089E+01  0.00000000000E+00 0. -1.
         21   -1    0    0  501  503 -0.00000000000E+00 -0.00000000000E+00 -0.59769206370E+03  0.59769206370E+03  0.00000000000E+00 0.  1.
         24    1    1    2    0    0 -0.14346867536E+01  0.37288661635E+02 -0.44765826997E+03  0.45635254490E+03  0.80419002446E+02 0.  0.
          1    1    1    2  501    0 -0.14137519333E+02 -0.15795860033E+02 -0.72074486091E+02  0.75127293258E+02  0.00000000000E+00 0. -1.
         -2    1    1    2    0  502  0.15572206086E+02 -0.21492801602E+02 -0.69642724933E+02  0.74528808250E+02  0.00000000000E+00 0.  1.
<mgrwt>
<rscale>  2 0.68197392E+02</rscale>
<asrwt>0</asrwt>
<pdfrwt beam="1">  1       21 0.12794740E-02 0.68197392E+02</pdfrwt>
<pdfrwt beam="2">  1       21 0.91952645E-01 0.68197392E+02</pdfrwt>
<totfact> 0.24733414E+06</totfact>
</mgrwt>
</event>
<event>
 5    1  0.1696945E+000  0.6921612E+02  0.7546771E-02  0.1362779E+00
         21   -1    0    0  503  502  0.00000000000E+00  0.00000000000E+00  0.22506928672E+03  0.22506928672E+03  0.00000000000E+00 0.  1.
         21   -1    0    0  501  503 -0.00000000000E+00 -0.00000000000E+00 -0.10987071282E+03  0.10987071282E+03  0.00000000000E+00 0. -1.
         24    1    1    2    0    0 -0.20888923638E+01  0.32235634883E+02 -0.79227969329E+02  0.11742140651E+03  0.80419002446E+02 0. -1.
          1    1    1    2  501    0  0.21211486320E+02 -0.19327735040E+02  0.81675877089E+01  0.29836185793E+02  0.00000000000E+00 0. -1.
         -2    1    1    2    0  502 -0.19122593956E+02 -0.12907899843E+02  0.18625895552E+03  0.18768240725E+03  0.00000000000E+00 0.  1.
<mgrwt>
<rscale>  2 0.69216115E+02</rscale>
<asrwt>0</asrwt>
<pdfrwt beam="1">  1       21 0.34626044E-01 0.69216115E+02</pdfrwt>
<pdfrwt beam="2">  1       21 0.16903187E-01 0.69216115E+02</pdfrwt>
<totfact> 0.26052265E+05</totfact>
</mgrwt>
</event>
<event>
 5    1  0.1696945E+000  0.7161123E+02  0.7546771E-02  0.1354698E+00
         21   -1    0    0  501  502  0.00000000000E+00  0.00000000000E+00  0.71859839705E+02  0.71859839705E+02  0.00000000000E+00 0. -1.
         21   -1    0    0  502  503 -0.00000000000E+00 -0.00000000000E+00 -0.94591284054E+02  0.94591284054E+02  0.00000000000E+00 0. -1.
         24    1    1    2    0    0  0.26609962117E+01 -0.48259459788E+01  0.28094055075E+02  0.85363121665E+02  0.80419002446E+02 0. -1.
          1    1    1    2  501    0 -0.32538331708E+02  0.18790426816E+01 -0.21019020618E+02  0.38782380787E+02  0.00000000000E+00 0. -1.
         -2    1    1    2    0  503  0.29877335497E+02  0.29469032971E+01 -0.29806478807E+02  0.42305621308E+02  0.00000000000E+00 0.  1.
<mgrwt>
<rscale>  2 0.71611233E+02</rscale>
<asrwt>0</asrwt>
<pdfrwt beam="1">  1       21 0.11055360E-01 0.71611233E+02</pdfrwt>
<pdfrwt beam="2">  1       21 0.14552505E-01 0.71611233E+02</pdfrwt>
<totfact> 0.27144590E+06</totfact>
</mgrwt>
</event>
<event>
 5    1  0.1696945E+000  0.8043419E+02  0.7546771E-02  0.1327824E+00
         21   -1    0    0  503  502  0.00000000000E+00  0.00000000000E+00  0.17963625604E+04  0.17963625604E+04  0.00000000000E+00 0.  1.
         21   -1    0    0  501  503 -0.00000000000E+00 -0.00000000000E+00 -0.50098500033E+01  0.50098500033E+01  0.00000000000E+00 0. -1.
         24    1    1    2    0    0  0.59633412362E+02  0.43823383964E+01  0.71300265459E+03  0.72001065976E+03  0.80419002446E+02 0.  1.
          1    1    1    2  501    0 -0.20647363299E+02  0.33301279148E+01  0.98014297379E+02  0.10022078554E+03  0.00000000000E+00 0. -1.
         -2    1    1    2    0  502 -0.38986049063E+02 -0.77124663112E+01  0.98033575840E+03  0.98114096507E+03  0.00000000000E+00 0.  1.
<mgrwt>
<rscale>  2 0.80434190E+02</rscale>
<asrwt>0</asrwt>
<pdfrwt beam="1">  1       21 0.27636296E+00 0.80434190E+02</pdfrwt>
<pdfrwt beam="2">  1       21 0.77074759E-03 0.80434190E+02</pdfrwt>
<totfact> 0.29097644E+05</totfact>
</mgrwt>
</event>
<event>
 5    1  0.1696945E+000  0.1573877E+03  0.7546771E-02  0.1191678E+00
         21   -1    0    0  501  502  0.00000000000E+00  0.00000000000E+00  0.14582045591E+04  0.14582045591E+04  0.00000000000E+00 0. -1.
         21   -1    0    0  502  503 -0.00000000000E+00 -0.00000000000E+00 -0.17546085561E+02  0.17546085561E+02  0.00000000000E+00 0.  1.
         24    1    1    2    0    0 -0.12375436518E+03  0.69129203249E+02  0.62382515201E+03  0.64476276713E+03  0.80419002446E+02 0.  1.
          1    1    1    2  501    0  0.84268426225E+02 -0.16277345525E+02  0.50641841010E+03  0.51363968472E+03  0.00000000000E+00 0. -1.
         -2    1    1    2    0  503  0.39485938957E+02 -0.52851857724E+02  0.31041491143E+03  0.31734819281E+03  0.00000000000E+00 0.  1.
<mgrwt>
<rscale>  2 0.15738768E+03</rscale>
<asrwt>0</asrwt>
<pdfrwt beam="1">  1       21 0.22433907E+00 0.15738768E+03</pdfrwt>
<pdfrwt beam="2">  1       21 0.26993989E-02 0.15738768E+03</pdfrwt>
<totfact> 0.73072966E+04</totfact>
</mgrwt>
</event>
<event>
 5    1  0.1696945E+000  0.6309053E+02  0.7546771E-02  0.1385302E+00
         21   -1    0    0  501  502  0.00000000000E+00  0.00000000000E+00  0.24299587107E+03  0.24299587107E+03  0.00000000000E+00 0. -1.
         21   -1    0    0  502  503 -0.00000000000E+00 -0.00000000000E+00 -0.64749461471E+02  0.64749461471E+02  0.00000000000E+00 0.  1.
         24    1    1    2    0    0  0.11690654078E+01  0.74275698075E+01  0.12988969207E+03  0.15295451471E+03  0.80419002446E+02 0.  0.
          1    1    1    2  501    0 -0.22693617535E+02 -0.16389545846E+00  0.97789330155E+02  0.10038814786E+03  0.00000000000E+00 0. -1.
         -2    1    1    2    0  503  0.21524552128E+02 -0.72636743490E+01 -0.49432612629E+02  0.54402669977E+02  0.00000000000E+00 0.  1.
<mgrwt>
<rscale>  2 0.63090534E+02</rscale>
<asrwt>0</asrwt>
<pdfrwt beam="1">  1       21 0.37383980E-01 0.63090534E+02</pdfrwt>
<pdfrwt beam="2">  1       21 0.99614558E-02 0.63090534E+02</pdfrwt>
<totfact> 0.56672084E+05</totfact>
</mgrwt>
</event>
<event>
 5    1  0.1696945E+000  0.6975898E+02  0.7546771E-02  0.1360915E+00
         21   -1    0    0  503  502  0.00000000000E+00  0.00000000000E+00  0.11948712723E+03  0.11948712723E+03  0.00000000000E+00 0.  1.
         21   -1    0    0  501  503 -0.00000000000E+00 -0.00000000000E+00 -0.83172215216E+02  0.83172215216E+02  0.00000000000E+00 0.  1.
         24    1    1    2    0    0 -0.18998204594E+02 -0.40187478752E+01 -0.23668242249E+02  0.86049310037E+02  0.80419002446E+02 0.  1.
          1    1    1    2  501    0  0.21024460384E+02  0.26717976292E+02 -0.15788517377E+02  0.37485403460E+02  0.00000000000E+00 0. -1.
         -2    1    1    2    0  502 -0.20262557898E+01 -0.22699228417E+02  0.75771671640E+02  0.79124628949E+02  0.00000000000E+00 0.  1.
<mgrwt>
<rscale>  2 0.69758984E+02</rscale>
<asrwt>0</asrwt>
<pdfrwt beam="1">  1       21 0.18382635E-01 0.69758984E+02</pdfrwt>
<pdfrwt beam="2">  1       21 0.12795725E-01 0.69758984E+02</pdfrwt>
<totfact> 0.13849385E+06</totfact>
</mgrwt>
</event>
<event>
 5    1  0.1696945E+000  0.6794920E+02  0.7546771E-02  0.1367209E+00
         21   -1    0    0  503  502  0.00000000000E+00  0.00000000000E+00  0.16207539638E+02  0.16207539638E+02  0.00000000000E+00 0. -1.
         21   -1    0    0  501  503 -0.00000000000E+00 -0.00000000000E+00 -0.49081985717E+03  0.49081985717E+03  0.00000000000E+00 0.  1.
         24    1    1    2    0    0 -0.26579845054E+02  0.16866855207E+00 -0.20805141635E+03  0.22463108514E+03  0.80419002446E+02 0. -1.
          1    1    1    2  501    0  0.14770674735E+02 -0.21930573865E+02 -0.25258385495E+03  0.25396402636E+03  0.00000000000E+00 0. -1.
         -2    1    1    2    0  502  0.11809170319E+02  0.21761905312E+02 -0.13977046229E+02  0.28432285306E+02  0.00000000000E+00 0.  1.
<mgrwt>
<rscale>  2 0.67949203E+02</rscale>
<asrwt>0</asrwt>
<pdfrwt beam="1">  1       21 0.24934677E-02 0.67949203E+02</pdfrwt>
<pdfrwt beam="2">  1       21 0.75510746E-01 0.67949203E+02</pdfrwt>
<totfact> 0.13290801E+06</totfact>
</mgrwt>
</event>
<event>
 5    1  0.1696945E+000  0.7512497E+02  0.7546771E-02  0.1343484E+00
         21   -1    0    0  501  502  0.00000000000E+00  0.00000000000E+00  0.12382742478E+03  0.12382742478E+03  0.00000000000E+00 0. -1.
         21   -1    0    0  502  503 -0.00000000000E+00 -0.00000000000E+00 -0.26665034833E+03  0.26665034833E+03  0.00000000000E+00 0.  1.
         24    1    1    2    0    0  0.19445134251E+02 -0.43608486449E+02 -0.68798394362E+02  0.11610447174E+03  0.80419002446E+02 0. -1.
          1    1    1    2  501    0  0.50802729238E+01  0.26102011961E+02  0.97069566871E+02  0.10064603824E+03  0.00000000000E+00 0. -1.
         -2    1    1    2    0  503 -0.24525407175E+02  0.17506474489E+02 -0.17109409607E+03  0.17372726313E+03  0.00000000000E+00 0.  1.
<mgrwt>
<rscale>  2 0.75124970E+02</rscale>
<asrwt>0</asrwt>
<pdfrwt beam="1">  1       21 0.19050373E-01 0.75124970E+02</pdfrwt>
<pdfrwt beam="2">  1       21 0.41023130E-01 0.75124970E+02</pdfrwt>
<totfact> 0.15067495E+05</totfact>
</mgrwt>
</event>
<event>
 5    1  0.1696945E+000  0.7380230E+02  0.7546771E-02  0.1347621E+00
         21   -1    0    0  501  502  0.00000000000E+00  0.00000000000E+00  0.10353443732E+03  0.10353443732E+03  0.00000000000E+00 0.  1.
         21   -1    0    0  502  503 -0.00000000000E+00 -0.00000000000E+00 -0.56932396291E+02  0.56932396291E+02  0.00000000000E+00 0. -1.
         24    1    1    2    0    0 -0.70773921360E+01  0.80720245842E+01  0.32556784653E+02  0.87420862737E+02  0.80419002446E+02 0.  1.
          1    1    1    2  501    0  0.31415323286E+02  0.13269239777E+02  0.20846552774E+02  0.39969663797E+02  0.00000000000E+00 0. -1.
         -2    1    1    2    0  503 -0.24337931150E+02 -0.21341264361E+02 -0.68012963977E+01  0.33076307078E+02  0.00000000000E+00 0.  1.
<mgrwt>
<rscale>  2 0.73802297E+02</rscale>
<asrwt>0</asrwt>
<pdfrwt beam="1">  1       21 0.15928375E-01 0.73802297E+02</pdfrwt>
<pdfrwt beam="2">  1       21 0.87588302E-02 0.73802297E+02</pdfrwt>
<totfact> 0.34577968E+06</totfact>
</mgrwt>
</event>
<event>
 5    1  0.1696945E+000  0.6606627E+02  0.7546771E-02  0.1374005E+00
         21   -1    0    0  501  502  0.00000000000E+00  0.00000000000E+00  0.32246603945E+02  0.32246603945E+02  0.00000000000E+00 0. -1.
         21   -1    0    0  502  503 -0.00000000000E+00 -0.00000000000E+00 -0.64371826994E+03  0.64371826994E+03  0.00000000000E+00 0.  1.
         24    1    1    2    0    0 -0.28098134384E+02  0.16601061008E+02 -0.21788742110E+03  0.23453623304E+03  0.80419002446E+02 0. -1.
          1    1    1    2  501    0  0.83883303820E+01 -0.23111263806E+02  0.17272941034E+02  0.30047447367E+02  0.00000000000E+00 0. -1.
         -2    1    1    2    0  503  0.19709804002E+02  0.65102027983E+01 -0.41085718593E+03  0.41138119348E+03  0.00000000000E+00 0.  1.
<mgrwt>
<rscale>  2 0.66066268E+02</rscale>
<asrwt>0</asrwt>
<pdfrwt beam="1">  1       21 0.49610166E-02 0.66066268E+02</pdfrwt>
<pdfrwt beam="2">  1       21 0.99033568E-01 0.66066268E+02</pdfrwt>
<totfact> 0.23808438E+05</totfact>
</mgrwt>
</event>
<event>
 5    1  0.1696945E+000  0.9027006E+02  0.7546771E-02  0.1302199E+00
         21   -1    0    0  501  502  0.00000000000E+00  0.00000000000E+00  0.11004053050E+02  0.11004053050E+02  0.00000000000E+00 0.  1.
         21   -1    0    0  502  503 -0.00000000000E+00 -0.00000000000E+00 -0.10666325384E+04  0.10666325384E+04  0.00000000000E+00 0.  1.
         24    1    1    2    0    0 -0.44919285426E+02  0.11827984878E+02 -0.71850116009E+03  0.72447827878E+03  0.80419002446E+02 0.  1.
          1    1    1    2  501    0 -0.20919650959E+02 -0.97334144784E+00 -0.19559568344E+02  0.28655817972E+02  0.00000000000E+00 0. -1.
         -2    1    1    2    0  503  0.65838936385E+02 -0.10854643430E+02 -0.31756775691E+03  0.32450249469E+03  0.00000000000E+00 0.  1.
<mgrwt>
<rscale>  2 0.90270062E+02</rscale>
<asrwt>0</asrwt>
<pdfrwt beam="1">  1       21 0.16929319E-02 0.90270062E+02</pdfrwt>
<pdfrwt beam="2">  1       21 0.16409725E+00 0.90270062E+02</pdfrwt>
<totfact> 0.39295368E+05</totfact>
</mgrwt>
</event>
<event>
 5    1  0.1696945E+000  0.1465766E+03  0.7546771E-02  0.1204744E+00
         21   -1    0    0  503  502  0.00000000000E+00  0.00000000000E+00  0.32922267216E+03  0.32922267216E+03  0.00000000000E+00 0.  1.
         21   -1    0    0  501  503 -0.00000000000E+00 -0.00000000000E+00 -0.11202098020E+03  0.11202098020E+03  0.00000000000E+00 0. -1.
         24    1    1    2    0    0  0.58178916419E+01  0.45298320813E+02  0.15597574572E+03  0.18133238801E+03  0.80419002446E+02 0.  0.
          1    1    1    2  501    0 -0.35113343141E+02 -0.11756251780E+03 -0.42764119076E+02  0.12993329957E+03  0.00000000000E+00 0. -1.
         -2    1    1    2    0  502  0.29295451499E+02  0.72264196982E+02  0.10399006531E+03  0.12997796478E+03  0.00000000000E+00 0.  1.
<mgrwt>
<rscale>  2 0.14657663E+03</rscale>
<asrwt>0</asrwt>
<pdfrwt beam="1">  1       21 0.50649641E-01 0.14657663E+03</pdfrwt>
<pdfrwt beam="2">  1       21 0.17233997E-01 0.14657663E+03</pdfrwt>
<totfact> 0.11475937E+05</totfact>
</mgrwt>
</event>
<event>
 5    1  0.1696945E+000  0.6549698E+02  0.7546771E-02  0.1376112E+00
         21   -1    0    0  501  502  0.00000000000E+00  0.00000000000E+00  0.19170196145E+03  0.19170196145E+03  0.00000000000E+00 0. -1.
         21   -1    0    0  502  503 -0.00000000000E+00 -0.00000000000E+00 -0.14148393018E+03  0.14148393018E+03  0.00000000000E+00 0.  1.
         24    1    1    2    0    0  0.82281214204E+01  0.13803000648E+01  0.35306625873E+02  0.88223471907E+02  0.80419002446E+02 0.  1.
          1    1    1    2  501    0 -0.27462666543E+02  0.81921283541E+01  0.12732689522E+03  0.13051224949E+03  0.00000000000E+00 0. -1.
         -2    1    1    2    0  503  0.19234545123E+02 -0.95724284189E+01 -0.11241548983E+03  0.11445017023E+03  0.00000000000E+00 0.  1.
<mgrwt>
<rscale>  2 0.65496985E+02</rscale>
<asrwt>0</asrwt>
<pdfrwt beam="1">  1       21 0.29492609E-01 0.65496985E+02</pdfrwt>
<pdfrwt beam="2">  1       21 0.21766759E-01 0.65496985E+02</pdfrwt>
<totfact> 0.22414311E+05</totfact>
</mgrwt>
</event>
<event>
 5    1  0.1696945E+000  0.1014364E+03  0.7546771E-02  0.1277304E+00
         21   -1    0    0  501  502  0.00000000000E+00  0.00000000000E+00  0.48396724974E+03  0.48396724974E+03  0.00000000000E+00 0.  1.
         21   -1    0    0  502  503 -0.00000000000E+00 -0.00000000000E+00 -0.25860925837E+02  0.25860925837E+02  0.00000000000E+00 0. -1.
         24    1    1    2    0    0  0.23339528538E+02 -0.49791169247E+02  0.18157612322E+03  0.20606066729E+03  0.80419002446E+02 0.  1.
          1    1    1    2  501    0 -0.41894028344E+02  0.67731622907E+02  0.26265717781E+03  0.27446580007E+03  0.00000000000E+00 0. -1.
         -2    1    1    2    0  503  0.18554499807E+02 -0.17940453660E+02  0.13873022871E+02  0.29301708213E+02  0.00000000000E+00 0.  1.
<mgrwt>
<rscale>  2 0.10143638E+03</rscale>
<asrwt>0</asrwt>
<pdfrwt beam="1">  1       21 0.74456493E-01 0.10143638E+03</pdfrwt>
<pdfrwt beam="2">  1       21 0.39786043E-02 0.10143638E+03</pdfrwt>
<totfact> 0.64468881E+05</totfact>
</mgrwt>
</event>
<event>
 5    1  0.1852185E+000  0.1529540E+03  0.7546771E-02  0.1196889E+00
         21   -1    0    0  501  502  0.00000000000E+00  0.00000000000E+00  0.84195991206E+03  0.84195991206E+03  0.00000000000E+00 0. -1.
         21   -1    0    0  502  503 -0.00000000000E+00 -0.00000000000E+00 -0.13362337240E+03  0.13362337240E+03  0.00000000000E+00 0.  1.
         24    1    1    2    0    0 -0.10330026367E+03  0.29612277047E+02  0.55854535943E+03  0.57444579024E+03  0.80419002446E+02 0.  0.
          1    1    1    2  501    0  0.95376799883E+01 -0.69240901713E+02  0.24922398233E+03  0.25883945445E+03  0.00000000000E+00 0. -1.
         -2    1    1    2    0  503  0.93762583678E+02  0.39628624665E+02 -0.99432802104E+02  0.14229803978E+03  0.00000000000E+00 0.  1.
<mgrwt>
<rscale>  2 0.15295401E+03</rscale>
<asrwt>0</asrwt>
<pdfrwt beam="1">  1       21 0.12953229E+00 0.15295401E+03</pdfrwt>
<pdfrwt beam="2">  1       21 0.20557442E-01 0.15295401E+03</pdfrwt>
<totfact> 0.98667509E+03</totfact>
</mgrwt>
</event>
<event>
 5    1  0.1696945E+000  0.8104502E+02  0.7546771E-02  0.1326112E+00
         21   -1    0    0  503  502  0.00000000000E+00  0.00000000000E+00  0.46888721956E+02  0.46888721956E+02  0.00000000000E+00 0. -1.
         21   -1    0    0  501  503 -0.00000000000E+00 -0.00000000000E+00 -0.14606551279E+03  0.14606551279E+03  0.00000000000E+00 0.  1.
         24    1    1    2    0    0  0.22212194910E+02  0.16493484161E+01 -0.33644424270E+02  0.89973691665E+02  0.80419002446E+02 0.  0.
          1    1    1    2  501    0  0.20820330623E+02  0.21374535998E+02 -0.17964808325E+02  0.34829460153E+02  0.00000000000E+00 0. -1.
         -2    1    1    2    0  502 -0.43032525533E+02 -0.23023884414E+02 -0.47567558235E+02  0.68151082924E+02  0.00000000000E+00 0.  1.
<mgrwt>
<rscale>  2 0.81045017E+02</rscale>
<asrwt>0</asrwt>
<pdfrwt beam="1">  1       21 0.72136497E-02 0.81045017E+02</pdfrwt>
<pdfrwt beam="2">  1       21 0.22471617E-01 0.81045017E+02</pdfrwt>
<totfact> 0.25902009E+06</totfact>
</mgrwt>
</event>
<event>
 5    1  0.1696945E+000  0.7121299E+02  0.7546771E-02  0.1356016E+00
         21   -1    0    0  501  502  0.00000000000E+00  0.00000000000E+00  0.14726171855E+04  0.14726171855E+04  0.00000000000E+00 0. -1.
         21   -1    0    0  502  503 -0.00000000000E+00 -0.00000000000E+00 -0.14107352184E+02  0.14107352184E+02  0.00000000000E+00 0.  1.
         24    1    1    2    0    0  0.31348442939E+02 -0.26838454634E+02  0.23998036485E+03  0.25643872366E+03  0.80419002446E+02 0.  0.
          1    1    1    2  501    0 -0.30783646870E+02  0.62142135560E+01  0.12054463819E+04  0.12058553931E+04  0.00000000000E+00 0. -1.
         -2    1    1    2    0  503 -0.56479606888E+00  0.20624241078E+02  0.13083086591E+02  0.24430420982E+02  0.00000000000E+00 0.  1.
<mgrwt>
<rscale>  2 0.71212990E+02</rscale>
<asrwt>0</asrwt>
<pdfrwt beam="1">  1       21 0.22655637E+00 0.71212990E+02</pdfrwt>
<pdfrwt beam="2">  1       21 0.21703630E-02 0.71212990E+02</pdfrwt>
<totfact> 0.10948979E+05</totfact>
</mgrwt>
</event>
<event>
 5    1  0.1696945E+000  0.7031704E+02  0.7546771E-02  0.1359018E+00
         21   -1    0    0  503  502  0.00000000000E+00  0.00000000000E+00  0.19379236762E+04  0.19379236762E+04  0.00000000000E+00 0.  1.
         21   -1    0    0  501  503 -0.00000000000E+00 -0.00000000000E+00 -0.10367188698E+02  0.10367188698E+02  0.00000000000E+00 0. -1.
         24    1    1    2    0    0  0.12281460863E+02 -0.26008186911E+02  0.74384016522E+03  0.74872736521E+03  0.80419002446E+02 0. -1.
          1    1    1    2  501    0 -0.24942698519E+02 -0.14550208895E+01  0.12465089059E+02  0.27921922220E+02  0.00000000000E+00 0. -1.
         -2    1    1    2    0  502  0.12661237655E+02  0.27463207800E+02  0.11712512332E+04  0.11716415774E+04  0.00000000000E+00 0.  1.
<mgrwt>
<rscale>  2 0.70317041E+02</rscale>
<asrwt>0</asrwt>
<pdfrwt beam="1">  1       21 0.29814182E+00 0.70317041E+02</pdfrwt>
<pdfrwt beam="2">  1       21 0.15949536E-02 0.70317041E+02</pdfrwt>
<totfact> 0.72497932E+04</totfact>
</mgrwt>
</event>
<event>
 5    1  0.1696945E+000  0.7270011E+02  0.7546771E-02  0.1351145E+00
         21   -1    0    0  501  502  0.00000000000E+00  0.00000000000E+00  0.47239182991E+03  0.47239182991E+03  0.00000000000E+00 0. -1.
         21   -1    0    0  502  503 -0.00000000000E+00 -0.00000000000E+00 -0.17050237407E+02  0.17050237407E+02  0.00000000000E+00 0.  1.
         24    1    1    2    0    0 -0.44202939465E+02  0.41540061520E+01  0.12686784055E+03  0.15663275693E+03  0.80419002446E+02 0.  0.
          1    1    1    2  501    0  0.24801431250E+02  0.12678317027E+02  0.17317279455E+03  0.17539859602E+03  0.00000000000E+00 0. -1.
         -2    1    1    2    0  503  0.19401508214E+02 -0.16832323179E+02  0.15530095741E+03  0.15741071436E+03  0.00000000000E+00 0.  1.
<mgrwt>
<rscale>  2 0.72700110E+02</rscale>
<asrwt>0</asrwt>
<pdfrwt beam="1">  1       21 0.72675656E-01 0.72700110E+02</pdfrwt>
<pdfrwt beam="2">  1       21 0.26231138E-02 0.72700110E+02</pdfrwt>
<totfact> 0.13336190E+06</totfact>
</mgrwt>
</event>
<event>
 5    1  0.1696945E+000  0.1199397E+03  0.7546771E-02  0.1243197E+00
         21   -1    0    0  503  502  0.00000000000E+00  0.00000000000E+00  0.80151041454E+02  0.80151041454E+02  0.00000000000E+00 0.  1.
         21   -1    0    0  501  503 -0.00000000000E+00 -0.00000000000E+00 -0.21459914856E+03  0.21459914856E+03  0.00000000000E+00 0.  1.
         24    1    1    2    0    0  0.59766563850E+02  0.87865368540E+02 -0.11520992799E+03  0.17616159798E+03  0.80419002446E+02 0.  1.
          1    1    1    2  501    0 -0.20328222694E+02 -0.37386641640E+02 -0.32033387374E+02  0.53264768071E+02  0.00000000000E+00 0. -1.
         -2    1    1    2    0  502 -0.39438341156E+02 -0.50478726900E+02  0.12795208254E+02  0.65323823961E+02  0.00000000000E+00 0.  1.
<mgrwt>
<rscale>  2 0.11993967E+03</rscale>
<asrwt>0</asrwt>
<pdfrwt beam="1">  1       21 0.12330929E-01 0.11993967E+03</pdfrwt>
<pdfrwt beam="2">  1       21 0.33015254E-01 0.11993967E+03</pdfrwt>
<totfact> 0.49804954E+05</totfact>
</mgrwt>
</event>
<event>
 5    1  0.1696945E+000  0.1024157E+03  0.7546771E-02  0.1275296E+00
         21   -1    0    0  503  502  0.00000000000E+00  0.00000000000E+00  0.23627508917E+03  0.23627508917E+03  0.00000000000E+00 0.  1.
         21   -1    0    0  501  503 -0.00000000000E+00 -0.00000000000E+00 -0.79400734261E+02  0.79400734261E+02  0.00000000000E+00 0. -1.
         24    1    1    2    0    0 -0.62316375292E+01  0.47219598477E+02  0.62651230344E+02  0.11252073766E+03  0.80419002446E+02 0. -1.
          1    1    1    2  501    0  0.48853208023E+02 -0.48344184294E+02 -0.27616570821E+02  0.74070716704E+02  0.00000000000E+00 0. -1.
         -2    1    1    2    0  502 -0.42621570494E+02  0.11245858165E+01  0.12183969539E+03  0.12908436907E+03  0.00000000000E+00 0.  1.
<mgrwt>
<rscale>  2 0.10241573E+03</rscale>
<asrwt>0</asrwt>
<pdfrwt beam="1">  1       21 0.36350013E-01 0.10241573E+03</pdfrwt>
<pdfrwt beam="2">  1       21 0.12215498E-01 0.10241573E+03</pdfrwt>
<totfact> 0.42020236E+05</totfact>
</mgrwt>
</event>
<event>
 5    1  0.1696945E+000  0.6980719E+02  0.7546771E-02  0.1360750E+00
         21   -1    0    0  503  502  0.00000000000E+00  0.00000000000E+00  0.34226574344E+02  0.34226574344E+02  0.00000000000E+00 0. -1.
         21   -1    0    0  501  503 -0.00000000000E+00 -0.00000000000E+00 -0.21624244294E+03  0.21624244294E+03  0.00000000000E+00 0. -1.
         24    1    1    2    0    0  0.39359466861E+01 -0.13565908485E+02 -0.41696458402E+02  0.91680620346E+02  0.80419002446E+02 0. -1.
          1    1    1    2  501    0 -0.30144608760E+02  0.74423862584E+01 -0.12282259321E+03  0.12668652633E+03  0.00000000000E+00 0. -1.
         -2    1    1    2    0  502  0.26208662074E+02  0.61235222267E+01 -0.17496816990E+02  0.32101870615E+02  0.00000000000E+00 0.  1.
<mgrwt>
<rscale>  2 0.69807191E+02</rscale>
<asrwt>0</asrwt>
<pdfrwt beam="1">  1       21 0.52656269E-02 0.69807191E+02</pdfrwt>
<pdfrwt beam="2">  1       21 0.33268068E-01 0.69807191E+02</pdfrwt>
<totfact> 0.20828335E+06</totfact>
</mgrwt>
</event>
<event>
 5    1  0.1696945E+000  0.9002379E+02  0.7546771E-02  0.1302794E+00
         21   -1    0    0  501  502  0.00000000000E+00  0.00000000000E+00  0.77615343382E+03  0.77615343382E+03  0.00000000000E+00 0.  1.
         21   -1    0    0  502  503 -0.00000000000E+00 -0.00000000000E+00 -0.18206095489E+02  0.18206095489E+02  0.00000000000E+00 0. -1.
         24    1    1    2    0    0  0.25423942965E+02 -0.23541623100E+02  0.11817115174E+03  0.14707896502E+03  0.80419002446E+02 0. -1.
          1    1    1    2  501    0 -0.56215066155E+02  0.47641903840E+01  0.48935389282E+03  0.49259523302E+03  0.00000000000E+00 0. -1.
         -2    1    1    2    0  503  0.30791123190E+02  0.18777432716E+02  0.15042229377E+03  0.15468533127E+03  0.00000000000E+00 0.  1.
<mgrwt>
<rscale>  2 0.90023790E+02</rscale>
<asrwt>0</asrwt>
<pdfrwt beam="1">  1       21 0.11940820E+00 0.90023790E+02</pdfrwt>
<pdfrwt beam="2">  1       21 0.28009384E-02 0.90023790E+02</pdfrwt>
<totfact> 0.38861315E+05</totfact>
</mgrwt>
</event>
<event>
 5    1  0.1696945E+000  0.2212621E+03  0.7546771E-02  0.1132946E+00
         21   -1    0    0  503  502  0.00000000000E+00  0.00000000000E+00  0.37934212368E+03  0.37934212368E+03  0.00000000000E+00 0. -1.
         21   -1    0    0  501  503 -0.00000000000E+00 -0.00000000000E+00 -0.18670631188E+03  0.18670631188E+03  0.00000000000E+00 0.  1.
         24    1    1    2    0    0 -0.17165671748E+03 -0.89611798698E+02 -0.61734430941E+02  0.21857414998E+03  0.80419002446E+02 0.  1.
          1    1    1    2  501    0  0.17160674964E+03  0.11556791146E+03  0.20265037723E+03  0.28960661953E+03  0.00000000000E+00 0. -1.
         -2    1    1    2    0  502  0.49967840448E-01 -0.25956112765E+02  0.51719865504E+02  0.57867666053E+02  0.00000000000E+00 0.  1.
<mgrwt>
<rscale>  2 0.22126210E+03</rscale>
<asrwt>0</asrwt>
<pdfrwt beam="1">  1       21 0.58360326E-01 0.22126210E+03</pdfrwt>
<pdfrwt beam="2">  1       21 0.28724048E-01 0.22126210E+03</pdfrwt>
<totfact> 0.31405691E+04</totfact>
</mgrwt>
</event>
<event>
 5    1  0.1696945E+000  0.7299006E+02  0.7546771E-02  0.1350211E+00
         21   -1    0    0  501  502  0.00000000000E+00  0.00000000000E+00  0.92597223397E+01  0.92597223397E+01  0.00000000000E+00 0. -1.
         21   -1    0    0  502  503 -0.00000000000E+00 -0.00000000000E+00 -0.14172076026E+04  0.14172076026E+04  0.00000000000E+00 0.  1.
         24    1    1    2    0    0 -0.82222424772E+01 -0.59557476167E+01 -0.11398944712E+04  0.11427728111E+04  0.80419002446E+02 0.  1.
          1    1    1    2  501    0 -0.29873900935E+01 -0.28517123956E+02 -0.25268724878E+02  0.38218572909E+02  0.00000000000E+00 0. -1.
         -2    1    1    2    0  503  0.11209632571E+02  0.34472871572E+02 -0.24278468417E+03  0.24547594099E+03  0.00000000000E+00 0.  1.
<mgrwt>
<rscale>  2 0.72990064E+02</rscale>
<asrwt>0</asrwt>
<pdfrwt beam="1">  1       21 0.14245716E-02 0.72990064E+02</pdfrwt>
<pdfrwt beam="2">  1       21 0.21803210E+00 0.72990064E+02</pdfrwt>
<totfact> 0.23825031E+05</totfact>
</mgrwt>
</event>
<event>
 5    1  0.1696945E+000  0.7170444E+02  0.7546771E-02  0.1354391E+00
         21   -1    0    0  501  502  0.00000000000E+00  0.00000000000E+00  0.50508869440E+03  0.50508869440E+03  0.00000000000E+00 0. -1.
         21   -1    0    0  502  503 -0.00000000000E+00 -0.00000000000E+00 -0.19758203605E+02  0.19758203605E+02  0.00000000000E+00 0. -1.
         24    1    1    2    0    0  0.76507584808E+01 -0.20942163877E+02  0.88593167957E+02  0.12170897131E+03  0.80419002446E+02 0. -1.
          1    1    1    2  501    0 -0.31856375582E+02  0.13817827738E+02  0.32945500316E+03  0.33127988187E+03  0.00000000000E+00 0. -1.
         -2    1    1    2    0  503  0.24205617101E+02  0.71243361391E+01  0.67282319678E+02  0.71858044824E+02  0.00000000000E+00 0.  1.
<mgrwt>
<rscale>  2 0.71704440E+02</rscale>
<asrwt>0</asrwt>
<pdfrwt beam="1">  1       21 0.77705943E-01 0.71704440E+02</pdfrwt>
<pdfrwt beam="2">  1       21 0.30397240E-02 0.71704440E+02</pdfrwt>
<totfact> 0.90923232E+05</totfact>
</mgrwt>
</event>
<event>
 5    1  0.1696945E+000  0.6547826E+02  0.7546771E-02  0.1376181E+00
         21   -1    0    0  503  502  0.00000000000E+00  0.00000000000E+00  0.68288736683E+02  0.68288736683E+02  0.00000000000E+00 0.  1.
         21   -1    0    0  501  503 -0.00000000000E+00 -0.00000000000E+00 -0.10985551642E+03  0.10985551642E+03  0.00000000000E+00 0. -1.
         24    1    1    2    0    0 -0.86331635079E+01 -0.58573761452E+01 -0.12269823534E+02  0.82015881946E+02  0.80419002446E+02 0.  1.
          1    1    1    2  501    0 -0.37700409670E+01 -0.20441715754E+02 -0.54070748102E+02  0.57928600468E+02  0.00000000000E+00 0. -1.
         -2    1    1    2    0  502  0.12403204475E+02  0.26299091900E+02  0.24773791896E+02  0.38199770691E+02  0.00000000000E+00 0.  1.
<mgrwt>
<rscale>  2 0.65478258E+02</rscale>
<asrwt>0</asrwt>
<pdfrwt beam="1">  1       21 0.10505960E-01 0.65478258E+02</pdfrwt>
<pdfrwt beam="2">  1       21 0.16900849E-01 0.65478258E+02</pdfrwt>
<totfact> 0.22606821E+06</totfact>
</mgrwt>
</event>
<event>
 5    1  0.1696945E+000  0.1285059E+03  0.7546771E-02  0.1229690E+00
         21   -1    0    0  501  502  0.00000000000E+00  0.00000000000E+00  0.11351960629E+04  0.11351960629E+04  0.00000000000E+00 0. -1.
         21   -1    0    0  502  503 -0.00000000000E+00 -0.00000000000E+00 -0.32946807646E+02  0.32946807646E+02  0.00000000000E+00 0.  1.
         24    1    1    2    0    0  0.29238851474E+01 -0.84601344807E+02  0.93544352714E+03  0.94270236293E+03  0.80419002446E+02 0. -1.
          1    1    1    2  501    0 -0.45530644720E+02  0.86338845796E+02  0.15132722141E+03  0.18007599463E+03  0.00000000000E+00 0. -1.
         -2    1    1    2    0  503  0.42606759573E+02 -0.17375009899E+01  0.15478506740E+02  0.45364513024E+02  0.00000000000E+00 0.  1.
<mgrwt>
<rscale>  2 0.12850592E+03</rscale>
<asrwt>0</asrwt>
<pdfrwt beam="1">  1       21 0.17464552E+00 0.12850592E+03</pdfrwt>
<pdfrwt beam="2">  1       21 0.50687405E-02 0.12850592E+03</pdfrwt>
<totfact> 0.54250133E+04</totfact>
</mgrwt>
</event>
<event>
 5    1  0.1696945E+000  0.1169343E+03  0.7546771E-02  0.1248242E+00
         21   -1    0    0  503  502  0.00000000000E+00  0.00000000000E+00  0.20417152721E+03  0.20417152721E+03  0.00000000000E+00 0.  1.
         21   -1    0    0  501  503 -0.00000000000E+00 -0.00000000000E+00 -0.14496804304E+03  0.14496804304E+03  0.00000000000E+00 0. -1.
         24    1    1    2    0    0  0.30400942070E+02 -0.37884685559E+02  0.98748769559E+02  0.13630114498E+03  0.80419002446E+02 0.  0.
          1    1    1    2  501    0 -0.71826044236E+02  0.59430032632E+02 -0.99826866454E+02  0.13658811323E+03  0.00000000000E+00 0. -1.
         -2    1    1    2    0  502  0.41425102166E+02 -0.21545347073E+02  0.60281581067E+02  0.76250312038E+02  0.00000000000E+00 0.  1.
<mgrwt>
<rscale>  2 0.11693426E+03</rscale>
<asrwt>0</asrwt>
<pdfrwt beam="1">  1       21 0.31411004E-01 0.11693426E+03</pdfrwt>
<pdfrwt beam="2">  1       21 0.22302776E-01 0.11693426E+03</pdfrwt>
<totfact> 0.18722405E+05</totfact>
</mgrwt>
</event>
<event>
 5    1  0.1696945E+000  0.7200724E+02  0.7546771E-02  0.1353397E+00
         21   -1    0    0  503  502  0.00000000000E+00  0.00000000000E+00  0.74410622704E+03  0.74410622704E+03  0.00000000000E+00 0.  1.
         21   -1    0    0  501  503 -0.00000000000E+00 -0.00000000000E+00 -0.38630800269E+02  0.38630800269E+02  0.00000000000E+00 0.  1.
         24    1    1    2    0    0 -0.38500835879E+02  0.29833567972E+01  0.81554416392E+02  0.12086998622E+03  0.80419002446E+02 0.  1.
          1    1    1    2  501    0  0.19832428382E+02  0.17954699154E+02 -0.90749570183E+01  0.28249801453E+02  0.00000000000E+00 0. -1.
         -2    1    1    2    0  502  0.18668407497E+02 -0.20938055951E+02  0.63299596739E+03  0.63361723963E+03  0.00000000000E+00 0.  1.
<mgrwt>
<rscale>  2 0.72007243E+02</rscale>
<asrwt>0</asrwt>
<pdfrwt beam="1">  1       21 0.11447787E+00 0.72007243E+02</pdfrwt>
<pdfrwt beam="2">  1       21 0.59432006E-02 0.72007243E+02</pdfrwt>
<totfact> 0.12567083E+05</totfact>
</mgrwt>
</event>
<event>
 5    1  0.1696945E+000  0.1388576E+03  0.7546771E-02  0.1214874E+00
         21   -1    0    0  503  502  0.00000000000E+00  0.00000000000E+00  0.25134504244E+03  0.25134504244E+03  0.00000000000E+00 0.  1.
         21   -1    0    0  501  503 -0.00000000000E+00 -0.00000000000E+00 -0.10462061072E+03  0.10462061072E+03  0.00000000000E+00 0. -1.
         24    1    1    2    0    0  0.83084552236E+02  0.25764614839E+00  0.79053483251E+02  0.14007061923E+03  0.80419002446E+02 0. -1.
          1    1    1    2  501    0 -0.42114121039E+02  0.69454387481E+02 -0.32216661920E+02  0.87380915745E+02  0.00000000000E+00 0. -1.
         -2    1    1    2    0  502 -0.40970431197E+02 -0.69712033629E+02  0.99887610387E+02  0.12851411819E+03  0.00000000000E+00 0.  1.
<mgrwt>
<rscale>  2 0.13885761E+03</rscale>
<asrwt>0</asrwt>
<pdfrwt beam="1">  1       21 0.38668468E-01 0.13885761E+03</pdfrwt>
<pdfrwt beam="2">  1       21 0.16095479E-01 0.13885761E+03</pdfrwt>
<totfact> 0.22553596E+05</totfact>
</mgrwt>
</event>
<event>
 5    1  0.1696945E+000  0.6573549E+02  0.7546771E-02  0.1375226E+00
         21   -1    0    0  501  502  0.00000000000E+00  0.00000000000E+00  0.25560459038E+02  0.25560459038E+02  0.00000000000E+00 0. -1.
         21   -1    0    0  502  503 -0.00000000000E+00 -0.00000000000E+00 -0.15428109578E+04  0.15428109578E+04  0.00000000000E+00 0. -1.
         24    1    1    2    0    0  0.72330845419E+01 -0.57521969621E+01 -0.11060191288E+04  0.11089774274E+04  0.80419002446E+02 0. -1.
          1    1    1    2  501    0  0.13290834518E+02 -0.15877021784E+02  0.19017064066E+02  0.28113605755E+02  0.00000000000E+00 0. -1.
         -2    1    1    2    0  503 -0.20523919060E+02  0.21629218746E+02 -0.43024843403E+03  0.43128038368E+03  0.00000000000E+00 0.  1.
<mgrwt>
<rscale>  2 0.65735490E+02</rscale>
<asrwt>0</asrwt>
<pdfrwt beam="1">  1       21 0.39323778E-02 0.65735490E+02</pdfrwt>
<pdfrwt beam="2">  1       21 0.23735556E+00 0.65735490E+02</pdfrwt>
<totfact> 0.36836089E+04</totfact>
</mgrwt>
</event>
<event>
 5    1  0.1696945E+000  0.8137809E+02  0.7546771E-02  0.1325185E+00
         21   -1    0    0  501  502  0.00000000000E+00  0.00000000000E+00  0.24872461684E+02  0.24872461684E+02  0.00000000000E+00 0. -1.
         21   -1    0    0  502  503 -0.00000000000E+00 -0.00000000000E+00 -0.53660105240E+03  0.53660105240E+03  0.00000000000E+00 0.  1.
         24    1    1    2    0    0  0.56302160282E+02 -0.21431804169E+02 -0.41355416099E+03  0.42558608472E+03  0.80419002446E+02 0.  1.
          1    1    1    2  501    0 -0.31904550345E+02  0.37084164427E+01  0.10957802123E+01  0.32138036958E+02  0.00000000000E+00 0. -1.
         -2    1    1    2    0  503 -0.24397609937E+02  0.17723387726E+02 -0.99270209935E+02  0.10374939240E+03  0.00000000000E+00 0.  1.
<mgrwt>
<rscale>  2 0.81378089E+02</rscale>
<asrwt>0</asrwt>
<pdfrwt beam="1">  1       21 0.38265324E-02 0.81378089E+02</pdfrwt>
<pdfrwt beam="2">  1       21 0.82554012E-01 0.81378089E+02</pdfrwt>
<totfact> 0.54783425E+05</totfact>
</mgrwt>
</event>
<event>
 5    1  0.1696945E+000  0.7137813E+02  0.7546771E-02  0.1355468E+00
         21   -1    0    0  501  502  0.00000000000E+00  0.00000000000E+00  0.23041960551E+03  0.23041960551E+03  0.00000000000E+00 0. -1.
         21   -1    0    0  502  503 -0.00000000000E+00 -0.00000000000E+00 -0.14692016135E+03  0.14692016135E+03  0.00000000000E+00 0.  1.
         24    1    1    2    0    0  0.43025304158E+02  0.13932426693E+01  0.31351268256E+02  0.96453283503E+02  0.80419002446E+02 0.  0.
          1    1    1    2  501    0 -0.16900044801E+02 -0.14539752405E+02  0.16388045143E+03  0.16538989774E+03  0.00000000000E+00 0. -1.
         -2    1    1    2    0  503 -0.26125259357E+02  0.13146509735E+02 -0.11173227552E+03  0.11549658561E+03  0.00000000000E+00 0.  1.
<mgrwt>
<rscale>  2 0.71378127E+02</rscale>
<asrwt>0</asrwt>
<pdfrwt beam="1">  1       21 0.35449170E-01 0.71378127E+02</pdfrwt>
<pdfrwt beam="2">  1       21 0.22603102E-01 0.71378127E+02</pdfrwt>
<totfact> 0.14689801E+05</totfact>
</mgrwt>
</event>
<event>
 5    1  0.1696945E+000  0.8613237E+02  0.7546771E-02  0.1312498E+00
         21   -1    0    0  501  502  0.00000000000E+00  0.00000000000E+00  0.31126338434E+03  0.31126338434E+03  0.00000000000E+00 0.  1.
         21   -1    0    0  502  503 -0.00000000000E+00 -0.00000000000E+00 -0.47445856769E+02  0.47445856769E+02  0.00000000000E+00 0. -1.
         24    1    1    2    0    0 -0.35880231429E+02 -0.22814627245E+02  0.23165719802E+03  0.24887782459E+03  0.80419002446E+02 0.  1.
          1    1    1    2  501    0  0.12875504283E+02 -0.25064469457E+02  0.46892352355E+02  0.54707393916E+02  0.00000000000E+00 0. -1.
         -2    1    1    2    0  503  0.23004727147E+02  0.47879096702E+02 -0.14732022804E+02  0.55124022604E+02  0.00000000000E+00 0.  1.
<mgrwt>
<rscale>  2 0.86132372E+02</rscale>
<asrwt>0</asrwt>
<pdfrwt beam="1">  1       21 0.47886673E-01 0.86132372E+02</pdfrwt>
<pdfrwt beam="2">  1       21 0.72993628E-02 0.86132372E+02</pdfrwt>
<totfact> 0.59109525E+05</totfact>
</mgrwt>
</event>
<event>
 5    1  0.1696945E+000  0.9588839E+02  0.7546771E-02  0.1289188E+00
         21   -1    0    0  503  502  0.00000000000E+00  0.00000000000E+00  0.55177896601E+03  0.55177896601E+03  0.00000000000E+00 0. -1.
         21   -1    0    0  501  503 -0.00000000000E+00 -0.00000000000E+00 -0.17988760656E+02  0.17988760656E+02  0.00000000000E+00 0. -1.
         24    1    1    2    0    0  0.61799121093E+02  0.30294660294E+02  0.21564226397E+03  0.24022010693E+03  0.80419002446E+02 0. -1.
          1    1    1    2  501    0 -0.58413520034E+02 -0.30712812255E+01  0.21632199859E+03  0.22409100644E+03  0.00000000000E+00 0. -1.
         -2    1    1    2    0  502 -0.33856010585E+01 -0.27223379069E+02  0.10182594280E+03  0.10545661330E+03  0.00000000000E+00 0.  1.
<mgrwt>
<rscale>  2 0.95888393E+02</rscale>
<asrwt>0</asrwt>
<pdfrwt beam="1">  1       21 0.84889059E-01 0.95888393E+02</pdfrwt>
<pdfrwt beam="2">  1       21 0.27675020E-02 0.95888393E+02</pdfrwt>
<totfact> 0.87346555E+05</totfact>
</mgrwt>
</event>
<event>
 5    1  0.1696945E+000  0.9433705E+02  0.7546771E-02  0.1292676E+00
         21   -1    0    0  501  502  0.00000000000E+00  0.00000000000E+00  0.86825105301E+03  0.86825105301E+03  0.00000000000E+00 0.  1.
         21   -1    0    0  502  503 -0.00000000000E+00 -0.00000000000E+00 -0.14551819486E+02  0.14551819486E+02  0.00000000000E+00 0. -1.
         24    1    1    2    0    0  0.10084926735E+02 -0.30130726309E+02  0.50909288959E+03  0.51638391978E+03  0.80419002446E+02 0.  1.
          1    1    1    2  501    0 -0.46760132814E+02 -0.10024599767E+02  0.26938982674E+03  0.27360168379E+03  0.00000000000E+00 0. -1.
         -2    1    1    2    0  503  0.36675206078E+02  0.40155326076E+02  0.75216517187E+02  0.92817268926E+02  0.00000000000E+00 0.  1.
<mgrwt>
<rscale>  2 0.94337050E+02</rscale>
<asrwt>0</asrwt>
<pdfrwt beam="1">  1       21 0.13357704E+00 0.94337050E+02</pdfrwt>
<pdfrwt beam="2">  1       21 0.22387421E-02 0.94337050E+02</pdfrwt>
<totfact> 0.42394000E+05</totfact>
</mgrwt>
</event>
<event>
 5    1  0.1696945E+000  0.1384216E+03  0.7546771E-02  0.1215469E+00
         21   -1    0    0  501  502  0.00000000000E+00  0.00000000000E+00  0.69307801620E+02  0.69307801620E+02  0.00000000000E+00 0. -1.
         21   -1    0    0  502  503 -0.00000000000E+00 -0.00000000000E+00 -0.41600911059E+03  0.41600911059E+03  0.00000000000E+00 0.  1.
         24    1    1    2    0    0  0.48111148296E+02  0.30985538789E+01 -0.39720167509E+02  0.10182922610E+03  0.80419002446E+02 0. -1.
          1    1    1    2  501    0 -0.91203538883E+01 -0.88620894816E+02 -0.34989285824E+02  0.95713603921E+02  0.00000000000E+00 0. -1.
         -2    1    1    2    0  503 -0.38990794407E+02  0.85522340937E+02 -0.27199185563E+03  0.28777408219E+03  0.00000000000E+00 0.  1.
<mgrwt>
<rscale>  2 0.13842160E+03</rscale>
<asrwt>0</asrwt>
<pdfrwt beam="1">  1       21 0.10662739E-01 0.13842160E+03</pdfrwt>
<pdfrwt beam="2">  1       21 0.64001401E-01 0.13842160E+03</pdfrwt>
<totfact> 0.16609238E+05</totfact>
</mgrwt>
</event>
<event>
 5    1  0.1696945E+000  0.1680993E+03  0.7546771E-02  0.1179845E+00
         21   -1    0    0  501  502  0.00000000000E+00  0.00000000000E+00  0.55344609725E+03  0.55344609725E+03  0.00000000000E+00 0.  1.
         21   -1    0    0  502  503 -0.00000000000E+00 -0.00000000000E+00 -0.10360932385E+03  0.10360932385E+03  0.00000000000E+00 0.  1.
         24    1    1    2    0    0  0.91321980125E+02 -0.75378254997E+02  0.30283036479E+03  0.33495526742E+03  0.80419002446E+02 0.  1.
          1    1    1    2  501    0 -0.62023014215E+02 -0.40143141592E+02  0.18320846985E+03  0.19754409516E+03  0.00000000000E+00 0. -1.
         -2    1    1    2    0  503 -0.29298965910E+02  0.11552139659E+03 -0.36202061247E+02  0.12455605851E+03  0.00000000000E+00 0.  1.
<mgrwt>
<rscale>  2 0.16809927E+03</rscale>
<asrwt>0</asrwt>
<pdfrwt beam="1">  1       21 0.85145552E-01 0.16809927E+03</pdfrwt>
<pdfrwt beam="2">  1       21 0.15939896E-01 0.16809927E+03</pdfrwt>
<totfact> 0.42447053E+04</totfact>
</mgrwt>
</event>
<event>
 5    1  0.1696945E+000  0.1587302E+03  0.7546771E-02  0.1190138E+00
         21   -1    0    0  501  502  0.00000000000E+00  0.00000000000E+00  0.20725196461E+02  0.20725196461E+02  0.00000000000E+00 0.  1.
         21   -1    0    0  502  503 -0.00000000000E+00 -0.00000000000E+00 -0.18040775859E+04  0.18040775859E+04  0.00000000000E+00 0.  1.
         24    1    1    2    0    0 -0.14141761738E+03 -0.44401576094E+02 -0.10921970679E+04  0.11051389476E+04  0.80419002446E+02 0.  1.
          1    1    1    2  501    0  0.31797542164E+02  0.15949085992E+02 -0.23878275737E+02  0.42844242132E+02  0.00000000000E+00 0. -1.
         -2    1    1    2    0  503  0.10962007522E+03  0.28452490102E+02 -0.66727704580E+03  0.67681959261E+03  0.00000000000E+00 0.  1.
<mgrwt>
<rscale>  2 0.15873017E+03</rscale>
<asrwt>0</asrwt>
<pdfrwt beam="1">  1       21 0.31884912E-02 0.15873017E+03</pdfrwt>
<pdfrwt beam="2">  1       21 0.27755045E+00 0.15873017E+03</pdfrwt>
<totfact> 0.27178112E+04</totfact>
</mgrwt>
</event>
<event>
 5    1  0.1982721E+000  0.8631558E+02  0.7546771E-02  0.1312028E+00
         21   -1    0    0  503  502  0.00000000000E+00  0.00000000000E+00  0.54648428978E+02  0.54648428978E+02  0.00000000000E+00 0.  1.
         21   -1    0    0  501  503 -0.00000000000E+00 -0.00000000000E+00 -0.81297540134E+03  0.81297540134E+03  0.00000000000E+00 0. -1.
         24    1    1    2    0    0 -0.14337978968E+02  0.18899289191E+02 -0.39139758355E+02  0.92530521512E+02  0.80419002446E+02 0.  0.
          1    1    1    2  501    0 -0.25451040317E+02  0.20583011041E+02 -0.71828694616E+03  0.71903237259E+03  0.00000000000E+00 0. -1.
         -2    1    1    2    0  502  0.39789019285E+02 -0.39482300232E+02 -0.90026783874E+00  0.56060936216E+02  0.00000000000E+00 0.  1.
<mgrwt>
<rscale>  2 0.86315576E+02</rscale>
<asrwt>0</asrwt>
<pdfrwt beam="1">  1       21 0.84074506E-02 0.86315576E+02</pdfrwt>
<pdfrwt beam="2">  1       21 0.12507314E+00 0.86315576E+02</pdfrwt>
<totfact> 0.55983437E+04</totfact>
</mgrwt>
</event>
<event>
 5    1  0.1696945E+000  0.7127910E+02  0.7546771E-02  0.1355797E+00
         21   -1    0    0  501  502  0.00000000000E+00  0.00000000000E+00  0.20746872020E+02  0.20746872020E+02  0.00000000000E+00 0. -1.
         21   -1    0    0  502  503 -0.00000000000E+00 -0.00000000000E+00 -0.26689656368E+03  0.26689656368E+03  0.00000000000E+00 0.  1.
         24    1    1    2    0    0  0.39043874996E+01 -0.26274586315E+00 -0.12395787787E+03  0.14781097631E+03  0.80419002446E+02 0. -1.
          1    1    1    2  501    0  0.16686947023E+02 -0.24622474778E+02 -0.30432131786E+02  0.42553908283E+02  0.00000000000E+00 0. -1.
         -2    1    1    2    0  503 -0.20591334523E+02  0.24885220642E+02 -0.91759682008E+02  0.97278551110E+02  0.00000000000E+00 0.  1.
<mgrwt>
<rscale>  2 0.71279105E+02</rscale>
<asrwt>0</asrwt>
<pdfrwt beam="1">  1       21 0.31918263E-02 0.71279105E+02</pdfrwt>
<pdfrwt beam="2">  1       21 0.41061011E-01 0.71279105E+02</pdfrwt>
<totfact> 0.31441836E+06</totfact>
</mgrwt>
</event>
<event>
 5    1  0.1696945E+000  0.1031548E+03  0.7546771E-02  0.1273798E+00
         21   -1    0    0  501  502  0.00000000000E+00  0.00000000000E+00  0.51082694195E+03  0.51082694195E+03  0.00000000000E+00 0. -1.
         21   -1    0    0  502  503 -0.00000000000E+00 -0.00000000000E+00 -0.35347331753E+02  0.35347331753E+02  0.00000000000E+00 0.  1.
         24    1    1    2    0    0 -0.18875500168E+01 -0.33260670840E+02  0.17782630073E+03  0.19798799018E+03  0.80419002446E+02 0.  0.
          1    1    1    2  501    0 -0.12207276995E+02  0.74597395143E+02  0.29489154963E+03  0.30442538497E+03  0.00000000000E+00 0. -1.
         -2    1    1    2    0  503  0.14094827012E+02 -0.41336724304E+02  0.27617598414E+01  0.43760898552E+02  0.00000000000E+00 0.  1.
<mgrwt>
<rscale>  2 0.10315477E+03</rscale>
<asrwt>0</asrwt>
<pdfrwt beam="1">  1       21 0.78588755E-01 0.10315477E+03</pdfrwt>
<pdfrwt beam="2">  1       21 0.54380514E-02 0.10315477E+03</pdfrwt>
<totfact> 0.34029596E+05</totfact>
</mgrwt>
</event>
<event>
 5    1  0.1696945E+000  0.1010193E+03  0.7546771E-02  0.1278167E+00
         21   -1    0    0  501  502  0.00000000000E+00  0.00000000000E+00  0.72321827630E+02  0.72321827630E+02  0.00000000000E+00 0. -1.
         21   -1    0    0  502  503 -0.00000000000E+00 -0.00000000000E+00 -0.19370361206E+03  0.19370361206E+03  0.00000000000E+00 0. -1.
         24    1    1    2    0    0 -0.47424569162E+02  0.70509036510E+02 -0.45404210171E+02  0.12549650292E+03  0.80419002446E+02 0. -1.
          1    1    1    2  501    0  0.33842686515E+02 -0.53017141547E+02 -0.15933503748E+01  0.62918069692E+02  0.00000000000E+00 0. -1.
         -2    1    1    2    0  503  0.13581882646E+02 -0.17491894964E+02 -0.74384223884E+02  0.77610867077E+02  0.00000000000E+00 0.  1.
<mgrwt>
<rscale>  2 0.10101932E+03</rscale>
<asrwt>0</asrwt>
<pdfrwt beam="1">  1       21 0.11126435E-01 0.10101932E+03</pdfrwt>
<pdfrwt beam="2">  1       21 0.29800556E-01 0.10101932E+03</pdfrwt>
<totfact> 0.72753563E+05</totfact>
</mgrwt>
</event>
<event>
 5    1  0.1696945E+000  0.6737083E+02  0.7546771E-02  0.1369269E+00
         21   -1    0    0  501  502  0.00000000000E+00  0.00000000000E+00  0.88384533878E+02  0.88384533878E+02  0.00000000000E+00 0. -1.
         21   -1    0    0  502  503 -0.00000000000E+00 -0.00000000000E+00 -0.11474751226E+03  0.11474751226E+03  0.00000000000E+00 0. -1.
         24    1    1    2    0    0 -0.38137893375E+02 -0.84271857228E+01 -0.69624701148E+02  0.11331518581E+03  0.80419002446E+02 0. -1.
          1    1    1    2  501    0  0.20502389936E+02 -0.72467732226E+01  0.58037749075E+02  0.61977770474E+02  0.00000000000E+00 0. -1.
         -2    1    1    2    0  503  0.17635503438E+02  0.15673958945E+02 -0.14776026311E+02  0.27839089857E+02  0.00000000000E+00 0.  1.
<mgrwt>
<rscale>  2 0.67370832E+02</rscale>
<asrwt>0</asrwt>
<pdfrwt beam="1">  1       21 0.13597621E-01 0.67370832E+02</pdfrwt>
<pdfrwt beam="2">  1       21 0.17653463E-01 0.67370832E+02</pdfrwt>
<totfact> 0.13370934E+06</totfact>
</mgrwt>
</event>
<event>
 5    1  0.2638990E+000  0.8705009E+02  0.7546771E-02  0.1310157E+00
         21   -1    0    0  503  502  0.00000000000E+00  0.00000000000E+00  0.15774857725E+03  0.15774857725E+03  0.00000000000E+00 0. -1.
         21   -1    0    0  501  503 -0.00000000000E+00 -0.00000000000E+00 -0.31822126553E+03  0.31822126553E+03  0.00000000000E+00 0. -1.
         24    1    1    2    0    0  0.33378524901E+01  0.24428497402E+02  0.10947070747E+03  0.13805413609E+03  0.80419002446E+02 0. -1.
          1    1    1    2  501    0  0.40904245414E+02 -0.35282745802E+01 -0.28404264654E+03  0.28699447916E+03  0.00000000000E+00 0. -1.
         -2    1    1    2    0  502 -0.44242097904E+02 -0.20900222822E+02  0.14099250785E+02  0.50921227535E+02  0.00000000000E+00 0.  1.
<mgrwt>
<rscale>  2 0.87050091E+02</rscale>
<asrwt>0</asrwt>
<pdfrwt beam="1">  1       21 0.24269012E-01 0.87050091E+02</pdfrwt>
<pdfrwt beam="2">  1       21 0.48957118E-01 0.87050091E+02</pdfrwt>
<totfact> 0.67304198E+04</totfact>
</mgrwt>
</event>
<event>
 5    1  0.1696945E+000  0.1282152E+03  0.7546771E-02  0.1230128E+00
         21   -1    0    0  501  502  0.00000000000E+00  0.00000000000E+00  0.10757112363E+03  0.10757112363E+03  0.00000000000E+00 0.  1.
         21   -1    0    0  502  503 -0.00000000000E+00 -0.00000000000E+00 -0.16448713741E+03  0.16448713741E+03  0.00000000000E+00 0. -1.
         24    1    1    2    0    0 -0.51044532901E+02  0.66607634210E+02 -0.98611428617E+01  0.11664724329E+03  0.80419002446E+02 0.  0.
          1    1    1    2  501    0 -0.99058096204E+01 -0.77631945300E+02 -0.10716732769E+01  0.78268719671E+02  0.00000000000E+00 0. -1.
         -2    1    1    2    0  503  0.60950342521E+02  0.11024311090E+02 -0.45983197636E+02  0.77142298082E+02  0.00000000000E+00 0.  1.
<mgrwt>
<rscale>  2 0.12821519E+03</rscale>
<asrwt>0</asrwt>
<pdfrwt beam="1">  1       21 0.16549404E-01 0.12821519E+03</pdfrwt>
<pdfrwt beam="2">  1       21 0.25305714E-01 0.12821519E+03</pdfrwt>
<totfact> 0.48907809E+05</totfact>
</mgrwt>
</event>
<event>
 5    1  0.1696945E+000  0.7150601E+02  0.7546771E-02  0.1355045E+00
         21   -1    0    0  501  502  0.00000000000E+00  0.00000000000E+00  0.28626324245E+03  0.28626324245E+03  0.00000000000E+00 0. -1.
         21   -1    0    0  502  503 -0.00000000000E+00 -0.00000000000E+00 -0.24733631860E+02  0.24733631860E+02  0.00000000000E+00 0.  1.
         24    1    1    2    0    0  0.82576118725E+01 -0.27757034008E+02  0.12122771206E+03  0.14833076288E+03  0.80419002446E+02 0.  0.
          1    1    1    2  501    0  0.19612176936E+02  0.21252447190E+02  0.12849236764E+03  0.13170646353E+03  0.00000000000E+00 0. -1.
         -2    1    1    2    0  503 -0.27869788808E+02  0.65045868180E+01  0.11809530891E+02  0.30959647895E+02  0.00000000000E+00 0.  1.
<mgrwt>
<rscale>  2 0.71506006E+02</rscale>
<asrwt>0</asrwt>
<pdfrwt beam="1">  1       21 0.44040496E-01 0.71506006E+02</pdfrwt>
<pdfrwt beam="2">  1       21 0.38051743E-02 0.71506006E+02</pdfrwt>
<totfact> 0.20568110E+06</totfact>
</mgrwt>
</event>
<event>
 5    1  0.1696945E+000  0.7211531E+02  0.7546771E-02  0.1353044E+00
         21   -1    0    0  501  502  0.00000000000E+00  0.00000000000E+00  0.33857735338E+03  0.33857735338E+03  0.00000000000E+00 0. -1.
         21   -1    0    0  502  503 -0.00000000000E+00 -0.00000000000E+00 -0.18456131262E+03  0.18456131262E+03  0.00000000000E+00 0. -1.
         24    1    1    2    0    0 -0.51474647027E+01 -0.49414037564E+02 -0.12912795504E+03  0.16002964796E+03  0.80419002446E+02 0. -1.
          1    1    1    2  501    0  0.17534487338E+01  0.23905916373E+02  0.31848850431E+03  0.31938925279E+03  0.00000000000E+00 0. -1.
         -2    1    1    2    0  503  0.33940159689E+01  0.25508121191E+02 -0.35344508511E+02  0.43719765244E+02  0.00000000000E+00 0.  1.
<mgrwt>
<rscale>  2 0.72115312E+02</rscale>
<asrwt>0</asrwt>
<pdfrwt beam="1">  1       21 0.52088823E-01 0.72115312E+02</pdfrwt>
<pdfrwt beam="2">  1       21 0.28394048E-01 0.72115312E+02</pdfrwt>
<totfact> 0.44733274E+04</totfact>
</mgrwt>
</event>
<event>
 5    1  0.1696945E+000  0.8265097E+02  0.7546771E-02  0.1321692E+00
         21   -1    0    0  501  502  0.00000000000E+00  0.00000000000E+00  0.53520652463E+03  0.53520652463E+03  0.00000000000E+00 0. -1.
         21   -1    0    0  502  503 -0.00000000000E+00 -0.00000000000E+00 -0.15300600191E+02  0.15300600191E+02  0.00000000000E+00 0. -1.
         24    1    1    2    0    0  0.64084221190E+01 -0.35074672079E+02  0.38078378055E+03  0.39081300385E+03  0.80419002446E+02 0. -1.
          1    1    1    2  501    0 -0.13260803858E+02  0.54836416738E+02  0.88899131228E+02  0.10528977658E+03  0.00000000000E+00 0. -1.
         -2    1    1    2    0  503  0.68523817394E+01 -0.19761744659E+02  0.50223012662E+02  0.54404344388E+02  0.00000000000E+00 0.  1.
<mgrwt>
<rscale>  2 0.82650967E+02</rscale>
<asrwt>0</asrwt>
<pdfrwt beam="1">  1       21 0.82339451E-01 0.82650967E+02</pdfrwt>
<pdfrwt beam="2">  1       21 0.23539389E-02 0.82650967E+02</pdfrwt>
<totfact> 0.12117485E+06</totfact>
</mgrwt>
</event>
<event>
 5    1  0.1696945E+000  0.6937956E+02  0.7546771E-02  0.1362216E+00
         21   -1    0    0  503  502  0.00000000000E+00  0.00000000000E+00  0.87012784544E+01  0.87012784544E+01  0.00000000000E+00 0.  1.
         21   -1    0    0  501  503 -0.00000000000E+00 -0.00000000000E+00 -0.10013623051E+04  0.10013623051E+04  0.00000000000E+00 0.  1.
         24    1    1    2    0    0  0.31119299856E+02  0.20748561180E+02 -0.56519801061E+03  0.57211442978E+03  0.80419002446E+02 0.  1.
          1    1    1    2  501    0 -0.21058068139E+02  0.56618661937E+01 -0.39198133697E+03  0.39258740109E+03  0.00000000000E+00 0. -1.
         -2    1    1    2    0  502 -0.10061231717E+02 -0.26410427374E+02 -0.35481679108E+02  0.45361752723E+02  0.00000000000E+00 0.  1.
<mgrwt>
<rscale>  2 0.69379557E+02</rscale>
<asrwt>0</asrwt>
<pdfrwt beam="1">  1       21 0.13386579E-02 0.69379557E+02</pdfrwt>
<pdfrwt beam="2">  1       21 0.15405577E+00 0.69379557E+02</pdfrwt>
<totfact> 0.67422013E+05</totfact>
</mgrwt>
</event>
<event>
 5    1  0.1696945E+000  0.1035389E+03  0.7546771E-02  0.1273025E+00
         21   -1    0    0  501  502  0.00000000000E+00  0.00000000000E+00  0.93815674863E+02  0.93815674863E+02  0.00000000000E+00 0. -1.
         21   -1    0    0  502  503 -0.00000000000E+00 -0.00000000000E+00 -0.33015604071E+03  0.33015604071E+03  0.00000000000E+00 0.  1.
         24    1    1    2    0    0  0.15499721480E+02 -0.19620202698E+02 -0.18260680796E+03  0.20109116338E+03  0.80419002446E+02 0.  0.
          1    1    1    2  501    0  0.52489847129E+02  0.15556138019E+01  0.65797938348E+02  0.84184159298E+02  0.00000000000E+00 0. -1.
         -2    1    1    2    0  503 -0.67989568609E+02  0.18064588896E+02 -0.11953149623E+03  0.13869639290E+03  0.00000000000E+00 0.  1.
<mgrwt>
<rscale>  2 0.10353892E+03</rscale>
<asrwt>0</asrwt>
<pdfrwt beam="1">  1       21 0.14433181E-01 0.10353892E+03</pdfrwt>
<pdfrwt beam="2">  1       21 0.50793238E-01 0.10353892E+03</pdfrwt>
<totfact> 0.15966148E+05</totfact>
</mgrwt>
</event>
<event>
 5    1  0.1696945E+000  0.7869243E+02  0.7546771E-02  0.1332804E+00
         21   -1    0    0  503  502  0.00000000000E+00  0.00000000000E+00  0.62509574301E+03  0.62509574301E+03  0.00000000000E+00 0. -1.
         21   -1    0    0  501  503 -0.00000000000E+00 -0.00000000000E+00 -0.12776485947E+02  0.12776485947E+02  0.00000000000E+00 0.  1.
         24    1    1    2    0    0  0.44928520843E+01 -0.41191383943E+02  0.32437504552E+03  0.33675406745E+03  0.80419002446E+02 0.  0.
          1    1    1    2  501    0  0.24114294324E+02  0.19696120118E+02  0.40424098801E+02  0.51024936084E+02  0.00000000000E+00 0. -1.
         -2    1    1    2    0  502 -0.28607146409E+02  0.21495263825E+02  0.24752011274E+03  0.25009322542E+03  0.00000000000E+00 0.  1.
<mgrwt>
<rscale>  2 0.78692427E+02</rscale>
<asrwt>0</asrwt>
<pdfrwt beam="1">  1       21 0.96168552E-01 0.78692427E+02</pdfrwt>
<pdfrwt beam="2">  1       21 0.19656137E-02 0.78692427E+02</pdfrwt>
<totfact> 0.11397157E+06</totfact>
</mgrwt>
</event>
<event>
 5    1  0.1696945E+000  0.7221508E+02  0.7546771E-02  0.1352719E+00
         21   -1    0    0  503  502  0.00000000000E+00  0.00000000000E+00  0.88901032208E+01  0.88901032208E+01  0.00000000000E+00 0.  1.
         21   -1    0    0  501  503 -0.00000000000E+00 -0.00000000000E+00 -0.68938535665E+03  0.68938535665E+03  0.00000000000E+00 0.  1.
         24    1    1    2    0    0 -0.35804460062E+02 -0.17474429814E+02 -0.53608123026E+03  0.54354173386E+03  0.80419002446E+02 0.  1.
          1    1    1    2  501    0  0.55715030373E+01  0.23245862443E+02 -0.77013704485E+02  0.80638219507E+02  0.00000000000E+00 0. -1.
         -2    1    1    2    0  502  0.30232957025E+02 -0.57714326288E+01 -0.67400318684E+02  0.74095506502E+02  0.00000000000E+00 0.  1.
<mgrwt>
<rscale>  2 0.72215083E+02</rscale>
<asrwt>0</asrwt>
<pdfrwt beam="1">  1       21 0.13677077E-02 0.72215083E+02</pdfrwt>
<pdfrwt beam="2">  1       21 0.10605933E+00 0.72215083E+02</pdfrwt>
<totfact> 0.16108441E+06</totfact>
</mgrwt>
</event>
<event>
 5    1  0.1696945E+000  0.7791703E+02  0.7546771E-02  0.1335069E+00
         21   -1    0    0  503  502  0.00000000000E+00  0.00000000000E+00  0.58443833078E+01  0.58443833078E+01  0.00000000000E+00 0.  1.
         21   -1    0    0  501  503 -0.00000000000E+00 -0.00000000000E+00 -0.10971447933E+04  0.10971447933E+04  0.00000000000E+00 0. -1.
         24    1    1    2    0    0  0.57818372581E+01  0.16976923133E+02 -0.59765916260E+03  0.60331197250E+03  0.80419002446E+02 0.  0.
          1    1    1    2  501    0 -0.28144286299E+02 -0.34861982697E+02 -0.37314422051E+03  0.37582451755E+03  0.00000000000E+00 0. -1.
         -2    1    1    2    0  502  0.22362449040E+02  0.17885059564E+02 -0.12049702692E+03  0.12385268661E+03  0.00000000000E+00 0.  1.
<mgrwt>
<rscale>  2 0.77917034E+02</rscale>
<asrwt>0</asrwt>
<pdfrwt beam="1">  1       21 0.89913691E-03 0.77917034E+02</pdfrwt>
<pdfrwt beam="2">  1       21 0.16879132E+00 0.77917034E+02</pdfrwt>
<totfact> 0.98915800E+05</totfact>
</mgrwt>
</event>
<event>
 5    1  0.1696945E+000  0.9371149E+02  0.7546771E-02  0.1294105E+00
         21   -1    0    0  501  502  0.00000000000E+00  0.00000000000E+00  0.49637606324E+02  0.49637606324E+02  0.00000000000E+00 0.  1.
         21   -1    0    0  502  503 -0.00000000000E+00 -0.00000000000E+00 -0.18143759044E+03  0.18143759044E+03  0.00000000000E+00 0.  1.
         24    1    1    2    0    0 -0.50089378090E+02  0.52764077623E+01 -0.48608671245E+02  0.10661522007E+03  0.80419002446E+02 0.  1.
          1    1    1    2  501    0 -0.18075659209E+02 -0.15241614166E+02 -0.22828833818E+02  0.32866273164E+02  0.00000000000E+00 0. -1.
         -2    1    1    2    0  503  0.68165037299E+02  0.99652064034E+01 -0.60362479055E+02  0.91593703530E+02  0.00000000000E+00 0.  1.
<mgrwt>
<rscale>  2 0.93711487E+02</rscale>
<asrwt>0</asrwt>
<pdfrwt beam="1">  1       21 0.76365549E-02 0.93711487E+02</pdfrwt>
<pdfrwt beam="2">  1       21 0.27913475E-01 0.93711487E+02</pdfrwt>
<totfact> 0.15767152E+06</totfact>
</mgrwt>
</event>
<event>
 5    1  0.1696945E+000  0.1033954E+03  0.7546771E-02  0.1273314E+00
         21   -1    0    0  503  502  0.00000000000E+00  0.00000000000E+00  0.15692133934E+04  0.15692133934E+04  0.00000000000E+00 0.  1.
         21   -1    0    0  501  503 -0.00000000000E+00 -0.00000000000E+00 -0.60044364819E+02  0.60044364819E+02  0.00000000000E+00 0. -1.
         24    1    1    2    0    0 -0.67392357618E+02 -0.19097834238E+01  0.10640108451E+03  0.14944491921E+03  0.80419002446E+02 0. -1.
          1    1    1    2  501    0  0.66422086347E+02  0.30608095594E+02 -0.35314157949E+01  0.73220352144E+02  0.00000000000E+00 0. -1.
         -2    1    1    2    0  502  0.97027127080E+00 -0.28698312171E+02  0.14062993599E+04  0.14065924869E+04  0.00000000000E+00 0.  1.
<mgrwt>
<rscale>  2 0.10339538E+03</rscale>
<asrwt>0</asrwt>
<pdfrwt beam="1">  1       21 0.24141741E+00 0.10339538E+03</pdfrwt>
<pdfrwt beam="2">  1       21 0.92375958E-02 0.10339538E+03</pdfrwt>
<totfact> 0.77831485E+03</totfact>
</mgrwt>
</event>
<event>
 5    1  0.1696945E+000  0.7433189E+02  0.7546771E-02  0.1345953E+00
         21   -1    0    0  503  502  0.00000000000E+00  0.00000000000E+00  0.11250742581E+03  0.11250742581E+03  0.00000000000E+00 0.  1.
         21   -1    0    0  501  503 -0.00000000000E+00 -0.00000000000E+00 -0.33351840769E+03  0.33351840769E+03  0.00000000000E+00 0.  1.
         24    1    1    2    0    0 -0.23938909111E+02 -0.43814045041E+02 -0.26326091448E+03  0.27976108908E+03  0.80419002446E+02 0.  1.
          1    1    1    2  501    0  0.23177353191E+02  0.21295165591E+02 -0.56662999279E+02  0.64817970238E+02  0.00000000000E+00 0. -1.
         -2    1    1    2    0  502  0.76155592061E+00  0.22518879451E+02  0.98912931887E+02  0.10144677419E+03  0.00000000000E+00 0.  1.
<mgrwt>
<rscale>  2 0.74331889E+02</rscale>
<asrwt>0</asrwt>
<pdfrwt beam="1">  1       21 0.17308835E-01 0.74331889E+02</pdfrwt>
<pdfrwt beam="2">  1       21 0.51310524E-01 0.74331889E+02</pdfrwt>
<totfact> 0.11439950E+05</totfact>
</mgrwt>
</event>
<event>
 5    1  0.1696945E+000  0.1502688E+03  0.7546771E-02  0.1200143E+00
         21   -1    0    0  503  502  0.00000000000E+00  0.00000000000E+00  0.60224013888E+02  0.60224013888E+02  0.00000000000E+00 0.  1.
         21   -1    0    0  501  503 -0.00000000000E+00 -0.00000000000E+00 -0.86367537131E+03  0.86367537131E+03  0.00000000000E+00 0. -1.
         24    1    1    2    0    0  0.11363914462E+03 -0.80924936774E+02 -0.72872401985E+03  0.74630329870E+03  0.80419002446E+02 0. -1.
          1    1    1    2  501    0 -0.94290136798E+02  0.67413754144E+02 -0.92301715077E+02  0.14817169349E+03  0.00000000000E+00 0. -1.
         -2    1    1    2    0  502 -0.19349007820E+02  0.13511182629E+02  0.17574377504E+02  0.29424393015E+02  0.00000000000E+00 0.  1.
<mgrwt>
<rscale>  2 0.15026884E+03</rscale>
<asrwt>0</asrwt>
<pdfrwt beam="1">  1       21 0.92652331E-02 0.15026884E+03</pdfrwt>
<pdfrwt beam="2">  1       21 0.13287313E+00 0.15026884E+03</pdfrwt>
<totfact> 0.38934223E+04</totfact>
</mgrwt>
</event>
<event>
 5    1  0.1696945E+000  0.8695867E+02  0.7546771E-02  0.1310388E+00
         21   -1    0    0  501  502  0.00000000000E+00  0.00000000000E+00  0.41891473356E+03  0.41891473356E+03  0.00000000000E+00 0. -1.
         21   -1    0    0  502  503 -0.00000000000E+00 -0.00000000000E+00 -0.60817204723E+02  0.60817204723E+02  0.00000000000E+00 0.  1.
         24    1    1    2    0    0  0.48284997152E+02 -0.99956338082E+01  0.25170746090E+03  0.26880330257E+03  0.80419002446E+02 0. -1.
          1    1    1    2  501    0 -0.45499122406E+02 -0.19827861312E+02  0.15001407422E+03  0.15801119166E+03  0.00000000000E+00 0. -1.
         -2    1    1    2    0  503 -0.27858747460E+01  0.29823495120E+02 -0.43624006295E+02  0.52917444047E+02  0.00000000000E+00 0.  1.
<mgrwt>
<rscale>  2 0.86958673E+02</rscale>
<asrwt>0</asrwt>
<pdfrwt beam="1">  1       21 0.64448419E-01 0.86958673E+02</pdfrwt>
<pdfrwt beam="2">  1       21 0.93564933E-02 0.86958673E+02</pdfrwt>
<totfact> 0.20883789E+05</totfact>
</mgrwt>
</event>
<event>
 5    1  0.1696945E+000  0.1030960E+03  0.7546771E-02  0.1273917E+00
         21   -1    0    0  503  502  0.00000000000E+00  0.00000000000E+00  0.89036814428E+02  0.89036814428E+02  0.00000000000E+00 0.  1.
         21   -1    0    0  501  503 -0.00000000000E+00 -0.00000000000E+00 -0.47387918474E+03  0.47387918474E+03  0.00000000000E+00 0. -1.
         24    1    1    2    0    0 -0.39998388762E+02  0.35566966646E+02 -0.23948547879E+03  0.25823514618E+03  0.80419002446E+02 0.  1.
          1    1    1    2  501    0 -0.11455560246E+02  0.26557916461E+02 -0.20330887862E+03  0.20535591765E+03  0.00000000000E+00 0. -1.
         -2    1    1    2    0  502  0.51453949009E+02 -0.62124883107E+02  0.57951987101E+02  0.99324935332E+02  0.00000000000E+00 0.  1.
<mgrwt>
<rscale>  2 0.10309602E+03</rscale>
<asrwt>0</asrwt>
<pdfrwt beam="1">  1       21 0.13697972E-01 0.10309602E+03</pdfrwt>
<pdfrwt beam="2">  1       21 0.72904489E-01 0.10309602E+03</pdfrwt>
<totfact> 0.81599266E+04</totfact>
</mgrwt>
</event>
<event>
 5    1  0.1696945E+000  0.8304927E+02  0.7546771E-02  0.1320614E+00
         21   -1    0    0  501  502  0.00000000000E+00  0.00000000000E+00  0.39871562510E+03  0.39871562510E+03  0.00000000000E+00 0. -1.
         21   -1    0    0  502  503 -0.00000000000E+00 -0.00000000000E+00 -0.43146715954E+02  0.43146715954E+02  0.00000000000E+00 0.  1.
         24    1    1    2    0    0 -0.24733881419E+02  0.22748312682E+02  0.16232508958E+03  0.18424413500E+03  0.80419002446E+02 0.  0.
          1    1    1    2  501    0  0.48320303647E+02 -0.34105163551E+01  0.21484831884E+03  0.22024142089E+03  0.00000000000E+00 0. -1.
         -2    1    1    2    0  503 -0.23586422228E+02 -0.19337796327E+02 -0.21604499276E+02  0.37376785165E+02  0.00000000000E+00 0.  1.
<mgrwt>
<rscale>  2 0.83049274E+02</rscale>
<asrwt>0</asrwt>
<pdfrwt beam="1">  1       21 0.61340863E-01 0.83049274E+02</pdfrwt>
<pdfrwt beam="2">  1       21 0.66379565E-02 0.83049274E+02</pdfrwt>
<totfact> 0.41641597E+05</totfact>
</mgrwt>
</event>
<event>
 5    1  0.1696945E+000  0.1124693E+03  0.7546771E-02  0.1256064E+00
         21   -1    0    0  503  502  0.00000000000E+00  0.00000000000E+00  0.27170628250E+02  0.27170628250E+02  0.00000000000E+00 0.  1.
         21   -1    0    0  501  503 -0.00000000000E+00 -0.00000000000E+00 -0.54755312227E+03  0.54755312227E+03  0.00000000000E+00 0. -1.
         24    1    1    2    0    0  0.75159962188E+02 -0.11453186730E+02 -0.19796852365E+03  0.22680156020E+03  0.80419002446E+02 0.  0.
          1    1    1    2  501    0 -0.24483858511E+02  0.46571548558E+02 -0.23583800372E+03  0.24163595026E+03  0.00000000000E+00 0. -1.
         -2    1    1    2    0  502 -0.50676103677E+02 -0.35118361828E+02 -0.86575966656E+02  0.10628624005E+03  0.00000000000E+00 0.  1.
<mgrwt>
<rscale>  2 0.11246927E+03</rscale>
<asrwt>0</asrwt>
<pdfrwt beam="1">  1       21 0.41800970E-02 0.11246927E+03</pdfrwt>
<pdfrwt beam="2">  1       21 0.84238935E-01 0.11246927E+03</pdfrwt>
<totfact> 0.45142691E+05</totfact>
</mgrwt>
</event>
<event>
 5    1  0.1696945E+000  0.8329987E+02  0.7546771E-02  0.1319939E+00
         21   -1    0    0  503  502  0.00000000000E+00  0.00000000000E+00  0.16537586485E+03  0.16537586485E+03  0.00000000000E+00 0. -1.
         21   -1    0    0  501  503 -0.00000000000E+00 -0.00000000000E+00 -0.48259712181E+02  0.48259712181E+02  0.00000000000E+00 0.  1.
         24    1    1    2    0    0 -0.40545420732E+00  0.39200617339E+02  0.50665421528E+02  0.10281562958E+03  0.80419002446E+02 0.  0.
          1    1    1    2  501    0 -0.18396106956E+02 -0.51486645766E+02  0.18244172741E+02  0.57638019417E+02  0.00000000000E+00 0. -1.
         -2    1    1    2    0  502  0.18801561163E+02  0.12286028427E+02  0.48206558403E+02  0.53181928037E+02  0.00000000000E+00 0.  1.
<mgrwt>
<rscale>  2 0.83299866E+02</rscale>
<asrwt>0</asrwt>
<pdfrwt beam="1">  1       21 0.25442440E-01 0.83299866E+02</pdfrwt>
<pdfrwt beam="2">  1       21 0.74245712E-02 0.83299866E+02</pdfrwt>
<totfact> 0.19610817E+06</totfact>
</mgrwt>
</event>
<event>
 5    1  0.1696945E+000  0.9210863E+02  0.7546771E-02  0.1297824E+00
         21   -1    0    0  501  502  0.00000000000E+00  0.00000000000E+00  0.48513526607E+03  0.48513526607E+03  0.00000000000E+00 0. -1.
         21   -1    0    0  502  503 -0.00000000000E+00 -0.00000000000E+00 -0.55979801598E+02  0.55979801598E+02  0.00000000000E+00 0.  1.
         24    1    1    2    0    0 -0.38851232279E+02 -0.22848018608E+02  0.34062621305E+03  0.35288083424E+03  0.80419002446E+02 0.  0.
          1    1    1    2  501    0  0.30381716003E+02 -0.27496615859E+02  0.12098693350E+03  0.12773781989E+03  0.00000000000E+00 0. -1.
         -2    1    1    2    0  503  0.84695162756E+01  0.50344634468E+02 -0.32457682078E+02  0.60496413542E+02  0.00000000000E+00 0.  1.
<mgrwt>
<rscale>  2 0.92108633E+02</rscale>
<asrwt>0</asrwt>
<pdfrwt beam="1">  1       21 0.74636192E-01 0.92108633E+02</pdfrwt>
<pdfrwt beam="2">  1       21 0.86122775E-02 0.92108633E+02</pdfrwt>
<totfact> 0.17528049E+05</totfact>
</mgrwt>
</event>
<event>
 5    1  0.1696945E+000  0.9094085E+02  0.7546771E-02  0.1300589E+00
         21   -1    0    0  501  502  0.00000000000E+00  0.00000000000E+00  0.85042986309E+02  0.85042986309E+02  0.00000000000E+00 0.  1.
         21   -1    0    0  502  503 -0.00000000000E+00 -0.00000000000E+00 -0.16420250669E+03  0.16420250669E+03  0.00000000000E+00 0.  1.
         24    1    1    2    0    0  0.29623191259E+02 -0.47203362696E+02 -0.27393952351E+02  0.10160381632E+03  0.80419002446E+02 0.  1.
          1    1    1    2  501    0 -0.49347003401E+02  0.29220903984E+02  0.27790002539E+02  0.63728111657E+02  0.00000000000E+00 0. -1.
         -2    1    1    2    0  503  0.19723812142E+02  0.17982458713E+02 -0.79555570571E+02  0.83913565028E+02  0.00000000000E+00 0.  1.
<mgrwt>
<rscale>  2 0.90940855E+02</rscale>
<asrwt>0</asrwt>
<pdfrwt beam="1">  1       21 0.13083536E-01 0.90940855E+02</pdfrwt>
<pdfrwt beam="2">  1       21 0.25261924E-01 0.90940855E+02</pdfrwt>
<totfact> 0.74760484E+05</totfact>
</mgrwt>
</event>
<event>
 5    1  0.1696945E+000  0.8309845E+02  0.7546771E-02  0.1320482E+00
         21   -1    0    0  501  502  0.00000000000E+00  0.00000000000E+00  0.11963249306E+03  0.11963249306E+03  0.00000000000E+00 0. -1.
         21   -1    0    0  502  503 -0.00000000000E+00 -0.00000000000E+00 -0.10156792197E+03  0.10156792197E+03  0.00000000000E+00 0.  1.
         24    1    1    2    0    0  0.21205417214E+02  0.37123620219E+02  0.14275829880E+02  0.92189197689E+02  0.80419002446E+02 0.  1.
          1    1    1    2  501    0 -0.40764433473E+02 -0.10520101337E+02  0.54272951099E+02  0.68687442735E+02  0.00000000000E+00 0. -1.
         -2    1    1    2    0  503  0.19559016259E+02 -0.26603518883E+02 -0.50484209895E+02  0.60323774606E+02  0.00000000000E+00 0.  1.
<mgrwt>
<rscale>  2 0.83098452E+02</rscale>
<asrwt>0</asrwt>
<pdfrwt beam="1">  1       21 0.18404999E-01 0.83098452E+02</pdfrwt>
<pdfrwt beam="2">  1       21 0.15625834E-01 0.83098452E+02</pdfrwt>
<totfact> 0.97569593E+05</totfact>
</mgrwt>
</event>
<event>
 5    1  0.1835082E+000  0.6591540E+02  0.7546771E-02  0.1374561E+00
         21   -1    0    0  501  502  0.00000000000E+00  0.00000000000E+00  0.18038643331E+03  0.18038643331E+03  0.00000000000E+00 0. -1.
         21   -1    0    0  502  503 -0.00000000000E+00 -0.00000000000E+00 -0.31848583485E+03  0.31848583485E+03  0.00000000000E+00 0.  1.
         24    1    1    2    0    0 -0.73095093036E+01 -0.73151169683E+01 -0.24485800157E+02  0.84697758094E+02  0.80419002446E+02 0.  1.
          1    1    1    2  501    0  0.14940165199E+02 -0.18529352387E+02  0.14864321621E+03  0.15053687641E+03  0.00000000000E+00 0. -1.
         -2    1    1    2    0  503 -0.76306558953E+01  0.25844469355E+02 -0.26225681759E+03  0.26363763365E+03  0.00000000000E+00 0.  1.
<mgrwt>
<rscale>  2 0.65915402E+02</rscale>
<asrwt>0</asrwt>
<pdfrwt beam="1">  1       21 0.27751759E-01 0.65915402E+02</pdfrwt>
<pdfrwt beam="2">  1       21 0.48997821E-01 0.65915402E+02</pdfrwt>
<totfact> 0.53176811E+04</totfact>
</mgrwt>
</event>
<event>
 5    1  0.1696945E+000  0.8271803E+02  0.7546771E-02  0.1321510E+00
         21   -1    0    0  501  502  0.00000000000E+00  0.00000000000E+00  0.10157559679E+03  0.10157559679E+03  0.00000000000E+00 0. -1.
         21   -1    0    0  502  503 -0.00000000000E+00 -0.00000000000E+00 -0.80871021885E+02  0.80871021885E+02  0.00000000000E+00 0. -1.
         24    1    1    2    0    0  0.13196350253E+02  0.38084569260E+02 -0.25808483027E+02  0.93583501892E+02  0.80419002446E+02 0. -1.
          1    1    1    2  501    0  0.21518973135E+01 -0.53608324172E+02  0.36181763580E+02  0.64711692130E+02  0.00000000000E+00 0. -1.
         -2    1    1    2    0  503 -0.15348247567E+02  0.15523754911E+02  0.10331294358E+02  0.24151424658E+02  0.00000000000E+00 0.  1.
<mgrwt>
<rscale>  2 0.82718026E+02</rscale>
<asrwt>0</asrwt>
<pdfrwt beam="1">  1       21 0.15627015E-01 0.82718026E+02</pdfrwt>
<pdfrwt beam="2">  1       21 0.12441696E-01 0.82718026E+02</pdfrwt>
<totfact> 0.19603341E+06</totfact>
</mgrwt>
</event>
<event>
 5    1  0.1696945E+000  0.1075552E+03  0.7546771E-02  0.1265165E+00
         21   -1    0    0  503  502  0.00000000000E+00  0.00000000000E+00  0.39300242126E+03  0.39300242126E+03  0.00000000000E+00 0. -1.
         21   -1    0    0  501  503 -0.00000000000E+00 -0.00000000000E+00 -0.33848706548E+02  0.33848706548E+02  0.00000000000E+00 0. -1.
         24    1    1    2    0    0  0.15682606257E+02 -0.53236335267E+02  0.22292847224E+03  0.24340166643E+03  0.80419002446E+02 0. -1.
          1    1    1    2  501    0  0.17966624607E+02  0.75134688924E+02  0.61973834796E+02  0.99039271397E+02  0.00000000000E+00 0. -1.
         -2    1    1    2    0  502 -0.33649230864E+02 -0.21898353658E+02  0.74251407675E+02  0.84410189979E+02  0.00000000000E+00 0.  1.
<mgrwt>
<rscale>  2 0.10755521E+03</rscale>
<asrwt>0</asrwt>
<pdfrwt beam="1">  1       21 0.60461908E-01 0.10755521E+03</pdfrwt>
<pdfrwt beam="2">  1       21 0.52074936E-02 0.10755521E+03</pdfrwt>
<totfact> 0.64481249E+05</totfact>
</mgrwt>
</event>
<event>
 5    1  0.1696945E+000  0.6777798E+02  0.7546771E-02  0.1367816E+00
         21   -1    0    0  503  502  0.00000000000E+00  0.00000000000E+00  0.91330271101E+01  0.91330271101E+01  0.00000000000E+00 0. -1.
         21   -1    0    0  501  503 -0.00000000000E+00 -0.00000000000E+00 -0.69875765416E+03  0.69875765416E+03  0.00000000000E+00 0.  1.
         24    1    1    2    0    0  0.91513032524E+01  0.25780016205E+02 -0.32917450877E+03  0.33995798089E+03  0.80419002446E+02 0.  1.
          1    1    1    2  501    0  0.13176606501E+02 -0.25011747791E+02 -0.32364665513E+03  0.32487900496E+03  0.00000000000E+00 0. -1.
         -2    1    1    2    0  502 -0.22327909753E+02 -0.76826841374E+00 -0.36803463149E+02  0.43053695428E+02  0.00000000000E+00 0.  1.
<mgrwt>
<rscale>  2 0.67777977E+02</rscale>
<asrwt>0</asrwt>
<pdfrwt beam="1">  1       21 0.14050816E-02 0.67777977E+02</pdfrwt>
<pdfrwt beam="2">  1       21 0.10750114E+00 0.67777977E+02</pdfrwt>
<totfact> 0.14938565E+06</totfact>
</mgrwt>
</event>
<event>
 5    1  0.2404674E+000  0.1458347E+03  0.7546771E-02  0.1205687E+00
         21   -1    0    0  503  502  0.00000000000E+00  0.00000000000E+00  0.98295980839E+03  0.98295980839E+03  0.00000000000E+00 0.  1.
         21   -1    0    0  501  503 -0.00000000000E+00 -0.00000000000E+00 -0.88125810418E+02  0.88125810418E+02  0.00000000000E+00 0. -1.
         24    1    1    2    0    0 -0.26896579205E+02 -0.31323370957E+02  0.95857340065E+02  0.13175896607E+03  0.80419002446E+02 0. -1.
          1    1    1    2  501    0  0.11284207268E+03  0.19554043024E+02 -0.19580632275E+02  0.11618560636E+03  0.00000000000E+00 0. -1.
         -2    1    1    2    0  502 -0.85945493471E+02  0.11769327933E+02  0.81855729018E+03  0.82314104638E+03  0.00000000000E+00 0.  1.
<mgrwt>
<rscale>  2 0.14583467E+03</rscale>
<asrwt>0</asrwt>
<pdfrwt beam="1">  1       21 0.15122458E+00 0.14583467E+03</pdfrwt>
<pdfrwt beam="2">  1       21 0.13557818E-01 0.14583467E+03</pdfrwt>
<totfact> 0.14292610E+04</totfact>
</mgrwt>
</event>
<event>
 5    1  0.1696945E+000  0.8551938E+02  0.7546771E-02  0.1314080E+00
         21   -1    0    0  501  502  0.00000000000E+00  0.00000000000E+00  0.16115515373E+03  0.16115515373E+03  0.00000000000E+00 0. -1.
         21   -1    0    0  502  503 -0.00000000000E+00 -0.00000000000E+00 -0.86782791114E+02  0.86782791114E+02  0.00000000000E+00 0.  1.
         24    1    1    2    0    0 -0.29476461048E+02 -0.21378012441E+02  0.10270465300E+03  0.13543021404E+03  0.80419002446E+02 0.  1.
          1    1    1    2  501    0 -0.22521013678E+02  0.20953407542E+02  0.23786647443E+02  0.38885034927E+02  0.00000000000E+00 0. -1.
         -2    1    1    2    0  503  0.51997474726E+02  0.42460489938E+00 -0.52118937832E+02  0.73622695875E+02  0.00000000000E+00 0.  1.
<mgrwt>
<rscale>  2 0.85519382E+02</rscale>
<asrwt>0</asrwt>
<pdfrwt beam="1">  1       21 0.24793101E-01 0.85519382E+02</pdfrwt>
<pdfrwt beam="2">  1       21 0.13351199E-01 0.85519382E+02</pdfrwt>
<totfact> 0.74642015E+05</totfact>
</mgrwt>
</event>
<event>
 5    1  0.1696945E+000  0.1840139E+03  0.7546771E-02  0.1163974E+00
         21   -1    0    0  501  502  0.00000000000E+00  0.00000000000E+00  0.51411063691E+03  0.51411063691E+03  0.00000000000E+00 0. -1.
         21   -1    0    0  502  503 -0.00000000000E+00 -0.00000000000E+00 -0.11467715626E+03  0.11467715626E+03  0.00000000000E+00 0.  1.
         24    1    1    2    0    0 -0.20581423551E+01  0.12686906974E+03  0.11444438778E+03  0.18885108063E+03  0.80419002446E+02 0.  1.
          1    1    1    2  501    0 -0.32945212164E+02  0.37403296234E+02  0.26631763936E+03  0.27094183620E+03  0.00000000000E+00 0. -1.
         -2    1    1    2    0  503  0.35003354519E+02 -0.16427236597E+03  0.18671453520E+02  0.16899487633E+03  0.00000000000E+00 0.  1.
<mgrwt>
<rscale>  2 0.18401391E+03</rscale>
<asrwt>0</asrwt>
<pdfrwt beam="1">  1       21 0.79093943E-01 0.18401391E+03</pdfrwt>
<pdfrwt beam="2">  1       21 0.17642640E-01 0.18401391E+03</pdfrwt>
<totfact> 0.41295049E+04</totfact>
</mgrwt>
</event>
<event>
 5    1  0.1696945E+000  0.9212934E+02  0.7546771E-02  0.1297776E+00
         21   -1    0    0  501  502  0.00000000000E+00  0.00000000000E+00  0.29186053662E+03  0.29186053662E+03  0.00000000000E+00 0.  1.
         21   -1    0    0  502  503 -0.00000000000E+00 -0.00000000000E+00 -0.47330243275E+02  0.47330243275E+02  0.00000000000E+00 0.  1.
         24    1    1    2    0    0 -0.32473552430E+02 -0.35247216679E+02  0.17394109039E+03  0.19753383703E+03  0.80419002446E+02 0.  1.
          1    1    1    2  501    0  0.40337173592E+02 -0.12517018947E+02  0.81718013973E+02  0.91986940076E+02  0.00000000000E+00 0. -1.
         -2    1    1    2    0  503 -0.78636211618E+01  0.47764235625E+02 -0.11128811017E+02  0.49670002792E+02  0.00000000000E+00 0.  1.
<mgrwt>
<rscale>  2 0.92129343E+02</rscale>
<asrwt>0</asrwt>
<pdfrwt beam="1">  1       21 0.44901620E-01 0.92129343E+02</pdfrwt>
<pdfrwt beam="2">  1       21 0.72815761E-02 0.92129343E+02</pdfrwt>
<totfact> 0.67617783E+05</totfact>
</mgrwt>
</event>
<event>
 5    1  0.1696945E+000  0.1076486E+03  0.7546771E-02  0.1264987E+00
         21   -1    0    0  503  502  0.00000000000E+00  0.00000000000E+00  0.49740612167E+03  0.49740612167E+03  0.00000000000E+00 0.  1.
         21   -1    0    0  501  503 -0.00000000000E+00 -0.00000000000E+00 -0.31380843746E+02  0.31380843746E+02  0.00000000000E+00 0.  1.
         24    1    1    2    0    0  0.14463143327E+02  0.88761190826E+02  0.27909831019E+03  0.30405725483E+03  0.80419002446E+02 0.  1.
          1    1    1    2  501    0  0.91966862632E+01 -0.26242274423E+02  0.17559873207E+01  0.27862510594E+02  0.00000000000E+00 0. -1.
         -2    1    1    2    0  502 -0.23659829590E+02 -0.62518916403E+02  0.18517098041E+03  0.19686719998E+03  0.00000000000E+00 0.  1.
<mgrwt>
<rscale>  2 0.10764856E+03</rscale>
<asrwt>0</asrwt>
<pdfrwt beam="1">  1       21 0.76524013E-01 0.10764856E+03</pdfrwt>
<pdfrwt beam="2">  1       21 0.48278225E-02 0.10764856E+03</pdfrwt>
<totfact> 0.44011797E+05</totfact>
</mgrwt>
</event>
<event>
 5    1  0.1696945E+000  0.9034570E+02  0.7546771E-02  0.1302017E+00
         21   -1    0    0  503  502  0.00000000000E+00  0.00000000000E+00  0.31559439728E+03  0.31559439728E+03  0.00000000000E+00 0. -1.
         21   -1    0    0  501  503 -0.00000000000E+00 -0.00000000000E+00 -0.69297839408E+02  0.69297839408E+02  0.00000000000E+00 0. -1.
         24    1    1    2    0    0 -0.75237081110E+01  0.35960837660E+01  0.10883493960E+03  0.13557948972E+03  0.80419002446E+02 0. -1.
          1    1    1    2  501    0 -0.10359180943E+02  0.45983076674E+02 -0.41469157394E+02  0.62780944443E+02  0.00000000000E+00 0. -1.
         -2    1    1    2    0  502  0.17882889054E+02 -0.49579160440E+02  0.17893077567E+03  0.18653180252E+03  0.00000000000E+00 0.  1.
<mgrwt>
<rscale>  2 0.90345701E+02</rscale>
<asrwt>0</asrwt>
<pdfrwt beam="1">  1       21 0.48552983E-01 0.90345701E+02</pdfrwt>
<pdfrwt beam="2">  1       21 0.10661206E-01 0.90345701E+02</pdfrwt>
<totfact> 0.29975447E+05</totfact>
</mgrwt>
</event>
<event>
 5    1  0.1696945E+000  0.1303042E+03  0.7546771E-02  0.1227005E+00
         21   -1    0    0  503  502  0.00000000000E+00  0.00000000000E+00  0.11599814802E+04  0.11599814802E+04  0.00000000000E+00 0. -1.
         21   -1    0    0  501  503 -0.00000000000E+00 -0.00000000000E+00 -0.20211832078E+02  0.20211832078E+02  0.00000000000E+00 0.  1.
         24    1    1    2    0    0 -0.10161011799E+03 -0.17243850702E+02  0.27117385889E+03  0.30103894128E+03  0.80419002446E+02 0.  1.
          1    1    1    2  501    0  0.96472817068E+02  0.41549765810E+02  0.57548124976E+03  0.58498893691E+03  0.00000000000E+00 0. -1.
         -2    1    1    2    0  502  0.51373009217E+01 -0.24305915108E+02  0.29311453944E+03  0.29416543406E+03  0.00000000000E+00 0.  1.
<mgrwt>
<rscale>  2 0.13030421E+03</rscale>
<asrwt>0</asrwt>
<pdfrwt beam="1">  1       21 0.17845864E+00 0.13030421E+03</pdfrwt>
<pdfrwt beam="2">  1       21 0.31095135E-02 0.13030421E+03</pdfrwt>
<totfact> 0.11497411E+05</totfact>
</mgrwt>
</event>
<event>
 5    1  0.1696945E+000  0.9217421E+02  0.7546771E-02  0.1297670E+00
         21   -1    0    0  501  502  0.00000000000E+00  0.00000000000E+00  0.60046300510E+02  0.60046300510E+02  0.00000000000E+00 0. -1.
         21   -1    0    0  502  503 -0.00000000000E+00 -0.00000000000E+00 -0.36976896352E+03  0.36976896352E+03  0.00000000000E+00 0.  1.
         24    1    1    2    0    0 -0.45139199262E+02  0.15791151355E+02 -0.74400357751E+01  0.93858818754E+02  0.80419002446E+02 0. -1.
          1    1    1    2  501    0  0.57545342549E+02  0.13384288553E+02 -0.39047154342E+02  0.70818683208E+02  0.00000000000E+00 0. -1.
         -2    1    1    2    0  503 -0.12406143286E+02 -0.29175439908E+02 -0.26323547289E+03  0.26513776207E+03  0.00000000000E+00 0.  1.
<mgrwt>
<rscale>  2 0.92174214E+02</rscale>
<asrwt>0</asrwt>
<pdfrwt beam="1">  1       21 0.92378926E-02 0.92174214E+02</pdfrwt>
<pdfrwt beam="2">  1       21 0.56887532E-01 0.92174214E+02</pdfrwt>
<totfact> 0.27722322E+05</totfact>
</mgrwt>
</event>
<event>
 5    1  0.1696945E+000  0.7644523E+02  0.7546771E-02  0.1339453E+00
         21   -1    0    0  503  502  0.00000000000E+00  0.00000000000E+00  0.18098011479E+03  0.18098011479E+03  0.00000000000E+00 0.  1.
         21   -1    0    0  501  503 -0.00000000000E+00 -0.00000000000E+00 -0.80209694574E+02  0.80209694574E+02  0.00000000000E+00 0. -1.
         24    1    1    2    0    0 -0.22192078654E+02 -0.27546113582E+02  0.37738993535E+02  0.95617594175E+02  0.80419002446E+02 0.  0.
          1    1    1    2  501    0 -0.13324568276E+01  0.38894097014E+02 -0.42049042225E+02  0.57294399165E+02  0.00000000000E+00 0. -1.
         -2    1    1    2    0  502  0.23524535482E+02 -0.11347983432E+02  0.10508046891E+03  0.10827781603E+03  0.00000000000E+00 0.  1.
<mgrwt>
<rscale>  2 0.76445226E+02</rscale>
<asrwt>0</asrwt>
<pdfrwt beam="1">  1       21 0.27843095E-01 0.76445226E+02</pdfrwt>
<pdfrwt beam="2">  1       21 0.12339953E-01 0.76445226E+02</pdfrwt>
<totfact> 0.68871195E+05</totfact>
</mgrwt>
</event>
<event>
 5    1  0.1696945E+000  0.1399028E+03  0.7546771E-02  0.1213460E+00
         21   -1    0    0  503  502  0.00000000000E+00  0.00000000000E+00  0.66775611907E+03  0.66775611907E+03  0.00000000000E+00 0. -1.
         21   -1    0    0  501  503 -0.00000000000E+00 -0.00000000000E+00 -0.18652712027E+03  0.18652712027E+03  0.00000000000E+00 0. -1.
         24    1    1    2    0    0  0.93671010653E+02  0.48232680582E+02  0.29074854167E+03  0.31953494355E+03  0.80419002446E+02 0. -1.
          1    1    1    2  501    0  0.12911344563E+02  0.17719407467E+02 -0.16053581653E+03  0.16202601214E+03  0.00000000000E+00 0. -1.
         -2    1    1    2    0  502 -0.10658235522E+03 -0.65952088049E+02  0.35101627366E+03  0.37272228365E+03  0.00000000000E+00 0.  1.
<mgrwt>
<rscale>  2 0.13990285E+03</rscale>
<asrwt>0</asrwt>
<pdfrwt beam="1">  1       21 0.10273171E+00 0.13990285E+03</pdfrwt>
<pdfrwt beam="2">  1       21 0.28696480E-01 0.13990285E+03</pdfrwt>
<totfact> 0.93202111E+03</totfact>
</mgrwt>
</event>
<event>
 5    1  0.1696945E+000  0.6834861E+02  0.7546771E-02  0.1365800E+00
         21   -1    0    0  501  502  0.00000000000E+00  0.00000000000E+00  0.10737870645E+02  0.10737870645E+02  0.00000000000E+00 0. -1.
         21   -1    0    0  502  503 -0.00000000000E+00 -0.00000000000E+00 -0.11259695026E+04  0.11259695026E+04  0.00000000000E+00 0.  1.
         24    1    1    2    0    0 -0.11412154421E+02  0.91648479111E+00 -0.25126560290E+03  0.26406949155E+03  0.80419002446E+02 0.  0.
          1    1    1    2  501    0 -0.72726839521E+01 -0.24398035962E+02 -0.35805903854E+02  0.43934255900E+02  0.00000000000E+00 0. -1.
         -2    1    1    2    0  503  0.18684838373E+02  0.23481551171E+02 -0.82816012520E+03  0.82870362579E+03  0.00000000000E+00 0.  1.
<mgrwt>
<rscale>  2 0.68348614E+02</rscale>
<asrwt>0</asrwt>
<pdfrwt beam="1">  1       21 0.16519815E-02 0.68348614E+02</pdfrwt>
<pdfrwt beam="2">  1       21 0.17322593E+00 0.68348614E+02</pdfrwt>
<totfact> 0.35776211E+05</totfact>
</mgrwt>
</event>
<event>
 5    1  0.1696945E+000  0.7579637E+02  0.7546771E-02  0.1341423E+00
         21   -1    0    0  503  502  0.00000000000E+00  0.00000000000E+00  0.18609528336E+03  0.18609528336E+03  0.00000000000E+00 0.  1.
         21   -1    0    0  501  503 -0.00000000000E+00 -0.00000000000E+00 -0.55456134541E+02  0.55456134541E+02  0.00000000000E+00 0. -1.
         24    1    1    2    0    0 -0.12467927872E+02  0.47371409252E+01  0.12862573326E+03  0.15228159751E+03  0.80419002446E+02 0.  0.
          1    1    1    2  501    0  0.87734969432E+01  0.31985634964E+02 -0.26642974416E+02  0.42542956860E+02  0.00000000000E+00 0. -1.
         -2    1    1    2    0  502  0.36944309291E+01 -0.36722775889E+02  0.28656389974E+02  0.46726863528E+02  0.00000000000E+00 0.  1.
<mgrwt>
<rscale>  2 0.75796370E+02</rscale>
<asrwt>0</asrwt>
<pdfrwt beam="1">  1       21 0.28630043E-01 0.75796370E+02</pdfrwt>
<pdfrwt beam="2">  1       21 0.85317131E-02 0.75796370E+02</pdfrwt>
<totfact> 0.12359926E+06</totfact>
</mgrwt>
</event>
<event>
 5    1  0.1696945E+000  0.1478022E+03  0.7546771E-02  0.1203200E+00
         21   -1    0    0  501  502  0.00000000000E+00  0.00000000000E+00  0.28805011649E+03  0.28805011649E+03  0.00000000000E+00 0. -1.
         21   -1    0    0  502  503 -0.00000000000E+00 -0.00000000000E+00 -0.25772251989E+03  0.25772251989E+03  0.00000000000E+00 0.  1.
         24    1    1    2    0    0 -0.11459495100E+03 -0.71001978982E+01  0.22772359508E+03  0.26740917583E+03  0.80419002446E+02 0. -1.
          1    1    1    2  501    0  0.11924118941E+03 -0.25966416447E+02 -0.58172343527E+02  0.13519148489E+03  0.00000000000E+00 0. -1.
         -2    1    1    2    0  503 -0.46462384071E+01  0.33066614345E+02 -0.13922365496E+03  0.14317197566E+03  0.00000000000E+00 0.  1.
<mgrwt>
<rscale>  2 0.14780215E+03</rscale>
<asrwt>0</asrwt>
<pdfrwt beam="1">  1       21 0.44315402E-01 0.14780215E+03</pdfrwt>
<pdfrwt beam="2">  1       21 0.39649619E-01 0.14780215E+03</pdfrwt>
<totfact> 0.30749618E+04</totfact>
</mgrwt>
</event>
<event>
 5    1  0.1696945E+000  0.7201039E+02  0.7546771E-02  0.1353387E+00
         21   -1    0    0  503  502  0.00000000000E+00  0.00000000000E+00  0.28868887931E+03  0.28868887931E+03  0.00000000000E+00 0.  1.
         21   -1    0    0  501  503 -0.00000000000E+00 -0.00000000000E+00 -0.21042416644E+02  0.21042416644E+02  0.00000000000E+00 0. -1.
         24    1    1    2    0    0 -0.22038226818E+02  0.89609283405E+01  0.20509202888E+03  0.22157603197E+03  0.80419002446E+02 0.  1.
          1    1    1    2  501    0  0.36146743661E+02  0.90648238090E+01  0.27604441800E+02  0.46376322786E+02  0.00000000000E+00 0. -1.
         -2    1    1    2    0  502 -0.14108516843E+02 -0.18025752150E+02  0.34949991980E+02  0.41778941196E+02  0.00000000000E+00 0.  1.
<mgrwt>
<rscale>  2 0.72010386E+02</rscale>
<asrwt>0</asrwt>
<pdfrwt beam="1">  1       21 0.44413671E-01 0.72010386E+02</pdfrwt>
<pdfrwt beam="2">  1       21 0.32372951E-02 0.72010386E+02</pdfrwt>
<totfact> 0.26316053E+06</totfact>
</mgrwt>
</event>
<event>
 5    1  0.1696945E+000  0.7404487E+02  0.7546771E-02  0.1346855E+00
         21   -1    0    0  501  502  0.00000000000E+00  0.00000000000E+00  0.35386929358E+02  0.35386929358E+02  0.00000000000E+00 0.  1.
         21   -1    0    0  502  503 -0.00000000000E+00 -0.00000000000E+00 -0.27225783745E+03  0.27225783745E+03  0.00000000000E+00 0. -1.
         24    1    1    2    0    0  0.31411437670E+02 -0.19957188598E+02 -0.44010667976E+02  0.98939995165E+02  0.80419002446E+02 0.  0.
          1    1    1    2  501    0 -0.35841346809E+02 -0.31216687474E+01 -0.38998574227E+02  0.53058795205E+02  0.00000000000E+00 0. -1.
         -2    1    1    2    0  503  0.44299091396E+01  0.23078857346E+02 -0.15386166589E+03  0.15564597644E+03  0.00000000000E+00 0.  1.
<mgrwt>
<rscale>  2 0.74044874E+02</rscale>
<asrwt>0</asrwt>
<pdfrwt beam="1">  1       21 0.54441428E-02 0.74044874E+02</pdfrwt>
<pdfrwt beam="2">  1       21 0.41885822E-01 0.74044874E+02</pdfrwt>
<totfact> 0.12614119E+06</totfact>
</mgrwt>
</event>
<event>
 5    1  0.1696945E+000  0.1288242E+03  0.7546771E-02  0.1229211E+00
         21   -1    0    0  503  502  0.00000000000E+00  0.00000000000E+00  0.65188740963E+02  0.65188740963E+02  0.00000000000E+00 0.  1.
         21   -1    0    0  501  503 -0.00000000000E+00 -0.00000000000E+00 -0.31912994358E+03  0.31912994358E+03  0.00000000000E+00 0. -1.
         24    1    1    2    0    0 -0.76800844878E+02  0.15028070411E+02 -0.14794663005E+03  0.18568692461E+03  0.80419002446E+02 0.  0.
          1    1    1    2  501    0 -0.25820928226E+02 -0.32320535879E+02 -0.81983240771E+02  0.91829130135E+02  0.00000000000E+00 0. -1.
         -2    1    1    2    0  502  0.10262177310E+03  0.17292465468E+02 -0.24011331798E+02  0.10680262980E+03  0.00000000000E+00 0.  1.
<mgrwt>
<rscale>  2 0.12882419E+03</rscale>
<asrwt>0</asrwt>
<pdfrwt beam="1">  1       21 0.10029037E-01 0.12882419E+03</pdfrwt>
<pdfrwt beam="2">  1       21 0.49096913E-01 0.12882419E+03</pdfrwt>
<totfact> 0.32370527E+05</totfact>
</mgrwt>
</event>
<event>
 5    1  0.1696945E+000  0.1443029E+03  0.7546771E-02  0.1207654E+00
         21   -1    0    0  501  502  0.00000000000E+00  0.00000000000E+00  0.14036600082E+04  0.14036600082E+04  0.00000000000E+00 0. -1.
         21   -1    0    0  502  503 -0.00000000000E+00 -0.00000000000E+00 -0.18620053408E+02  0.18620053408E+02  0.00000000000E+00 0.  1.
         24    1    1    2    0    0  0.71019059342E+02  0.47719237991E+02  0.28163394887E+03  0.30513231487E+03  0.80419002446E+02 0.  1.
          1    1    1    2  501    0 -0.11764589171E+03 -0.31151170221E+02  0.87652095406E+03  0.88492933851E+03  0.00000000000E+00 0. -1.
         -2    1    1    2    0  503  0.46626832365E+02 -0.16568067770E+02  0.22688505189E+03  0.23221840827E+03  0.00000000000E+00 0.  1.
<mgrwt>
<rscale>  2 0.14430286E+03</rscale>
<asrwt>0</asrwt>
<pdfrwt beam="1">  1       21 0.21594761E+00 0.14430286E+03</pdfrwt>
<pdfrwt beam="2">  1       21 0.28646247E-02 0.14430286E+03</pdfrwt>
<totfact> 0.75216608E+04</totfact>
</mgrwt>
</event>
<event>
 5    1  0.1696945E+000  0.4531807E+03  0.7546771E-02  0.1026778E+00
         21   -1    0    0  501  502  0.00000000000E+00  0.00000000000E+00  0.37923939678E+03  0.37923939678E+03  0.00000000000E+00 0.  1.
         21   -1    0    0  502  503 -0.00000000000E+00 -0.00000000000E+00 -0.61349129531E+03  0.61349129531E+03  0.00000000000E+00 0. -1.
         24    1    1    2    0    0  0.41274025016E+03  0.97201040482E+02 -0.27762600918E+02  0.43248183122E+03  0.80419002446E+02 0.  1.
          1    1    1    2  501    0 -0.42726208294E+03 -0.12347978639E+03 -0.10853867573E+03  0.45779994462E+03  0.00000000000E+00 0. -1.
         -2    1    1    2    0  503  0.14521832783E+02  0.26278745905E+02 -0.97950621883E+02  0.10244891625E+03  0.00000000000E+00 0.  1.
<mgrwt>
<rscale>  2 0.45318068E+03</rscale>
<asrwt>0</asrwt>
<pdfrwt beam="1">  1       21 0.58344523E-01 0.45318068E+03</pdfrwt>
<pdfrwt beam="2">  1       21 0.94383276E-01 0.45318068E+03</pdfrwt>
<totfact> 0.22353895E+03</totfact>
</mgrwt>
</event>
<event>
 5    1  0.1696945E+000  0.8509732E+02  0.7546771E-02  0.1315178E+00
         21   -1    0    0  503  502  0.00000000000E+00  0.00000000000E+00  0.79263970275E+01  0.79263970275E+01  0.00000000000E+00 0. -1.
         21   -1    0    0  501  503 -0.00000000000E+00 -0.00000000000E+00 -0.13147861881E+04  0.13147861881E+04  0.00000000000E+00 0.  1.
         24    1    1    2    0    0 -0.33748186680E+02  0.50398207995E+02 -0.10319431742E+04  0.10368475540E+04  0.80419002446E+02 0.  1.
          1    1    1    2  501    0  0.20522170725E+02 -0.36002443838E+01 -0.15605406981E+03  0.15743885783E+03  0.00000000000E+00 0. -1.
         -2    1    1    2    0  502  0.13226015955E+02 -0.46797963611E+02 -0.11886254701E+03  0.12842617326E+03  0.00000000000E+00 0.  1.
<mgrwt>
<rscale>  2 0.85097316E+02</rscale>
<asrwt>0</asrwt>
<pdfrwt beam="1">  1       21 0.12194472E-02 0.85097316E+02</pdfrwt>
<pdfrwt beam="2">  1       21 0.20227455E+00 0.85097316E+02</pdfrwt>
<totfact> 0.37402251E+05</totfact>
</mgrwt>
</event>
<event>
 5    1  0.1696945E+000  0.1416842E+03  0.7546771E-02  0.1211081E+00
         21   -1    0    0  501  502  0.00000000000E+00  0.00000000000E+00  0.85308825054E+02  0.85308825054E+02  0.00000000000E+00 0.  1.
         21   -1    0    0  502  503 -0.00000000000E+00 -0.00000000000E+00 -0.25221320683E+03  0.25221320683E+03  0.00000000000E+00 0. -1.
         24    1    1    2    0    0  0.69461585817E+02 -0.75291803117E+02 -0.62583272086E+02  0.14449100117E+03  0.80419002446E+02 0.  1.
          1    1    1    2  501    0  0.27977525050E+02  0.41403987134E+02 -0.56704779073E+01  0.50291016874E+02  0.00000000000E+00 0. -1.
         -2    1    1    2    0  503 -0.97439110867E+02  0.33887815983E+02 -0.98650631779E+02  0.14274001383E+03  0.00000000000E+00 0.  1.
<mgrwt>
<rscale>  2 0.14168421E+03</rscale>
<asrwt>0</asrwt>
<pdfrwt beam="1">  1       21 0.13124435E-01 0.14168421E+03</pdfrwt>
<pdfrwt beam="2">  1       21 0.38802031E-01 0.14168421E+03</pdfrwt>
<totfact> 0.32336994E+05</totfact>
</mgrwt>
</event>
<event>
 5    1  0.1696945E+000  0.8377796E+02  0.7546771E-02  0.1318660E+00
         21   -1    0    0  503  502  0.00000000000E+00  0.00000000000E+00  0.28082974699E+03  0.28082974699E+03  0.00000000000E+00 0.  1.
         21   -1    0    0  501  503 -0.00000000000E+00 -0.00000000000E+00 -0.34495076432E+02  0.34495076432E+02  0.00000000000E+00 0.  1.
         24    1    1    2    0    0  0.52325856102E+02 -0.26280148888E+02  0.14422132136E+03  0.17520173210E+03  0.80419002446E+02 0.  1.
          1    1    1    2  501    0 -0.84263519212E+01  0.22488179808E+02 -0.47961209655E+01  0.24489271408E+02  0.00000000000E+00 0. -1.
         -2    1    1    2    0  502 -0.43899504181E+02  0.37919690799E+01  0.10690947017E+03  0.11563381992E+03  0.00000000000E+00 0.  1.
<mgrwt>
<rscale>  2 0.83777963E+02</rscale>
<asrwt>0</asrwt>
<pdfrwt beam="1">  1       21 0.43204575E-01 0.83777963E+02</pdfrwt>
<pdfrwt beam="2">  1       21 0.53069350E-02 0.83777963E+02</pdfrwt>
<totfact> 0.12417310E+06</totfact>
</mgrwt>
</event>
<event>
 5    1  0.1696945E+000  0.1111355E+03  0.7546771E-02  0.1258481E+00
         21   -1    0    0  501  502  0.00000000000E+00  0.00000000000E+00  0.71852260141E+02  0.71852260141E+02  0.00000000000E+00 0. -1.
         21   -1    0    0  502  503 -0.00000000000E+00 -0.00000000000E+00 -0.38914881278E+03  0.38914881278E+03  0.00000000000E+00 0.  1.
         24    1    1    2    0    0  0.46001695513E+01 -0.58071940033E+01 -0.21016939514E+03  0.22515167259E+03  0.80419002446E+02 0.  0.
          1    1    1    2  501    0 -0.10970529004E+02 -0.67269236481E+02  0.34471052345E+02  0.76379029407E+02  0.00000000000E+00 0. -1.
         -2    1    1    2    0  503  0.63703594525E+01  0.73076430484E+02 -0.14159820984E+03  0.15947037092E+03  0.00000000000E+00 0.  1.
<mgrwt>
<rscale>  2 0.11113551E+03</rscale>
<asrwt>0</asrwt>
<pdfrwt beam="1">  1       21 0.11054194E-01 0.11113551E+03</pdfrwt>
<pdfrwt beam="2">  1       21 0.59869048E-01 0.11113551E+03</pdfrwt>
<totfact> 0.18129153E+05</totfact>
</mgrwt>
</event>
<event>
 5    1  0.1696945E+000  0.8508845E+02  0.7546771E-02  0.1315201E+00
         21   -1    0    0  501  502  0.00000000000E+00  0.00000000000E+00  0.73907905300E+03  0.73907905300E+03  0.00000000000E+00 0.  1.
         21   -1    0    0  502  503 -0.00000000000E+00 -0.00000000000E+00 -0.10998478930E+02  0.10998478930E+02  0.00000000000E+00 0. -1.
         24    1    1    2    0    0  0.46522028890E+01 -0.16188734854E+02  0.25651460615E+03  0.26935232921E+03  0.80419002446E+02 0. -1.
          1    1    1    2  501    0  0.37404216968E+02  0.25070301616E+02  0.32103265622E+03  0.32417520237E+03  0.00000000000E+00 0. -1.
         -2    1    1    2    0  503 -0.42056419856E+02 -0.88815667628E+01  0.15053331170E+03  0.15655000035E+03  0.00000000000E+00 0.  1.
<mgrwt>
<rscale>  2 0.85088451E+02</rscale>
<asrwt>0</asrwt>
<pdfrwt beam="1">  1       21 0.11370443E+00 0.85088451E+02</pdfrwt>
<pdfrwt beam="2">  1       21 0.16920743E-02 0.85088451E+02</pdfrwt>
<totfact> 0.98030083E+05</totfact>
</mgrwt>
</event>
<event>
 5    1  0.1696945E+000  0.1940172E+03  0.7546771E-02  0.1154887E+00
         21   -1    0    0  501  502  0.00000000000E+00  0.00000000000E+00  0.64902662149E+02  0.64902662149E+02  0.00000000000E+00 0. -1.
         21   -1    0    0  502  503 -0.00000000000E+00 -0.00000000000E+00 -0.63430719776E+03  0.63430719776E+03  0.00000000000E+00 0. -1.
         24    1    1    2    0    0  0.14436760496E+03 -0.37572421550E+01 -0.26762542527E+03  0.31455795401E+03  0.80419002446E+02 0. -1.
          1    1    1    2  501    0 -0.13012490052E+03  0.74927454008E+02 -0.13168254062E+03  0.19971706137E+03  0.00000000000E+00 0. -1.
         -2    1    1    2    0  503 -0.14242704435E+02 -0.71170211853E+02 -0.17009656973E+03  0.18493484453E+03  0.00000000000E+00 0.  1.
<mgrwt>
<rscale>  2 0.19401719E+03</rscale>
<asrwt>0</asrwt>
<pdfrwt beam="1">  1       21 0.99850244E-02 0.19401719E+03</pdfrwt>
<pdfrwt beam="2">  1       21 0.97585728E-01 0.19401719E+03</pdfrwt>
<totfact> 0.70720672E+04</totfact>
</mgrwt>
</event>
<event>
 5    1  0.1696945E+000  0.8865794E+02  0.7546771E-02  0.1306135E+00
         21   -1    0    0  501  502  0.00000000000E+00  0.00000000000E+00  0.43449154328E+01  0.43449154328E+01  0.00000000000E+00 0.  1.
         21   -1    0    0  502  503 -0.00000000000E+00 -0.00000000000E+00 -0.30586103241E+04  0.30586103241E+04  0.00000000000E+00 0. -1.
         24    1    1    2    0    0  0.18850254019E+02 -0.34555815374E+02 -0.65026606809E+03  0.65640125817E+03  0.80419002446E+02 0. -1.
          1    1    1    2  501    0  0.25047753270E+02 -0.83437418988E+01 -0.20434073067E+03  0.20603917633E+03  0.00000000000E+00 0. -1.
         -2    1    1    2    0  503 -0.43898007289E+02  0.42899557273E+02 -0.21996586099E+04  0.22005148050E+04  0.00000000000E+00 0.  1.
<mgrwt>
<rscale>  2 0.88657938E+02</rscale>
<asrwt>0</asrwt>
<pdfrwt beam="1">  1       21 0.66845067E-03 0.88657938E+02</pdfrwt>
<pdfrwt beam="2">  1       21 0.47055393E+00 0.88657938E+02</pdfrwt>
<totfact> 0.25909435E+04</totfact>
</mgrwt>
</event>
<event>
 5    1  0.1696945E+000  0.7077460E+02  0.7546771E-02  0.1357479E+00
         21   -1    0    0  501  502  0.00000000000E+00  0.00000000000E+00  0.22027166817E+02  0.22027166817E+02  0.00000000000E+00 0.  1.
         21   -1    0    0  502  503 -0.00000000000E+00 -0.00000000000E+00 -0.31180735390E+03  0.31180735390E+03  0.00000000000E+00 0. -1.
         24    1    1    2    0    0 -0.14548509301E+02 -0.20716650480E+02 -0.11382493640E+03  0.14164805269E+03  0.80419002446E+02 0. -1.
          1    1    1    2  501    0  0.26758625348E+02 -0.63892747495E+01 -0.21553079617E+02  0.34948277545E+02  0.00000000000E+00 0. -1.
         -2    1    1    2    0  503 -0.12210116048E+02  0.27105925229E+02 -0.15440217107E+03  0.15723819049E+03  0.00000000000E+00 0.  1.
<mgrwt>
<rscale>  2 0.70774604E+02</rscale>
<asrwt>0</asrwt>
<pdfrwt beam="1">  1       21 0.33887950E-02 0.70774604E+02</pdfrwt>
<pdfrwt beam="2">  1       21 0.47970360E-01 0.70774604E+02</pdfrwt>
<totfact> 0.20920515E+06</totfact>
</mgrwt>
</event>
<event>
 5    1  0.1696945E+000  0.6525578E+02  0.7546771E-02  0.1377012E+00
         21   -1    0    0  501  502  0.00000000000E+00  0.00000000000E+00  0.13685274053E+03  0.13685274053E+03  0.00000000000E+00 0.  1.
         21   -1    0    0  502  503 -0.00000000000E+00 -0.00000000000E+00 -0.81768769353E+02  0.81768769353E+02  0.00000000000E+00 0.  1.
         24    1    1    2    0    0  0.26189917998E+02 -0.10519058571E+02  0.14073652617E+02  0.86381977578E+02  0.80419002446E+02 0.  0.
          1    1    1    2  501    0 -0.10294636193E+02  0.22918369135E+02  0.82430305535E+02  0.86174163464E+02  0.00000000000E+00 0. -1.
         -2    1    1    2    0  503 -0.15895281805E+02 -0.12399310564E+02 -0.41419986971E+02  0.46065368845E+02  0.00000000000E+00 0.  1.
<mgrwt>
<rscale>  2 0.65255777E+02</rscale>
<asrwt>0</asrwt>
<pdfrwt beam="1">  1       21 0.21054268E-01 0.65255777E+02</pdfrwt>
<pdfrwt beam="2">  1       21 0.12579811E-01 0.65255777E+02</pdfrwt>
<totfact> 0.11130131E+06</totfact>
</mgrwt>
</event>
<event>
 5    1  0.1696945E+000  0.7805254E+02  0.7546771E-02  0.1334671E+00
         21   -1    0    0  501  502  0.00000000000E+00  0.00000000000E+00  0.31923594072E+02  0.31923594072E+02  0.00000000000E+00 0. -1.
         21   -1    0    0  502  503 -0.00000000000E+00 -0.00000000000E+00 -0.22780946785E+03  0.22780946785E+03  0.00000000000E+00 0. -1.
         24    1    1    2    0    0  0.22174743339E+02 -0.19003897979E+02 -0.11807876344E+03  0.14581727507E+03  0.80419002446E+02 0. -1.
          1    1    1    2  501    0 -0.42231891938E+02  0.25658285486E+02 -0.21717052622E+02  0.53976945869E+02  0.00000000000E+00 0. -1.
         -2    1    1    2    0  503  0.20057148599E+02 -0.66543875077E+01 -0.56090057721E+02  0.59938840981E+02  0.00000000000E+00 0.  1.
<mgrwt>
<rscale>  2 0.78052538E+02</rscale>
<asrwt>0</asrwt>
<pdfrwt beam="1">  1       21 0.49113220E-02 0.78052538E+02</pdfrwt>
<pdfrwt beam="2">  1       21 0.35047612E-01 0.78052538E+02</pdfrwt>
<totfact> 0.21254261E+06</totfact>
</mgrwt>
</event>
<event>
 5    1  0.2073191E+000  0.1027685E+03  0.7546771E-02  0.1274580E+00
         21   -1    0    0  501  502  0.00000000000E+00  0.00000000000E+00  0.12411652012E+03  0.12411652012E+03  0.00000000000E+00 0.  1.
         21   -1    0    0  502  503 -0.00000000000E+00 -0.00000000000E+00 -0.13050731373E+04  0.13050731373E+04  0.00000000000E+00 0.  1.
         24    1    1    2    0    0 -0.24523887017E+02  0.43021755764E+02  0.34877293292E+02  0.10067737603E+03  0.80419002446E+02 0.  1.
          1    1    1    2  501    0  0.18096579844E+02  0.31482446767E+02  0.49266793650E+02  0.61203330082E+02  0.00000000000E+00 0. -1.
         -2    1    1    2    0  503  0.64273071733E+01 -0.74504202532E+02 -0.12651007041E+04  0.12673089513E+04  0.00000000000E+00 0.  1.
<mgrwt>
<rscale>  2 0.10276851E+03</rscale>
<asrwt>0</asrwt>
<pdfrwt beam="1">  1       21 0.19094849E-01 0.10276851E+03</pdfrwt>
<pdfrwt beam="2">  1       21 0.20078049E+00 0.10276851E+03</pdfrwt>
<totfact> 0.37333385E+03</totfact>
</mgrwt>
</event>
<event>
 5    1  0.1696945E+000  0.1276761E+03  0.7546771E-02  0.1230945E+00
         21   -1    0    0  503  502  0.00000000000E+00  0.00000000000E+00  0.68502471935E+03  0.68502471935E+03  0.00000000000E+00 0. -1.
         21   -1    0    0  501  503 -0.00000000000E+00 -0.00000000000E+00 -0.44896154708E+02  0.44896154708E+02  0.00000000000E+00 0. -1.
         24    1    1    2    0    0  0.98287828177E+01 -0.10977104418E+03  0.25572280444E+03  0.28984074210E+03  0.80419002446E+02 0. -1.
          1    1    1    2  501    0  0.15709052719E+02  0.19143105802E+02 -0.15516509264E+02  0.29223191079E+02  0.00000000000E+00 0. -1.
         -2    1    1    2    0  502 -0.25537835537E+02  0.90627938382E+02  0.39992226947E+03  0.41085694089E+03  0.00000000000E+00 0.  1.
<mgrwt>
<rscale>  2 0.12767609E+03</rscale>
<asrwt>0</asrwt>
<pdfrwt beam="1">  1       21 0.10538841E+00 0.12767609E+03</pdfrwt>
<pdfrwt beam="2">  1       21 0.69071012E-02 0.12767609E+03</pdfrwt>
<totfact> 0.11513109E+05</totfact>
</mgrwt>
</event>
<event>
 5    1  0.1696945E+000  0.6844826E+02  0.7546771E-02  0.1365451E+00
         21   -1    0    0  503  502  0.00000000000E+00  0.00000000000E+00  0.69077744701E+02  0.69077744701E+02  0.00000000000E+00 0.  1.
         21   -1    0    0  501  503 -0.00000000000E+00 -0.00000000000E+00 -0.96274814426E+02  0.96274814426E+02  0.00000000000E+00 0.  1.
         24    1    1    2    0    0  0.11193320634E+02  0.13690894420E+02 -0.37786957389E+02  0.90596915621E+02  0.80419002446E+02 0.  0.
          1    1    1    2  501    0 -0.31813335158E+02 -0.11465366355E+02 -0.18872017478E+02  0.38725908165E+02  0.00000000000E+00 0. -1.
         -2    1    1    2    0  502  0.20620014524E+02 -0.22255280650E+01  0.29461905142E+02  0.36029735341E+02  0.00000000000E+00 0.  1.
<mgrwt>
<rscale>  2 0.68448256E+02</rscale>
<asrwt>0</asrwt>
<pdfrwt beam="1">  1       21 0.10627345E-01 0.68448256E+02</pdfrwt>
<pdfrwt beam="2">  1       21 0.14811510E-01 0.68448256E+02</pdfrwt>
<totfact> 0.28093192E+06</totfact>
</mgrwt>
</event>
<event>
 5    1  0.1696945E+000  0.6380104E+02  0.7546771E-02  0.1382539E+00
         21   -1    0    0  503  502  0.00000000000E+00  0.00000000000E+00  0.35661392624E+03  0.35661392624E+03  0.00000000000E+00 0. -1.
         21   -1    0    0  501  503 -0.00000000000E+00 -0.00000000000E+00 -0.14317008899E+02  0.14317008899E+02  0.00000000000E+00 0.  1.
         24    1    1    2    0    0 -0.11982711788E+02 -0.10312513895E+02  0.20528876668E+03  0.22104440053E+03  0.80419002446E+02 0.  0.
          1    1    1    2  501    0  0.19410251512E+02 -0.11527601396E+02  0.18595738616E+02  0.29247990570E+02  0.00000000000E+00 0. -1.
         -2    1    1    2    0  502 -0.74275397245E+01  0.21840115291E+02  0.11841241204E+03  0.12063854404E+03  0.00000000000E+00 0.  1.
<mgrwt>
<rscale>  2 0.63801036E+02</rscale>
<asrwt>0</asrwt>
<pdfrwt beam="1">  1       21 0.54863674E-01 0.63801036E+02</pdfrwt>
<pdfrwt beam="2">  1       21 0.22026170E-02 0.63801036E+02</pdfrwt>
<totfact> 0.31651083E+06</totfact>
</mgrwt>
</event>
<event>
 5    1  0.1696945E+000  0.7175425E+02  0.7546771E-02  0.1354227E+00
         21   -1    0    0  501  502  0.00000000000E+00  0.00000000000E+00  0.62164902171E+02  0.62164902171E+02  0.00000000000E+00 0. -1.
         21   -1    0    0  502  503 -0.00000000000E+00 -0.00000000000E+00 -0.83592685649E+02  0.83592685649E+02  0.00000000000E+00 0.  1.
         24    1    1    2    0    0  0.28862248307E+01  0.43110626553E+02 -0.19524062839E+02  0.93355564374E+02  0.80419002446E+02 0. -1.
          1    1    1    2  501    0 -0.15457535095E+02 -0.15553597355E+02  0.11564414502E+01  0.21958759954E+02  0.00000000000E+00 0. -1.
         -2    1    1    2    0  503  0.12571310264E+02 -0.27557029198E+02 -0.30601620893E+01  0.30443263491E+02  0.00000000000E+00 0.  1.
<mgrwt>
<rscale>  2 0.71754248E+02</rscale>
<asrwt>0</asrwt>
<pdfrwt beam="1">  1       21 0.95638311E-02 0.71754248E+02</pdfrwt>
<pdfrwt beam="2">  1       21 0.12860413E-01 0.71754248E+02</pdfrwt>
<totfact> 0.43331500E+06</totfact>
</mgrwt>
</event>
<event>
 5    1  0.1696945E+000  0.6734946E+02  0.7546771E-02  0.1369346E+00
         21   -1    0    0  501  502  0.00000000000E+00  0.00000000000E+00  0.60944380573E+03  0.60944380573E+03  0.00000000000E+00 0. -1.
         21   -1    0    0  502  503 -0.00000000000E+00 -0.00000000000E+00 -0.13611336354E+02  0.13611336354E+02  0.00000000000E+00 0. -1.
         24    1    1    2    0    0 -0.15477772266E+02 -0.34442415197E+02  0.18133436805E+03  0.20192872601E+03  0.80419002446E+02 0. -1.
          1    1    1    2  501    0 -0.44555706242E+01  0.21802136151E+02  0.37074944378E+03  0.37141665998E+03  0.00000000000E+00 0. -1.
         -2    1    1    2    0  503  0.19933342891E+02  0.12640279046E+02  0.43748657548E+02  0.49709756089E+02  0.00000000000E+00 0.  1.
<mgrwt>
<rscale>  2 0.67349459E+02</rscale>
<asrwt>0</asrwt>
<pdfrwt beam="1">  1       21 0.93760564E-01 0.67349459E+02</pdfrwt>
<pdfrwt beam="2">  1       21 0.20940522E-02 0.67349459E+02</pdfrwt>
<totfact> 0.10882226E+06</totfact>
</mgrwt>
</event>
<event>
 5    1  0.1696945E+000  0.7997601E+02  0.7546771E-02  0.1329120E+00
         21   -1    0    0  503  502  0.00000000000E+00  0.00000000000E+00  0.86753477923E+02  0.86753477923E+02  0.00000000000E+00 0. -1.
         21   -1    0    0  501  503 -0.00000000000E+00 -0.00000000000E+00 -0.79273357933E+02  0.79273357933E+02  0.00000000000E+00 0.  1.
         24    1    1    2    0    0  0.18940279073E+02 -0.53010354338E+02  0.16336631154E+02  0.99513483058E+02  0.80419002446E+02 0.  1.
          1    1    1    2  501    0 -0.22374130709E+02  0.24924979054E+02 -0.16309167193E+02  0.37253794979E+02  0.00000000000E+00 0. -1.
         -2    1    1    2    0  502  0.34338516360E+01  0.28085375284E+02  0.74526560287E+01  0.29259557819E+02  0.00000000000E+00 0.  1.
<mgrwt>
<rscale>  2 0.79976006E+02</rscale>
<asrwt>0</asrwt>
<pdfrwt beam="1">  1       21 0.13346689E-01 0.79976006E+02</pdfrwt>
<pdfrwt beam="2">  1       21 0.12195901E-01 0.79976006E+02</pdfrwt>
<totfact> 0.26816767E+06</totfact>
</mgrwt>
</event>
<event>
 5    1  0.1696945E+000  0.9970391E+02  0.7546771E-02  0.1280920E+00
         21   -1    0    0  501  502  0.00000000000E+00  0.00000000000E+00  0.51288268537E+02  0.51288268537E+02  0.00000000000E+00 0. -1.
         21   -1    0    0  502  503 -0.00000000000E+00 -0.00000000000E+00 -0.75393233084E+03  0.75393233084E+03  0.00000000000E+00 0.  1.
         24    1    1    2    0    0  0.10946978895E+02 -0.27630246372E+02 -0.96940375985E+02  0.12941375241E+03  0.80419002446E+02 0. -1.
          1    1    1    2  501    0 -0.56809661936E+02 -0.55296319005E+01  0.96224334200E+01  0.57883553305E+02  0.00000000000E+00 0. -1.
         -2    1    1    2    0  503  0.45862683041E+02  0.33159878273E+02 -0.61532611973E+03  0.61792329366E+03  0.00000000000E+00 0.  1.
<mgrwt>
<rscale>  2 0.99703914E+02</rscale>
<asrwt>0</asrwt>
<pdfrwt beam="1">  1       21 0.78905031E-02 0.99703914E+02</pdfrwt>
<pdfrwt beam="2">  1       21 0.11598959E+00 0.99703914E+02</pdfrwt>
<totfact> 0.74105017E+04</totfact>
</mgrwt>
</event>
<event>
 5    1  0.1696945E+000  0.9699860E+02  0.7546771E-02  0.1286737E+00
         21   -1    0    0  503  502  0.00000000000E+00  0.00000000000E+00  0.54047277019E+03  0.54047277019E+03  0.00000000000E+00 0.  1.
         21   -1    0    0  501  503 -0.00000000000E+00 -0.00000000000E+00 -0.35797794716E+02  0.35797794716E+02  0.00000000000E+00 0.  1.
         24    1    1    2    0    0 -0.59941471587E+02  0.50209576964E+02  0.13370338896E+03  0.17452161416E+03  0.80419002446E+02 0.  1.
          1    1    1    2  501    0  0.24963466413E+02 -0.63994093443E+01 -0.79143586665E+00  0.25782813385E+02  0.00000000000E+00 0. -1.
         -2    1    1    2    0  502  0.34978005174E+02 -0.43810167620E+02  0.37176302238E+03  0.37596613736E+03  0.00000000000E+00 0.  1.
<mgrwt>
<rscale>  2 0.96998604E+02</rscale>
<asrwt>0</asrwt>
<pdfrwt beam="1">  1       21 0.83149651E-01 0.96998604E+02</pdfrwt>
<pdfrwt beam="2">  1       21 0.55073534E-02 0.96998604E+02</pdfrwt>
<totfact> 0.29430108E+05</totfact>
</mgrwt>
</event>
<event>
 5    1  0.1696945E+000  0.1742145E+03  0.7546771E-02  0.1173523E+00
         21   -1    0    0  503  502  0.00000000000E+00  0.00000000000E+00  0.24947106670E+03  0.24947106670E+03  0.00000000000E+00 0.  1.
         21   -1    0    0  501  503 -0.00000000000E+00 -0.00000000000E+00 -0.21622255384E+03  0.21622255384E+03  0.00000000000E+00 0. -1.
         24    1    1    2    0    0  0.13578052546E+02  0.88629818871E+02 -0.97795445868E+02  0.15514758616E+03  0.80419002446E+02 0.  1.
          1    1    1    2  501    0 -0.36923260965E+02  0.63834248063E+02 -0.36950923678E+02  0.82483387338E+02  0.00000000000E+00 0. -1.
         -2    1    1    2    0  502  0.23345208419E+02 -0.15246406693E+03  0.16799488240E+03  0.22806264704E+03  0.00000000000E+00 0.  1.
<mgrwt>
<rscale>  2 0.17421451E+03</rscale>
<asrwt>0</asrwt>
<pdfrwt beam="1">  1       21 0.38380164E-01 0.17421451E+03</pdfrwt>
<pdfrwt beam="2">  1       21 0.33265008E-01 0.17421451E+03</pdfrwt>
<totfact> 0.57450816E+04</totfact>
</mgrwt>
</event>
<event>
 5    1  0.1696945E+000  0.1369008E+03  0.7546771E-02  0.1217561E+00
         21   -1    0    0  503  502  0.00000000000E+00  0.00000000000E+00  0.81157302515E+02  0.81157302515E+02  0.00000000000E+00 0.  1.
         21   -1    0    0  501  503 -0.00000000000E+00 -0.00000000000E+00 -0.41505160765E+03  0.41505160765E+03  0.00000000000E+00 0.  1.
         24    1    1    2    0    0  0.12119237675E+02 -0.11647590200E+02 -0.21820682976E+03  0.23316084317E+03  0.80419002446E+02 0.  1.
          1    1    1    2  501    0  0.80882743887E+01 -0.88808589259E+02 -0.13198945690E+03  0.15929093647E+03  0.00000000000E+00 0. -1.
         -2    1    1    2    0  502 -0.20207512063E+02  0.10045617946E+03  0.16301981517E+02  0.10375713053E+03  0.00000000000E+00 0.  1.
<mgrwt>
<rscale>  2 0.13690077E+03</rscale>
<asrwt>0</asrwt>
<pdfrwt beam="1">  1       21 0.12485739E-01 0.13690077E+03</pdfrwt>
<pdfrwt beam="2">  1       21 0.63854093E-01 0.13690077E+03</pdfrwt>
<totfact> 0.12630736E+05</totfact>
</mgrwt>
</event>
<event>
 5    1  0.3146571E+000  0.8346733E+02  0.7546771E-02  0.1319490E+00
         21   -1    0    0  503  502  0.00000000000E+00  0.00000000000E+00  0.94213028056E+02  0.94213028056E+02  0.00000000000E+00 0.  1.
         21   -1    0    0  501  503 -0.00000000000E+00 -0.00000000000E+00 -0.66517719664E+03  0.66517719664E+03  0.00000000000E+00 0. -1.
         24    1    1    2    0    0  0.21247258100E+02 -0.10033283711E+02  0.44325191283E+02  0.94784235480E+02  0.80419002446E+02 0.  0.
          1    1    1    2  501    0 -0.42207765101E+02 -0.19857523962E+02 -0.62507232392E+03  0.62681035954E+03  0.00000000000E+00 0. -1.
         -2    1    1    2    0  502  0.20960507000E+02  0.29890807673E+02  0.97829640532E+01  0.37795629678E+02  0.00000000000E+00 0.  1.
<mgrwt>
<rscale>  2 0.83467331E+02</rscale>
<asrwt>0</asrwt>
<pdfrwt beam="1">  1       21 0.14494312E-01 0.83467331E+02</pdfrwt>
<pdfrwt beam="2">  1       21 0.10233495E+00 0.83467331E+02</pdfrwt>
<totfact> 0.34965489E+04</totfact>
</mgrwt>
</event>
<event>
 5    1  0.1696945E+000  0.1000985E+03  0.7546771E-02  0.1280089E+00
         21   -1    0    0  503  502  0.00000000000E+00  0.00000000000E+00  0.10233687730E+03  0.10233687730E+03  0.00000000000E+00 0.  1.
         21   -1    0    0  501  503 -0.00000000000E+00 -0.00000000000E+00 -0.12702799087E+03  0.12702799087E+03  0.00000000000E+00 0.  1.
         24    1    1    2    0    0 -0.17704372723E+00  0.83934909084E+02 -0.33661094474E+02  0.12101812072E+03  0.80419002446E+02 0.  1.
          1    1    1    2  501    0 -0.77692244147E+00 -0.25537942922E+02 -0.29026914462E+02  0.38669780195E+02  0.00000000000E+00 0. -1.
         -2    1    1    2    0  502  0.95396616870E+00 -0.58396966162E+02  0.37996895360E+02  0.69676967251E+02  0.00000000000E+00 0.  1.
<mgrwt>
<rscale>  2 0.10009850E+03</rscale>
<asrwt>0</asrwt>
<pdfrwt beam="1">  1       21 0.15744135E-01 0.10009850E+03</pdfrwt>
<pdfrwt beam="2">  1       21 0.19542768E-01 0.10009850E+03</pdfrwt>
<totfact> 0.86563687E+05</totfact>
</mgrwt>
</event>
<event>
 5    1  0.1696945E+000  0.8456335E+02  0.7546771E-02  0.1316578E+00
         21   -1    0    0  503  502  0.00000000000E+00  0.00000000000E+00  0.20791235130E+02  0.20791235130E+02  0.00000000000E+00 0. -1.
         21   -1    0    0  501  503 -0.00000000000E+00 -0.00000000000E+00 -0.37522865285E+03  0.37522865285E+03  0.00000000000E+00 0. -1.
         24    1    1    2    0    0 -0.20192832791E+02  0.30857075822E+02 -0.15658299992E+03  0.17984816219E+03  0.80419002446E+02 0. -1.
          1    1    1    2  501    0 -0.13192355608E+02 -0.43117377182E+02 -0.14946439059E+03  0.15611774568E+03  0.00000000000E+00 0. -1.
         -2    1    1    2    0  502  0.33385188399E+02  0.12260301360E+02 -0.48390027205E+02  0.60053980107E+02  0.00000000000E+00 0.  1.
<mgrwt>
<rscale>  2 0.84563351E+02</rscale>
<asrwt>0</asrwt>
<pdfrwt beam="1">  1       21 0.31986518E-02 0.84563351E+02</pdfrwt>
<pdfrwt beam="2">  1       21 0.57727481E-01 0.84563351E+02</pdfrwt>
<totfact> 0.15833066E+06</totfact>
</mgrwt>
</event>
<event>
 5    1  0.1696945E+000  0.7263192E+02  0.7546771E-02  0.1351365E+00
         21   -1    0    0  501  502  0.00000000000E+00  0.00000000000E+00  0.53823002018E+02  0.53823002018E+02  0.00000000000E+00 0.  1.
         21   -1    0    0  502  503 -0.00000000000E+00 -0.00000000000E+00 -0.43380159854E+03  0.43380159854E+03  0.00000000000E+00 0.  1.
         24    1    1    2    0    0  0.15797216599E+02 -0.37675499739E+02 -0.19629796143E+02  0.92312188707E+02  0.80419002446E+02 0.  1.
          1    1    1    2  501    0  0.10757558802E+02  0.21306791116E+02  0.83571181005E+01  0.25289243603E+02  0.00000000000E+00 0. -1.
         -2    1    1    2    0  503 -0.26554775401E+02  0.16368708623E+02 -0.36870591848E+03  0.37002316825E+03  0.00000000000E+00 0.  1.
<mgrwt>
<rscale>  2 0.72631917E+02</rscale>
<asrwt>0</asrwt>
<pdfrwt beam="1">  1       21 0.82804618E-02 0.72631917E+02</pdfrwt>
<pdfrwt beam="2">  1       21 0.66738708E-01 0.72631917E+02</pdfrwt>
<totfact> 0.24001952E+05</totfact>
</mgrwt>
</event>
<event>
 5    1  0.1696945E+000  0.8367475E+02  0.7546771E-02  0.1318935E+00
         21   -1    0    0  501  502  0.00000000000E+00  0.00000000000E+00  0.60334928022E+02  0.60334928022E+02  0.00000000000E+00 0.  1.
         21   -1    0    0  502  503 -0.00000000000E+00 -0.00000000000E+00 -0.11847692879E+03  0.11847692879E+03  0.00000000000E+00 0.  1.
         24    1    1    2    0    0  0.55163596265E+01 -0.38225952040E+02 -0.25735584542E+02  0.92850362945E+02  0.80419002446E+02 0.  1.
          1    1    1    2  501    0 -0.31438007515E+02 -0.61101412955E+00 -0.50559812436E+01  0.31847835109E+02  0.00000000000E+00 0. -1.
         -2    1    1    2    0  503  0.25921647889E+02  0.38836966170E+02 -0.27350434984E+02  0.54113658760E+02  0.00000000000E+00 0.  1.
<mgrwt>
<rscale>  2 0.83674750E+02</rscale>
<asrwt>0</asrwt>
<pdfrwt beam="1">  1       21 0.92822967E-02 0.83674750E+02</pdfrwt>
<pdfrwt beam="2">  1       21 0.18227220E-01 0.83674750E+02</pdfrwt>
<totfact> 0.24738546E+06</totfact>
</mgrwt>
</event>
<event>
 5    1  0.1696945E+000  0.1343911E+03  0.7546771E-02  0.1221082E+00
         21   -1    0    0  501  502  0.00000000000E+00  0.00000000000E+00  0.22721122669E+03  0.22721122669E+03  0.00000000000E+00 0. -1.
         21   -1    0    0  502  503 -0.00000000000E+00 -0.00000000000E+00 -0.10205910027E+03  0.10205910027E+03  0.00000000000E+00 0. -1.
         24    1    1    2    0    0  0.60477952098E+02  0.82259798948E+02  0.61788977295E+02  0.14390743859E+03  0.80419002446E+02 0. -1.
          1    1    1    2  501    0 -0.47979725483E+02 -0.10355095135E+03  0.92692117433E+02  0.14702612767E+03  0.00000000000E+00 0. -1.
         -2    1    1    2    0  503 -0.12498226615E+02  0.21291152402E+02 -0.29328968306E+02  0.38336760701E+02  0.00000000000E+00 0.  1.
<mgrwt>
<rscale>  2 0.13439106E+03</rscale>
<asrwt>0</asrwt>
<pdfrwt beam="1">  1       21 0.34955573E-01 0.13439106E+03</pdfrwt>
<pdfrwt beam="2">  1       21 0.15701400E-01 0.13439106E+03</pdfrwt>
<totfact> 0.28837121E+05</totfact>
</mgrwt>
</event>
<event>
 5    1  0.1696945E+000  0.2247020E+03  0.7546771E-02  0.1130425E+00
         21   -1    0    0  501  502  0.00000000000E+00  0.00000000000E+00  0.18545402597E+03  0.18545402597E+03  0.00000000000E+00 0. -1.
         21   -1    0    0  502  503 -0.00000000000E+00 -0.00000000000E+00 -0.52553752861E+03  0.52553752861E+03  0.00000000000E+00 0.  1.
         24    1    1    2    0    0 -0.43792812181E+02 -0.11851103546E+03 -0.14512728733E+03  0.20854692854E+03  0.80419002446E+02 0. -1.
          1    1    1    2  501    0  0.15767873140E+03  0.92539179830E+02  0.83116234271E+02  0.20083423647E+03  0.00000000000E+00 0. -1.
         -2    1    1    2    0  503 -0.11388591922E+03  0.25971855627E+02 -0.27807244958E+03  0.30161038957E+03  0.00000000000E+00 0.  1.
<mgrwt>
<rscale>  2 0.22470199E+03</rscale>
<asrwt>0</asrwt>
<pdfrwt beam="1">  1       21 0.28531389E-01 0.22470199E+03</pdfrwt>
<pdfrwt beam="2">  1       21 0.80851926E-01 0.22470199E+03</pdfrwt>
<totfact> 0.15467430E+04</totfact>
</mgrwt>
</event>
<event>
 5    1  0.1827455E+000  0.7869141E+02  0.7546771E-02  0.1332807E+00
         21   -1    0    0  503  502  0.00000000000E+00  0.00000000000E+00  0.17465265911E+04  0.17465265911E+04  0.00000000000E+00 0. -1.
         21   -1    0    0  501  503 -0.00000000000E+00 -0.00000000000E+00 -0.21786729169E+02  0.21786729169E+02  0.00000000000E+00 0. -1.
         24    1    1    2    0    0  0.14607353696E+02  0.56273691460E+02  0.15928693866E+04  0.15959574562E+04  0.80419002446E+02 0. -1.
          1    1    1    2  501    0 -0.81565258300E+01 -0.33582083721E+02 -0.36928879086E+01  0.34755182085E+02  0.00000000000E+00 0. -1.
         -2    1    1    2    0  502 -0.64508278664E+01 -0.22691607739E+02  0.13556336321E+03  0.13760068199E+03  0.00000000000E+00 0.  1.
<mgrwt>
<rscale>  2 0.78691408E+02</rscale>
<asrwt>0</asrwt>
<pdfrwt beam="1">  1       21 0.26869629E+00 0.78691408E+02</pdfrwt>
<pdfrwt beam="2">  1       21 0.33518059E-02 0.78691408E+02</pdfrwt>
<totfact> 0.31321824E+04</totfact>
</mgrwt>
</event>
<event>
 5    1  0.1696945E+000  0.8725722E+02  0.7546771E-02  0.1309633E+00
         21   -1    0    0  501  502  0.00000000000E+00  0.00000000000E+00  0.57077103910E+02  0.57077103910E+02  0.00000000000E+00 0.  1.
         21   -1    0    0  502  503 -0.00000000000E+00 -0.00000000000E+00 -0.24677225415E+03  0.24677225415E+03  0.00000000000E+00 0.  1.
         24    1    1    2    0    0 -0.67972406946E+02 -0.53821545331E+01 -0.14789867103E+02  0.10646676391E+03  0.80419002446E+02 0.  1.
          1    1    1    2  501    0  0.38943249188E+02 -0.24268976161E+01 -0.29534594355E+02  0.48936272366E+02  0.00000000000E+00 0. -1.
         -2    1    1    2    0  503  0.29029157759E+02  0.78090521492E+01 -0.14537068878E+03  0.14844632179E+03  0.00000000000E+00 0.  1.
<mgrwt>
<rscale>  2 0.87257223E+02</rscale>
<asrwt>0</asrwt>
<pdfrwt beam="1">  1       21 0.87810930E-02 0.87257223E+02</pdfrwt>
<pdfrwt beam="2">  1       21 0.37964962E-01 0.87257223E+02</pdfrwt>
<totfact> 0.68520155E+05</totfact>
</mgrwt>
</event>
<event>
 5    1  0.1696945E+000  0.1252111E+03  0.7546771E-02  0.1234740E+00
         21   -1    0    0  503  502  0.00000000000E+00  0.00000000000E+00  0.31904740185E+02  0.31904740185E+02  0.00000000000E+00 0. -1.
         21   -1    0    0  501  503 -0.00000000000E+00 -0.00000000000E+00 -0.54837204380E+03  0.54837204380E+03  0.00000000000E+00 0.  1.
         24    1    1    2    0    0  0.10275689281E+03  0.21625606279E+02 -0.20074407399E+03  0.24039976095E+03  0.80419002446E+02 0.  1.
          1    1    1    2  501    0 -0.29728068541E+02  0.18318354665E+02 -0.15492319609E+03  0.15880968756E+03  0.00000000000E+00 0. -1.
         -2    1    1    2    0  502 -0.73028824273E+02 -0.39943960945E+02 -0.16080003354E+03  0.18106733547E+03  0.00000000000E+00 0.  1.
<mgrwt>
<rscale>  2 0.12521106E+03</rscale>
<asrwt>0</asrwt>
<pdfrwt beam="1">  1       21 0.49084219E-02 0.12521106E+03</pdfrwt>
<pdfrwt beam="2">  1       21 0.84364924E-01 0.12521106E+03</pdfrwt>
<totfact> 0.34341671E+05</totfact>
</mgrwt>
</event>
<event>
 5    1  0.1696945E+000  0.8805803E+02  0.7546771E-02  0.1307624E+00
         21   -1    0    0  501  502  0.00000000000E+00  0.00000000000E+00  0.46850876083E+02  0.46850876083E+02  0.00000000000E+00 0. -1.
         21   -1    0    0  502  503 -0.00000000000E+00 -0.00000000000E+00 -0.78466059576E+03  0.78466059576E+03  0.00000000000E+00 0.  1.
         24    1    1    2    0    0 -0.50792179124E+02  0.96082755547E+01 -0.83054241181E+02  0.12663880666E+03  0.80419002446E+02 0.  0.
          1    1    1    2  501    0  0.58078587443E+02  0.10596619461E+02 -0.10142873868E+02  0.59902325111E+02  0.00000000000E+00 0. -1.
         -2    1    1    2    0  503 -0.72864083196E+01 -0.20204895015E+02 -0.64461260463E+03  0.64497034007E+03  0.00000000000E+00 0.  1.
<mgrwt>
<rscale>  2 0.88058028E+02</rscale>
<asrwt>0</asrwt>
<pdfrwt beam="1">  1       21 0.72078274E-02 0.88058028E+02</pdfrwt>
<pdfrwt beam="2">  1       21 0.12071701E+00 0.88058028E+02</pdfrwt>
<totfact> 0.79187164E+04</totfact>
</mgrwt>
</event>
<event>
 5    1  0.1696945E+000  0.7746147E+02  0.7546771E-02  0.1336414E+00
         21   -1    0    0  501  502  0.00000000000E+00  0.00000000000E+00  0.13170535158E+02  0.13170535158E+02  0.00000000000E+00 0.  1.
         21   -1    0    0  502  503 -0.00000000000E+00 -0.00000000000E+00 -0.12730684353E+04  0.12730684353E+04  0.00000000000E+00 0.  1.
         24    1    1    2    0    0 -0.20655286643E+02  0.52510915575E+02 -0.35889408946E+03  0.37209705794E+03  0.80419002446E+02 0.  1.
          1    1    1    2  501    0  0.52990321613E+01 -0.20569315906E+02 -0.11929803981E+02  0.24361788147E+02  0.00000000000E+00 0. -1.
         -2    1    1    2    0  503  0.15356254481E+02 -0.31941599669E+02 -0.88907400669E+03  0.88978012437E+03  0.00000000000E+00 0.  1.
<mgrwt>
<rscale>  2 0.77461465E+02</rscale>
<asrwt>0</asrwt>
<pdfrwt beam="1">  1       21 0.20262366E-02 0.77461465E+02</pdfrwt>
<pdfrwt beam="2">  1       21 0.19585664E+00 0.77461465E+02</pdfrwt>
<totfact> 0.18442404E+05</totfact>
</mgrwt>
</event>
<event>
 5    1  0.1696945E+000  0.7026198E+02  0.7546771E-02  0.1359204E+00
         21   -1    0    0  501  502  0.00000000000E+00  0.00000000000E+00  0.40040460565E+03  0.40040460565E+03  0.00000000000E+00 0. -1.
         21   -1    0    0  502  503 -0.00000000000E+00 -0.00000000000E+00 -0.13489039647E+02  0.13489039647E+02  0.00000000000E+00 0. -1.
         24    1    1    2    0    0 -0.35482231556E+02  0.11411049221E+02  0.28492629203E+03  0.29839471953E+03  0.80419002446E+02 0. -1.
          1    1    1    2  501    0  0.25834167672E+02  0.10546354424E+02  0.71187037851E+02  0.76460605340E+02  0.00000000000E+00 0. -1.
         -2    1    1    2    0  503  0.96480638842E+01 -0.21957403645E+02  0.30802236127E+02  0.39038320430E+02  0.00000000000E+00 0.  1.
<mgrwt>
<rscale>  2 0.70261981E+02</rscale>
<asrwt>0</asrwt>
<pdfrwt beam="1">  1       21 0.61600699E-01 0.70261981E+02</pdfrwt>
<pdfrwt beam="2">  1       21 0.20752372E-02 0.70261981E+02</pdfrwt>
<totfact> 0.27524064E+06</totfact>
</mgrwt>
</event>
<event>
 5    1  0.1696945E+000  0.8666384E+02  0.7546771E-02  0.1311138E+00
         21   -1    0    0  501  502  0.00000000000E+00  0.00000000000E+00  0.19635023332E+02  0.19635023332E+02  0.00000000000E+00 0.  1.
         21   -1    0    0  502  503 -0.00000000000E+00 -0.00000000000E+00 -0.45153466233E+03  0.45153466233E+03  0.00000000000E+00 0. -1.
         24    1    1    2    0    0 -0.23814727631E+02 -0.41489920417E+02 -0.16986818589E+03  0.19393548226E+03  0.80419002446E+02 0.  0.
          1    1    1    2  501    0 -0.21934589685E+02  0.93459569037E+01 -0.28771853157E+02  0.37366999735E+02  0.00000000000E+00 0. -1.
         -2    1    1    2    0  503  0.45749317316E+02  0.32143963513E+02 -0.23325959995E+03  0.23986720367E+03  0.00000000000E+00 0.  1.
<mgrwt>
<rscale>  2 0.86663845E+02</rscale>
<asrwt>0</asrwt>
<pdfrwt beam="1">  1       21 0.30207731E-02 0.86663845E+02</pdfrwt>
<pdfrwt beam="2">  1       21 0.69466866E-01 0.86663845E+02</pdfrwt>
<totfact> 0.11749483E+06</totfact>
</mgrwt>
</event>
<event>
 5    1  0.1696945E+000  0.8751534E+02  0.7546771E-02  0.1308983E+00
         21   -1    0    0  503  502  0.00000000000E+00  0.00000000000E+00  0.27649488763E+03  0.27649488763E+03  0.00000000000E+00 0.  1.
         21   -1    0    0  501  503 -0.00000000000E+00 -0.00000000000E+00 -0.76797518608E+02  0.76797518608E+02  0.00000000000E+00 0.  1.
         24    1    1    2    0    0 -0.89938986487E+00 -0.68711003974E+02  0.65557174663E+02  0.12444665553E+03  0.80419002446E+02 0.  1.
          1    1    1    2  501    0 -0.36460797491E+01  0.20061130749E+02 -0.41659715809E+02  0.46381836809E+02  0.00000000000E+00 0. -1.
         -2    1    1    2    0  502  0.45454696140E+01  0.48649873225E+02  0.17579991016E+03  0.18246391389E+03  0.00000000000E+00 0.  1.
<mgrwt>
<rscale>  2 0.87515337E+02</rscale>
<asrwt>0</asrwt>
<pdfrwt beam="1">  1       21 0.42537675E-01 0.87515337E+02</pdfrwt>
<pdfrwt beam="2">  1       21 0.11815003E-01 0.87515337E+02</pdfrwt>
<totfact> 0.32710676E+05</totfact>
</mgrwt>
</event>
<event>
 5    1  0.1696945E+000  0.6987630E+02  0.7546771E-02  0.1360514E+00
         21   -1    0    0  503  502  0.00000000000E+00  0.00000000000E+00  0.14378496148E+03  0.14378496148E+03  0.00000000000E+00 0.  1.
         21   -1    0    0  501  503 -0.00000000000E+00 -0.00000000000E+00 -0.13990134799E+03  0.13990134799E+03  0.00000000000E+00 0. -1.
         24    1    1    2    0    0  0.98114671271E+01  0.85152228862E+01  0.26452338627E+01  0.81504522111E+02  0.80419002446E+02 0. -1.
          1    1    1    2  501    0 -0.31551719552E+02 -0.15898916759E+02 -0.95986624614E+02  0.10228254331E+03  0.00000000000E+00 0. -1.
         -2    1    1    2    0  502  0.21740252425E+02  0.73836938733E+01  0.97225004242E+02  0.99899244044E+02  0.00000000000E+00 0.  1.
<mgrwt>
<rscale>  2 0.69876298E+02</rscale>
<asrwt>0</asrwt>
<pdfrwt beam="1">  1       21 0.22120763E-01 0.69876298E+02</pdfrwt>
<pdfrwt beam="2">  1       21 0.21523284E-01 0.69876298E+02</pdfrwt>
<totfact> 0.39042227E+05</totfact>
</mgrwt>
</event>
<event>
 5    1  0.1793064E+000  0.8002840E+02  0.7546771E-02  0.1328971E+00
         21   -1    0    0  501  502  0.00000000000E+00  0.00000000000E+00  0.71548315892E+03  0.71548315892E+03  0.00000000000E+00 0. -1.
         21   -1    0    0  502  503 -0.00000000000E+00 -0.00000000000E+00 -0.18678410228E+03  0.18678410228E+03  0.00000000000E+00 0.  1.
         24    1    1    2    0    0  0.36323153147E+02 -0.53232659482E+01  0.45551149763E+02  0.99447633526E+02  0.80419002446E+02 0. -1.
          1    1    1    2  501    0 -0.45640502328E+02  0.23421197957E+02  0.64130726313E+03  0.64335574429E+03  0.00000000000E+00 0. -1.
         -2    1    1    2    0  503  0.93173491808E+01 -0.18097932009E+02 -0.15815935625E+03  0.15946388339E+03  0.00000000000E+00 0.  1.
<mgrwt>
<rscale>  2 0.80028403E+02</rscale>
<asrwt>0</asrwt>
<pdfrwt beam="1">  1       21 0.11007433E+00 0.80028403E+02</pdfrwt>
<pdfrwt beam="2">  1       21 0.28736016E-01 0.80028403E+02</pdfrwt>
<totfact> 0.84613010E+03</totfact>
</mgrwt>
</event>
<event>
 5    1  0.1696945E+000  0.7663299E+02  0.7546771E-02  0.1338887E+00
         21   -1    0    0  503  502  0.00000000000E+00  0.00000000000E+00  0.36533606911E+02  0.36533606911E+02  0.00000000000E+00 0.  1.
         21   -1    0    0  501  503 -0.00000000000E+00 -0.00000000000E+00 -0.21547887900E+03  0.21547887900E+03  0.00000000000E+00 0.  1.
         24    1    1    2    0    0  0.50526050625E+02  0.23047970550E+02 -0.16543332288E+03  0.19214445350E+03  0.80419002446E+02 0.  1.
          1    1    1    2  501    0 -0.19167351603E+02 -0.86052474215E+01 -0.14160994232E+02  0.25337154700E+02  0.00000000000E+00 0. -1.
         -2    1    1    2    0  502 -0.31358699023E+02 -0.14442723128E+02  0.64904502602E+00  0.34530877707E+02  0.00000000000E+00 0.  1.
<mgrwt>
<rscale>  2 0.76632991E+02</rscale>
<asrwt>0</asrwt>
<pdfrwt beam="1">  1       21 0.56205549E-02 0.76632991E+02</pdfrwt>
<pdfrwt beam="2">  1       21 0.33150597E-01 0.76632991E+02</pdfrwt>
<totfact> 0.18898354E+06</totfact>
</mgrwt>
</event>
<event>
 5    1  0.1696945E+000  0.9597691E+02  0.7546771E-02  0.1288991E+00
         21   -1    0    0  503  502  0.00000000000E+00  0.00000000000E+00  0.11036547308E+02  0.11036547308E+02  0.00000000000E+00 0.  1.
         21   -1    0    0  501  503 -0.00000000000E+00 -0.00000000000E+00 -0.21358685845E+04  0.21358685845E+04  0.00000000000E+00 0.  1.
         24    1    1    2    0    0  0.12670910932E+02  0.73286356028E+02 -0.18148447798E+04  0.18181474727E+04  0.80419002446E+02 0.  1.
          1    1    1    2  501    0  0.11799110339E+02 -0.35392721974E+02 -0.25463387885E+03  0.25735243545E+03  0.00000000000E+00 0. -1.
         -2    1    1    2    0  502 -0.24470021271E+02 -0.37893634054E+02 -0.55353378574E+02  0.71405223635E+02  0.00000000000E+00 0.  1.
<mgrwt>
<rscale>  2 0.95976915E+02</rscale>
<asrwt>0</asrwt>
<pdfrwt beam="1">  1       21 0.16979313E-02 0.95976915E+02</pdfrwt>
<pdfrwt beam="2">  1       21 0.32859498E+00 0.95976915E+02</pdfrwt>
<totfact> 0.42510516E+04</totfact>
</mgrwt>
</event>
<event>
 5    1  0.1696945E+000  0.7483815E+02  0.7546771E-02  0.1344373E+00
         21   -1    0    0  501  502  0.00000000000E+00  0.00000000000E+00  0.42028615857E+02  0.42028615857E+02  0.00000000000E+00 0. -1.
         21   -1    0    0  502  503 -0.00000000000E+00 -0.00000000000E+00 -0.25071526471E+03  0.25071526471E+03  0.00000000000E+00 0.  1.
         24    1    1    2    0    0  0.10829373827E+02 -0.11408802730E+02 -0.56902242149E+02  0.99762303668E+02  0.80419002446E+02 0.  0.
          1    1    1    2  501    0 -0.19675731616E+01  0.38848409367E+02 -0.42554485678E+00  0.38900531396E+02  0.00000000000E+00 0. -1.
         -2    1    1    2    0  503 -0.88618006657E+01 -0.27439606636E+02 -0.15135886184E+03  0.15408104550E+03  0.00000000000E+00 0.  1.
<mgrwt>
<rscale>  2 0.74838147E+02</rscale>
<asrwt>0</asrwt>
<pdfrwt beam="1">  1       21 0.64659412E-02 0.74838147E+02</pdfrwt>
<pdfrwt beam="2">  1       21 0.38571578E-01 0.74838147E+02</pdfrwt>
<totfact> 0.11135623E+06</totfact>
</mgrwt>
</event>
<event>
 5    1  0.1696945E+000  0.1048996E+03  0.7546771E-02  0.1270318E+00
         21   -1    0    0  503  502  0.00000000000E+00  0.00000000000E+00  0.13617609194E+03  0.13617609194E+03  0.00000000000E+00 0.  1.
         21   -1    0    0  501  503 -0.00000000000E+00 -0.00000000000E+00 -0.18193917253E+03  0.18193917253E+03  0.00000000000E+00 0. -1.
         24    1    1    2    0    0  0.45637980011E+02 -0.35287441219E+02  0.72860251145E+02  0.12289776596E+03  0.80419002446E+02 0.  1.
          1    1    1    2  501    0  0.28546274118E+02  0.20602767055E+02 -0.11415696112E+03  0.11946202555E+03  0.00000000000E+00 0. -1.
         -2    1    1    2    0  502 -0.74184254129E+02  0.14684674164E+02 -0.44663706162E+01  0.75755472954E+02  0.00000000000E+00 0.  1.
<mgrwt>
<rscale>  2 0.10489961E+03</rscale>
<asrwt>0</asrwt>
<pdfrwt beam="1">  1       21 0.20950168E-01 0.10489961E+03</pdfrwt>
<pdfrwt beam="2">  1       21 0.27990642E-01 0.10489961E+03</pdfrwt>
<totfact> 0.26311868E+05</totfact>
</mgrwt>
</event>
<event>
 5    1  0.1696945E+000  0.7454613E+02  0.7546771E-02  0.1345282E+00
         21   -1    0    0  503  502  0.00000000000E+00  0.00000000000E+00  0.18025463081E+02  0.18025463081E+02  0.00000000000E+00 0. -1.
         21   -1    0    0  501  503 -0.00000000000E+00 -0.00000000000E+00 -0.33733129813E+03  0.33733129813E+03  0.00000000000E+00 0.  1.
         24    1    1    2    0    0 -0.18147070118E+02  0.14157107734E+02 -0.13917113131E+03  0.16237475050E+03  0.80419002446E+02 0.  1.
          1    1    1    2  501    0  0.22791857668E+02 -0.36276749570E+02 -0.14507124185E+03  0.15126512007E+03  0.00000000000E+00 0. -1.
         -2    1    1    2    0  502 -0.46447875508E+01  0.22119641836E+02 -0.35063461882E+02  0.41716890650E+02  0.00000000000E+00 0.  1.
<mgrwt>
<rscale>  2 0.74546129E+02</rscale>
<asrwt>0</asrwt>
<pdfrwt beam="1">  1       21 0.27731482E-02 0.74546129E+02</pdfrwt>
<pdfrwt beam="2">  1       21 0.51897122E-01 0.74546129E+02</pdfrwt>
<totfact> 0.24731073E+06</totfact>
</mgrwt>
</event>
<event>
 5    1  0.1696945E+000  0.1002759E+03  0.7546771E-02  0.1279717E+00
         21   -1    0    0  501  502  0.00000000000E+00  0.00000000000E+00  0.72283651146E+02  0.72283651146E+02  0.00000000000E+00 0. -1.
         21   -1    0    0  502  503 -0.00000000000E+00 -0.00000000000E+00 -0.18132271655E+03  0.18132271655E+03  0.00000000000E+00 0.  1.
         24    1    1    2    0    0 -0.60072472785E+02  0.77887415078E+00 -0.10658526506E+03  0.14641360358E+03  0.80419002446E+02 0.  1.
          1    1    1    2  501    0 -0.12167253745E+02  0.21387233016E+02  0.16073385750E+02  0.29390636762E+02  0.00000000000E+00 0. -1.
         -2    1    1    2    0  503  0.72239726530E+02 -0.22166107167E+02 -0.18527186091E+02  0.77802127352E+02  0.00000000000E+00 0.  1.
<mgrwt>
<rscale>  2 0.10027594E+03</rscale>
<asrwt>0</asrwt>
<pdfrwt beam="1">  1       21 0.11120562E-01 0.10027594E+03</pdfrwt>
<pdfrwt beam="2">  1       21 0.27895803E-01 0.10027594E+03</pdfrwt>
<totfact> 0.82591488E+05</totfact>
</mgrwt>
</event>
<event>
 5    1  0.1696945E+000  0.8257035E+02  0.7546771E-02  0.1321911E+00
         21   -1    0    0  503  502  0.00000000000E+00  0.00000000000E+00  0.85056807492E+02  0.85056807492E+02  0.00000000000E+00 0. -1.
         21   -1    0    0  501  503 -0.00000000000E+00 -0.00000000000E+00 -0.25355488805E+03  0.25355488805E+03  0.00000000000E+00 0. -1.
         24    1    1    2    0    0  0.40404157823E+02  0.90169535124E+01 -0.16654054852E+01  0.90464307602E+02  0.80419002446E+02 0. -1.
          1    1    1    2  501    0 -0.29905008151E+02  0.25070759970E+02 -0.19737118307E+03  0.20119203867E+03  0.00000000000E+00 0. -1.
         -2    1    1    2    0  502 -0.10499149673E+02 -0.34087713482E+02  0.30538507997E+02  0.46955349269E+02  0.00000000000E+00 0.  1.
<mgrwt>
<rscale>  2 0.82570347E+02</rscale>
<asrwt>0</asrwt>
<pdfrwt beam="1">  1       21 0.13085663E-01 0.82570347E+02</pdfrwt>
<pdfrwt beam="2">  1       21 0.39008444E-01 0.82570347E+02</pdfrwt>
<totfact> 0.32475729E+05</totfact>
</mgrwt>
</event>
<event>
 5    1  0.1696945E+000  0.1131776E+03  0.7546771E-02  0.1254796E+00
         21   -1    0    0  501  502  0.00000000000E+00  0.00000000000E+00  0.16914492537E+02  0.16914492537E+02  0.00000000000E+00 0.  1.
         21   -1    0    0  502  503 -0.00000000000E+00 -0.00000000000E+00 -0.20174343709E+04  0.20174343709E+04  0.00000000000E+00 0. -1.
         24    1    1    2    0    0  0.40483595154E+02 -0.29917607194E+02 -0.97877551072E+03  0.98336295488E+03  0.80419002446E+02 0. -1.
          1    1    1    2  501    0  0.13819911020E+02  0.65247931882E+02 -0.68726403743E+02  0.95768476687E+02  0.00000000000E+00 0. -1.
         -2    1    1    2    0  503 -0.54303506174E+02 -0.35330324688E+02 -0.95301796387E+03  0.95521743184E+03  0.00000000000E+00 0.  1.
<mgrwt>
<rscale>  2 0.11317758E+03</rscale>
<asrwt>0</asrwt>
<pdfrwt beam="1">  1       21 0.26022283E-02 0.11317758E+03</pdfrwt>
<pdfrwt beam="2">  1       21 0.31037467E+00 0.11317758E+03</pdfrwt>
<totfact> 0.26228528E+04</totfact>
</mgrwt>
</event>
<event>
 5    1  0.1696945E+000  0.9394512E+02  0.7546771E-02  0.1293570E+00
         21   -1    0    0  501  502  0.00000000000E+00  0.00000000000E+00  0.51673744168E+03  0.51673744168E+03  0.00000000000E+00 0.  1.
         21   -1    0    0  502  503 -0.00000000000E+00 -0.00000000000E+00 -0.18887764341E+02  0.18887764341E+02  0.00000000000E+00 0.  1.
         24    1    1    2    0    0  0.53966725291E+02  0.92350002799E+01  0.31451372069E+03  0.32921693323E+03  0.80419002446E+02 0.  1.
          1    1    1    2  501    0 -0.50380139912E+02  0.24957013297E+02  0.14148681225E+03  0.15224824810E+03  0.00000000000E+00 0. -1.
         -2    1    1    2    0  503 -0.35865853796E+01 -0.34192013577E+02  0.41849144399E+02  0.54160024687E+02  0.00000000000E+00 0.  1.
<mgrwt>
<rscale>  2 0.93945119E+02</rscale>
<asrwt>0</asrwt>
<pdfrwt beam="1">  1       21 0.79498057E-01 0.93945119E+02</pdfrwt>
<pdfrwt beam="2">  1       21 0.29058103E-02 0.93945119E+02</pdfrwt>
<totfact> 0.93364770E+05</totfact>
</mgrwt>
</event>
<event>
 5    1  0.1696945E+000  0.7724931E+02  0.7546771E-02  0.1337044E+00
         21   -1    0    0  503  502  0.00000000000E+00  0.00000000000E+00  0.14796913498E+02  0.14796913498E+02  0.00000000000E+00 0.  1.
         21   -1    0    0  501  503 -0.00000000000E+00 -0.00000000000E+00 -0.40412978860E+03  0.40412978860E+03  0.00000000000E+00 0. -1.
         24    1    1    2    0    0 -0.20666026988E+02 -0.10041575432E+02 -0.20829071895E+03  0.22445524601E+03  0.80419002446E+02 0. -1.
          1    1    1    2  501    0  0.10993337309E+02 -0.28803690627E+02 -0.85113234794E+02  0.90524962281E+02  0.00000000000E+00 0. -1.
         -2    1    1    2    0  502  0.96726896782E+01  0.38845266060E+02 -0.95928921365E+02  0.10394649381E+03  0.00000000000E+00 0.  1.
<mgrwt>
<rscale>  2 0.77249314E+02</rscale>
<asrwt>0</asrwt>
<pdfrwt beam="1">  1       21 0.22764481E-02 0.77249314E+02</pdfrwt>
<pdfrwt beam="2">  1       21 0.62173816E-01 0.77249314E+02</pdfrwt>
<totfact> 0.23392452E+06</totfact>
</mgrwt>
</event>
<event>
 5    1  0.1696945E+000  0.8072878E+02  0.7546771E-02  0.1326996E+00
         21   -1    0    0  501  502  0.00000000000E+00  0.00000000000E+00  0.15485521134E+02  0.15485521134E+02  0.00000000000E+00 0. -1.
         21   -1    0    0  502  503 -0.00000000000E+00 -0.00000000000E+00 -0.54336293341E+03  0.54336293341E+03  0.00000000000E+00 0. -1.
         24    1    1    2    0    0  0.13746142554E+02 -0.13072495871E+02 -0.26551875082E+03  0.27807781209E+03  0.80419002446E+02 0. -1.
          1    1    1    2  501    0 -0.42459603334E+02  0.23199848877E+02 -0.64753427212E+02  0.80833515567E+02  0.00000000000E+00 0. -1.
         -2    1    1    2    0  503  0.28713460780E+02 -0.10127353006E+02 -0.19760523425E+03  0.19993712689E+03  0.00000000000E+00 0.  1.
<mgrwt>
<rscale>  2 0.80728776E+02</rscale>
<asrwt>0</asrwt>
<pdfrwt beam="1">  1       21 0.23823877E-02 0.80728776E+02</pdfrwt>
<pdfrwt beam="2">  1       21 0.83594302E-01 0.80728776E+02</pdfrwt>
<totfact> 0.11488958E+06</totfact>
</mgrwt>
</event>
<event>
 5    1  0.1696945E+000  0.2162215E+03  0.7546771E-02  0.1136732E+00
         21   -1    0    0  501  502  0.00000000000E+00  0.00000000000E+00  0.18961840338E+03  0.18961840338E+03  0.00000000000E+00 0.  1.
         21   -1    0    0  502  503 -0.00000000000E+00 -0.00000000000E+00 -0.59943112192E+03  0.59943112192E+03  0.00000000000E+00 0. -1.
         24    1    1    2    0    0 -0.18289990583E+03 -0.56828022566E+02 -0.50954093872E+02  0.21388159187E+03  0.80419002446E+02 0.  1.
          1    1    1    2  501    0  0.17143658971E+03  0.87140360739E+02  0.21428663531E+02  0.19350228521E+03  0.00000000000E+00 0. -1.
         -2    1    1    2    0  503  0.11463316125E+02 -0.30312338174E+02 -0.38028728820E+03  0.38166564821E+03  0.00000000000E+00 0.  1.
<mgrwt>
<rscale>  2 0.21622150E+03</rscale>
<asrwt>0</asrwt>
<pdfrwt beam="1">  1       21 0.29172062E-01 0.21622150E+03</pdfrwt>
<pdfrwt beam="2">  1       21 0.92220173E-01 0.21622150E+03</pdfrwt>
<totfact> 0.10996391E+04</totfact>
</mgrwt>
</event>
<event>
 5    1  0.1696945E+000  0.8790024E+02  0.7546771E-02  0.1308018E+00
         21   -1    0    0  501  502  0.00000000000E+00  0.00000000000E+00  0.53268785292E+01  0.53268785292E+01  0.00000000000E+00 0. -1.
         21   -1    0    0  502  503 -0.00000000000E+00 -0.00000000000E+00 -0.15093918140E+04  0.15093918140E+04  0.00000000000E+00 0. -1.
         24    1    1    2    0    0  0.40976214602E+02 -0.33880969100E+02 -0.94046780737E+03  0.94539615130E+03  0.80419002446E+02 0. -1.
          1    1    1    2  501    0 -0.53493656529E+02  0.13003158841E+02 -0.34351708944E+03  0.34790033654E+03  0.00000000000E+00 0. -1.
         -2    1    1    2    0  503  0.12517441927E+02  0.20877810260E+02 -0.22008003865E+03  0.22142220468E+03  0.00000000000E+00 0.  1.
<mgrwt>
<rscale>  2 0.87900239E+02</rscale>
<asrwt>0</asrwt>
<pdfrwt beam="1">  1       21 0.81951980E-03 0.87900239E+02</pdfrwt>
<pdfrwt beam="2">  1       21 0.23221412E+00 0.87900239E+02</pdfrwt>
<totfact> 0.46238696E+05</totfact>
</mgrwt>
</event>
<event>
 5    1  0.1696945E+000  0.1434057E+03  0.7546771E-02  0.1208818E+00
         21   -1    0    0  501  502  0.00000000000E+00  0.00000000000E+00  0.32788617725E+03  0.32788617725E+03  0.00000000000E+00 0. -1.
         21   -1    0    0  502  503 -0.00000000000E+00 -0.00000000000E+00 -0.24072440472E+03  0.24072440472E+03  0.00000000000E+00 0.  1.
         24    1    1    2    0    0 -0.82280809203E+02  0.45921602633E+02 -0.45648927021E+02  0.13202259520E+03  0.80419002446E+02 0. -1.
          1    1    1    2  501    0  0.75690088285E+02  0.33831426363E+02  0.26742600867E+03  0.27998254407E+03  0.00000000000E+00 0. -1.
         -2    1    1    2    0  503  0.65907209178E+01 -0.79753028996E+02 -0.13461530911E+03  0.15660544270E+03  0.00000000000E+00 0.  1.
<mgrwt>
<rscale>  2 0.14340567E+03</rscale>
<asrwt>0</asrwt>
<pdfrwt beam="1">  1       21 0.50444027E-01 0.14340567E+03</pdfrwt>
<pdfrwt beam="2">  1       21 0.37034524E-01 0.14340567E+03</pdfrwt>
<totfact> 0.27073756E+04</totfact>
</mgrwt>
</event>
<event>
 5    1  0.1696945E+000  0.1042512E+03  0.7546771E-02  0.1271602E+00
         21   -1    0    0  503  502  0.00000000000E+00  0.00000000000E+00  0.44392768560E+03  0.44392768560E+03  0.00000000000E+00 0.  1.
         21   -1    0    0  501  503 -0.00000000000E+00 -0.00000000000E+00 -0.26727996881E+02  0.26727996881E+02  0.00000000000E+00 0. -1.
         24    1    1    2    0    0  0.79905732955E+02 -0.15278449240E+02  0.26385447821E+03  0.28758435075E+03  0.80419002446E+02 0.  1.
          1    1    1    2  501    0 -0.23542738808E+02 -0.17110587751E+02  0.21876661780E+02  0.36409079835E+02  0.00000000000E+00 0. -1.
         -2    1    1    2    0  502 -0.56362994146E+02  0.32389036992E+02  0.13146854874E+03  0.14666225190E+03  0.00000000000E+00 0.  1.
<mgrwt>
<rscale>  2 0.10425123E+03</rscale>
<asrwt>0</asrwt>
<pdfrwt beam="1">  1       21 0.68296562E-01 0.10425123E+03</pdfrwt>
<pdfrwt beam="2">  1       21 0.41119998E-02 0.10425123E+03</pdfrwt>
<totfact> 0.73649271E+05</totfact>
</mgrwt>
</event>
<event>
 5    1  0.1696945E+000  0.9015060E+02  0.7546771E-02  0.1302487E+00
         21   -1    0    0  503  502  0.00000000000E+00  0.00000000000E+00  0.13732254858E+04  0.13732254858E+04  0.00000000000E+00 0.  1.
         21   -1    0    0  501  503 -0.00000000000E+00 -0.00000000000E+00 -0.10486115898E+02  0.10486115898E+02  0.00000000000E+00 0.  1.
         24    1    1    2    0    0 -0.34266305296E+02  0.28446145893E+02  0.64566929331E+03  0.65218050812E+03  0.80419002446E+02 0.  1.
          1    1    1    2  501    0 -0.24536398933E+02 -0.12007477621E+02  0.25815748621E+02  0.37585466184E+02  0.00000000000E+00 0. -1.
         -2    1    1    2    0  502  0.58802704228E+02 -0.16438668272E+02  0.69125432798E+03  0.69394562740E+03  0.00000000000E+00 0.  1.
<mgrwt>
<rscale>  2 0.90150603E+02</rscale>
<asrwt>0</asrwt>
<pdfrwt beam="1">  1       21 0.21126532E+00 0.90150603E+02</pdfrwt>
<pdfrwt beam="2">  1       21 0.16132497E-02 0.90150603E+02</pdfrwt>
<totfact> 0.21141122E+05</totfact>
</mgrwt>
</event>
<event>
 5    1  0.1696945E+000  0.8519677E+02  0.7546771E-02  0.1314919E+00
         21   -1    0    0  501  502  0.00000000000E+00  0.00000000000E+00  0.32082535506E+02  0.32082535506E+02  0.00000000000E+00 0. -1.
         21   -1    0    0  502  503 -0.00000000000E+00 -0.00000000000E+00 -0.68314364091E+03  0.68314364091E+03  0.00000000000E+00 0.  1.
         24    1    1    2    0    0  0.39663629293E+02  0.21215000202E+02 -0.26386235300E+03  0.27948852751E+03  0.80419002446E+02 0.  0.
          1    1    1    2  501    0 -0.52881184073E+01 -0.39130185253E+02  0.66016811251E+01  0.40033957935E+02  0.00000000000E+00 0. -1.
         -2    1    1    2    0  503 -0.34375510886E+02  0.17915185052E+02 -0.39380043352E+03  0.39570369097E+03  0.00000000000E+00 0.  1.
<mgrwt>
<rscale>  2 0.85196772E+02</rscale>
<asrwt>0</asrwt>
<pdfrwt beam="1">  1       21 0.49357745E-02 0.85196772E+02</pdfrwt>
<pdfrwt beam="2">  1       21 0.10509903E+00 0.85196772E+02</pdfrwt>
<totfact> 0.20782992E+05</totfact>
</mgrwt>
</event>
<event>
 5    1  0.1696945E+000  0.1084147E+03  0.7546771E-02  0.1263534E+00
         21   -1    0    0  501  502  0.00000000000E+00  0.00000000000E+00  0.53979654825E+03  0.53979654825E+03  0.00000000000E+00 0. -1.
         21   -1    0    0  502  503 -0.00000000000E+00 -0.00000000000E+00 -0.96782487153E+03  0.96782487153E+03  0.00000000000E+00 0.  1.
         24    1    1    2    0    0 -0.34366084111E+02  0.37665777737E+02 -0.91560977839E+01  0.95659754498E+02  0.80419002446E+02 0. -1.
          1    1    1    2  501    0  0.64967359183E+02  0.92220590011E+01  0.49351490554E+03  0.49785817872E+03  0.00000000000E+00 0. -1.
         -2    1    1    2    0  503 -0.30601275072E+02 -0.46887836738E+02 -0.91238713103E+03  0.91410348656E+03  0.00000000000E+00 0.  1.
<mgrwt>
<rscale>  2 0.10841471E+03</rscale>
<asrwt>0</asrwt>
<pdfrwt beam="1">  1       21 0.83045625E-01 0.10841471E+03</pdfrwt>
<pdfrwt beam="2">  1       21 0.14889613E+00 0.10841471E+03</pdfrwt>
<totfact> 0.43669627E+02</totfact>
</mgrwt>
</event>
<event>
 5    1  0.1696945E+000  0.7714086E+02  0.7546771E-02  0.1337367E+00
         21   -1    0    0  501  502  0.00000000000E+00  0.00000000000E+00  0.20373057550E+02  0.20373057550E+02  0.00000000000E+00 0. -1.
         21   -1    0    0  502  503 -0.00000000000E+00 -0.00000000000E+00 -0.30575817517E+03  0.30575817517E+03  0.00000000000E+00 0.  1.
         24    1    1    2    0    0 -0.25914011434E+02 -0.13768242394E+02 -0.19133112402E+03  0.20960895845E+03  0.80419002446E+02 0.  1.
          1    1    1    2  501    0  0.38803285349E+02  0.29205046590E+02 -0.63476707016E+02  0.79924477063E+02  0.00000000000E+00 0. -1.
         -2    1    1    2    0  503 -0.12889273915E+02 -0.15436804196E+02 -0.30577286578E+02  0.36597797206E+02  0.00000000000E+00 0.  1.
<mgrwt>
<rscale>  2 0.77140858E+02</rscale>
<asrwt>0</asrwt>
<pdfrwt beam="1">  1       21 0.31343165E-02 0.77140858E+02</pdfrwt>
<pdfrwt beam="2">  1       21 0.47039719E-01 0.77140858E+02</pdfrwt>
<totfact> 0.24802655E+06</totfact>
</mgrwt>
</event>
<event>
 5    1  0.1696945E+000  0.7122456E+02  0.7546771E-02  0.1355978E+00
         21   -1    0    0  503  502  0.00000000000E+00  0.00000000000E+00  0.27309649313E+03  0.27309649313E+03  0.00000000000E+00 0. -1.
         21   -1    0    0  501  503 -0.00000000000E+00 -0.00000000000E+00 -0.22420978890E+02  0.22420978890E+02  0.00000000000E+00 0. -1.
         24    1    1    2    0    0  0.95255091323E+00 -0.32770878271E+02  0.15719710197E+03  0.17959115412E+03  0.80419002446E+02 0. -1.
          1    1    1    2  501    0  0.19617601884E+02  0.28493766551E+02  0.21011223906E+02  0.40474888091E+02  0.00000000000E+00 0. -1.
         -2    1    1    2    0  502 -0.20570152797E+02  0.42771117201E+01  0.72467188362E+02  0.75451429807E+02  0.00000000000E+00 0.  1.
<mgrwt>
<rscale>  2 0.71224557E+02</rscale>
<asrwt>0</asrwt>
<pdfrwt beam="1">  1       21 0.42014843E-01 0.71224557E+02</pdfrwt>
<pdfrwt beam="2">  1       21 0.34493816E-02 0.71224557E+02</pdfrwt>
<totfact> 0.26492155E+06</totfact>
</mgrwt>
</event>
<event>
 5    1  0.1696945E+000  0.1867942E+03  0.7546771E-02  0.1161385E+00
         21   -1    0    0  501  502  0.00000000000E+00  0.00000000000E+00  0.12546892669E+03  0.12546892669E+03  0.00000000000E+00 0.  1.
         21   -1    0    0  502  503 -0.00000000000E+00 -0.00000000000E+00 -0.34116626714E+03  0.34116626714E+03  0.00000000000E+00 0. -1.
         24    1    1    2    0    0 -0.75780920837E+02 -0.98007992655E+02 -0.16453861906E+03  0.22110741214E+03  0.80419002446E+02 0.  0.
          1    1    1    2  501    0  0.44573056323E+02  0.15479809420E+03  0.29391046843E+01  0.16111438686E+03  0.00000000000E+00 0. -1.
         -2    1    1    2    0  503  0.31207864514E+02 -0.56790101541E+02 -0.54097826067E+02  0.84413394824E+02  0.00000000000E+00 0.  1.
<mgrwt>
<rscale>  2 0.18679422E+03</rscale>
<asrwt>0</asrwt>
<pdfrwt beam="1">  1       21 0.19302912E-01 0.18679422E+03</pdfrwt>
<pdfrwt beam="2">  1       21 0.52487118E-01 0.18679422E+03</pdfrwt>
<totfact> 0.85093280E+04</totfact>
</mgrwt>
</event>
<event>
 5    1  0.1696945E+000  0.7788740E+02  0.7546771E-02  0.1335156E+00
         21   -1    0    0  503  502  0.00000000000E+00  0.00000000000E+00  0.18766840611E+03  0.18766840611E+03  0.00000000000E+00 0. -1.
         21   -1    0    0  501  503 -0.00000000000E+00 -0.00000000000E+00 -0.36441312591E+02  0.36441312591E+02  0.00000000000E+00 0.  1.
         24    1    1    2    0    0  0.11004276523E+02 -0.54867655297E+02  0.11774247848E+03  0.15317330346E+03  0.80419002446E+02 0.  0.
          1    1    1    2  501    0  0.28693971866E+01  0.21109854056E+02 -0.14957841733E+00  0.21304500750E+02  0.00000000000E+00 0. -1.
         -2    1    1    2    0  502 -0.13873673709E+02  0.33757801240E+02  0.33634193460E+02  0.49631914496E+02  0.00000000000E+00 0.  1.
<mgrwt>
<rscale>  2 0.77887396E+02</rscale>
<asrwt>0</asrwt>
<pdfrwt beam="1">  1       21 0.28872062E-01 0.77887396E+02</pdfrwt>
<pdfrwt beam="2">  1       21 0.56063559E-02 0.77887396E+02</pdfrwt>
<totfact> 0.24719739E+06</totfact>
</mgrwt>
</event>
<event>
 5    1  0.1696945E+000  0.1038662E+03  0.7546771E-02  0.1272370E+00
         21   -1    0    0  501  502  0.00000000000E+00  0.00000000000E+00  0.28826664356E+02  0.28826664356E+02  0.00000000000E+00 0. -1.
         21   -1    0    0  502  503 -0.00000000000E+00 -0.00000000000E+00 -0.68785574444E+03  0.68785574444E+03  0.00000000000E+00 0.  1.
         24    1    1    2    0    0  0.53868135602E+02  0.10436461691E+02 -0.35898285027E+03  0.37194972579E+03  0.80419002446E+02 0.  1.
          1    1    1    2  501    0  0.23681232295E+02 -0.21571298454E+02  0.25733191231E+01  0.32136329151E+02  0.00000000000E+00 0. -1.
         -2    1    1    2    0  503 -0.77549367897E+02  0.11134836764E+02 -0.30261954893E+03  0.31259635386E+03  0.00000000000E+00 0.  1.
<mgrwt>
<rscale>  2 0.10386619E+03</rscale>
<asrwt>0</asrwt>
<pdfrwt beam="1">  1       21 0.44348718E-02 0.10386619E+03</pdfrwt>
<pdfrwt beam="2">  1       21 0.10582395E+00 0.10386619E+03</pdfrwt>
<totfact> 0.24266779E+05</totfact>
</mgrwt>
</event>
<event>
 5    1  0.1696945E+000  0.8139713E+02  0.7546771E-02  0.1325133E+00
         21   -1    0    0  503  502  0.00000000000E+00  0.00000000000E+00  0.25196012650E+02  0.25196012650E+02  0.00000000000E+00 0. -1.
         21   -1    0    0  501  503 -0.00000000000E+00 -0.00000000000E+00 -0.41071502724E+03  0.41071502724E+03  0.00000000000E+00 0.  1.
         24    1    1    2    0    0  0.11863769713E+01  0.14026926946E+02 -0.25899756295E+03  0.27156051948E+03  0.80419002446E+02 0.  1.
          1    1    1    2  501    0  0.19622565808E+02  0.28037761717E+02 -0.10901661006E+03  0.11426190284E+03  0.00000000000E+00 0. -1.
         -2    1    1    2    0  502 -0.20808942779E+02 -0.42064688663E+02 -0.17504841578E+02  0.50088617575E+02  0.00000000000E+00 0.  1.
<mgrwt>
<rscale>  2 0.81397134E+02</rscale>
<asrwt>0</asrwt>
<pdfrwt beam="1">  1       21 0.38763099E-02 0.81397134E+02</pdfrwt>
<pdfrwt beam="2">  1       21 0.63186923E-01 0.81397134E+02</pdfrwt>
<totfact> 0.95615964E+05</totfact>
</mgrwt>
</event>
<event>
 5    1  0.1696945E+000  0.7647769E+02  0.7546771E-02  0.1339355E+00
         21   -1    0    0  503  502  0.00000000000E+00  0.00000000000E+00  0.31543542120E+02  0.31543542120E+02  0.00000000000E+00 0.  1.
         21   -1    0    0  501  503 -0.00000000000E+00 -0.00000000000E+00 -0.87863869779E+03  0.87863869779E+03  0.00000000000E+00 0. -1.
         24    1    1    2    0    0  0.25130814630E+02 -0.77767640981E+01 -0.54891632147E+03  0.55539929765E+03  0.80419002446E+02 0.  1.
          1    1    1    2  501    0 -0.50538214869E+01 -0.27388052711E+02 -0.31104968474E+03  0.31229401678E+03  0.00000000000E+00 0. -1.
         -2    1    1    2    0  502 -0.20076993144E+02  0.35164816809E+02  0.12870850532E+02  0.42488925479E+02  0.00000000000E+00 0.  1.
<mgrwt>
<rscale>  2 0.76477693E+02</rscale>
<asrwt>0</asrwt>
<pdfrwt beam="1">  1       21 0.48528529E-02 0.76477693E+02</pdfrwt>
<pdfrwt beam="2">  1       21 0.13517518E+00 0.76477693E+02</pdfrwt>
<totfact> 0.11759358E+05</totfact>
</mgrwt>
</event>
<event>
 5    1  0.1696945E+000  0.7737182E+02  0.7546771E-02  0.1336680E+00
         21   -1    0    0  503  502  0.00000000000E+00  0.00000000000E+00  0.31869680615E+03  0.31869680615E+03  0.00000000000E+00 0.  1.
         21   -1    0    0  501  503 -0.00000000000E+00 -0.00000000000E+00 -0.43276509665E+02  0.43276509665E+02  0.00000000000E+00 0. -1.
         24    1    1    2    0    0 -0.10762803847E+02  0.15358536862E+02  0.25878879017E+03  0.27164420935E+03  0.80419002446E+02 0.  1.
          1    1    1    2  501    0  0.33150869719E+02 -0.30574458591E+02 -0.16072201151E+02  0.47875811546E+02  0.00000000000E+00 0. -1.
         -2    1    1    2    0  502 -0.22388065872E+02  0.15215921729E+02  0.32703707469E+02  0.42453294922E+02  0.00000000000E+00 0.  1.
<mgrwt>
<rscale>  2 0.77371820E+02</rscale>
<asrwt>0</asrwt>
<pdfrwt beam="1">  1       21 0.49030276E-01 0.77371820E+02</pdfrwt>
<pdfrwt beam="2">  1       21 0.66579248E-02 0.77371820E+02</pdfrwt>
<totfact> 0.65778872E+05</totfact>
</mgrwt>
</event>
<event>
 5    1  0.1696945E+000  0.8814307E+02  0.7546771E-02  0.1307412E+00
         21   -1    0    0  503  502  0.00000000000E+00  0.00000000000E+00  0.12409756132E+02  0.12409756132E+02  0.00000000000E+00 0.  1.
         21   -1    0    0  501  503 -0.00000000000E+00 -0.00000000000E+00 -0.71766672330E+03  0.71766672330E+03  0.00000000000E+00 0.  1.
         24    1    1    2    0    0 -0.53178758708E+02 -0.33155609684E+02 -0.29446699985E+03  0.31161724083E+03  0.80419002446E+02 0.  1.
          1    1    1    2  501    0  0.22537869434E+01  0.22108833283E+02 -0.20391134468E+03  0.20511878645E+03  0.00000000000E+00 0. -1.
         -2    1    1    2    0  502  0.50924971764E+02  0.11046776402E+02 -0.20687862264E+03  0.21334045215E+03  0.00000000000E+00 0.  1.
<mgrwt>
<rscale>  2 0.88143067E+02</rscale>
<asrwt>0</asrwt>
<pdfrwt beam="1">  1       21 0.19091928E-02 0.88143067E+02</pdfrwt>
<pdfrwt beam="2">  1       21 0.11041029E+00 0.88143067E+02</pdfrwt>
<totfact> 0.86720344E+05</totfact>
</mgrwt>
</event>
<event>
 5    1  0.1696945E+000  0.7390826E+02  0.7546771E-02  0.1347286E+00
         21   -1    0    0  503  502  0.00000000000E+00  0.00000000000E+00  0.21861892193E+02  0.21861892193E+02  0.00000000000E+00 0.  1.
         21   -1    0    0  501  503 -0.00000000000E+00 -0.00000000000E+00 -0.25528251063E+03  0.25528251063E+03  0.00000000000E+00 0.  1.
         24    1    1    2    0    0  0.16567682095E+02  0.45050107871E+02 -0.12830633505E+03  0.15885128856E+03  0.80419002446E+02 0.  1.
          1    1    1    2  501    0  0.20155888432E+01 -0.30482799687E+02 -0.55718778820E+02  0.63544047623E+02  0.00000000000E+00 0. -1.
         -2    1    1    2    0  502 -0.18583270938E+02 -0.14567308184E+02 -0.49395504561E+02  0.54749066634E+02  0.00000000000E+00 0.  1.
<mgrwt>
<rscale>  2 0.73908257E+02</rscale>
<asrwt>0</asrwt>
<pdfrwt beam="1">  1       21 0.33633680E-02 0.73908257E+02</pdfrwt>
<pdfrwt beam="2">  1       21 0.39274232E-01 0.73908257E+02</pdfrwt>
<totfact> 0.31591425E+06</totfact>
</mgrwt>
</event>
<event>
 5    1  0.1696945E+000  0.6619205E+02  0.7546771E-02  0.1373543E+00
         21   -1    0    0  503  502  0.00000000000E+00  0.00000000000E+00  0.30135896317E+02  0.30135896317E+02  0.00000000000E+00 0. -1.
         21   -1    0    0  501  503 -0.00000000000E+00 -0.00000000000E+00 -0.22444682626E+03  0.22444682626E+03  0.00000000000E+00 0. -1.
         24    1    1    2    0    0 -0.35571076653E+02  0.19760752553E+02 -0.11494610163E+03  0.14606714576E+03  0.80419002446E+02 0. -1.
          1    1    1    2  501    0  0.20865145538E+02 -0.50752988755E+01 -0.84435335680E+02  0.87123124762E+02  0.00000000000E+00 0. -1.
         -2    1    1    2    0  502  0.14705931115E+02 -0.14685453677E+02  0.50705073738E+01  0.21392452049E+02  0.00000000000E+00 0.  1.
<mgrwt>
<rscale>  2 0.66192054E+02</rscale>
<asrwt>0</asrwt>
<pdfrwt beam="1">  1       21 0.46362917E-02 0.66192054E+02</pdfrwt>
<pdfrwt beam="2">  1       21 0.34530281E-01 0.66192054E+02</pdfrwt>
<totfact> 0.23857907E+06</totfact>
</mgrwt>
</event>
<event>
 5    1  0.1696945E+000  0.7522710E+02  0.7546771E-02  0.1343169E+00
         21   -1    0    0  501  502  0.00000000000E+00  0.00000000000E+00  0.43035001343E+03  0.43035001343E+03  0.00000000000E+00 0. -1.
         21   -1    0    0  502  503 -0.00000000000E+00 -0.00000000000E+00 -0.38302809563E+02  0.38302809563E+02  0.00000000000E+00 0.  1.
         24    1    1    2    0    0  0.22865322053E+02  0.14080431285E+02  0.19822997302E+02  0.87070366223E+02  0.80419002446E+02 0.  0.
          1    1    1    2  501    0 -0.24574621205E+02  0.19915624761E+02  0.30083573364E+03  0.30249410367E+03  0.00000000000E+00 0. -1.
         -2    1    1    2    0  503  0.17092991516E+01 -0.33996056046E+02  0.71388472921E+02  0.79088353101E+02  0.00000000000E+00 0.  1.
<mgrwt>
<rscale>  2 0.75227103E+02</rscale>
<asrwt>0</asrwt>
<pdfrwt beam="1">  1       21 0.66207691E-01 0.75227103E+02</pdfrwt>
<pdfrwt beam="2">  1       21 0.58927402E-02 0.75227103E+02</pdfrwt>
<totfact> 0.43296548E+05</totfact>
</mgrwt>
</event>
<event>
 5    1  0.1696945E+000  0.9415018E+02  0.7546771E-02  0.1293102E+00
         21   -1    0    0  501  502  0.00000000000E+00  0.00000000000E+00  0.11737741356E+04  0.11737741356E+04  0.00000000000E+00 0.  1.
         21   -1    0    0  502  503 -0.00000000000E+00 -0.00000000000E+00 -0.81250378914E+01  0.81250378914E+01  0.00000000000E+00 0. -1.
         24    1    1    2    0    0 -0.24118449893E+02  0.33336867162E+02  0.41964558716E+03  0.42925829184E+03  0.80419002446E+02 0. -1.
          1    1    1    2  501    0  0.57989822952E+02 -0.24558968809E+02  0.54353337910E+03  0.54716953197E+03  0.00000000000E+00 0. -1.
         -2    1    1    2    0  503 -0.33871373059E+02 -0.87778983531E+01  0.20247013143E+03  0.20547134967E+03  0.00000000000E+00 0.  1.
<mgrwt>
<rscale>  2 0.94150182E+02</rscale>
<asrwt>0</asrwt>
<pdfrwt beam="1">  1       21 0.18058050E+00 0.94150182E+02</pdfrwt>
<pdfrwt beam="2">  1       21 0.12500068E-02 0.94150182E+02</pdfrwt>
<totfact> 0.49093103E+05</totfact>
</mgrwt>
</event>
<event>
 5    1  0.1696945E+000  0.1324796E+03  0.7546771E-02  0.1223822E+00
         21   -1    0    0  503  502  0.00000000000E+00  0.00000000000E+00  0.17686936044E+02  0.17686936044E+02  0.00000000000E+00 0. -1.
         21   -1    0    0  501  503 -0.00000000000E+00 -0.00000000000E+00 -0.14137534212E+04  0.14137534212E+04  0.00000000000E+00 0.  1.
         24    1    1    2    0    0 -0.57742776127E+01  0.25117497836E+00 -0.34616466123E+03  0.35543015349E+03  0.80419002446E+02 0.  0.
          1    1    1    2  501    0  0.87337377392E+02  0.36768620479E+02 -0.86896165476E+03  0.87411332582E+03  0.00000000000E+00 0. -1.
         -2    1    1    2    0  502 -0.81563099779E+02 -0.37019795457E+02 -0.18094016919E+03  0.20189687796E+03  0.00000000000E+00 0.  1.
<mgrwt>
<rscale>  2 0.13247960E+03</rscale>
<asrwt>0</asrwt>
<pdfrwt beam="1">  1       21 0.27210676E-02 0.13247960E+03</pdfrwt>
<pdfrwt beam="2">  1       21 0.21750049E+00 0.13247960E+03</pdfrwt>
<totfact> 0.80770821E+04</totfact>
</mgrwt>
</event>
<event>
 5    1  0.1696945E+000  0.9615667E+02  0.7546771E-02  0.1288592E+00
         21   -1    0    0  503  502  0.00000000000E+00  0.00000000000E+00  0.20419499900E+03  0.20419499900E+03  0.00000000000E+00 0. -1.
         21   -1    0    0  501  503 -0.00000000000E+00 -0.00000000000E+00 -0.71088598085E+02  0.71088598085E+02  0.00000000000E+00 0. -1.
         24    1    1    2    0    0  0.11060382990E+02 -0.72029040518E+02 -0.54525303197E+01  0.10866214056E+03  0.80419002446E+02 0. -1.
          1    1    1    2  501    0 -0.26211582375E+02  0.55423497254E+02  0.63492598105E+02  0.88261662756E+02  0.00000000000E+00 0. -1.
         -2    1    1    2    0  502  0.15151199385E+02  0.16605543265E+02  0.75066333127E+02  0.78359793766E+02  0.00000000000E+00 0.  1.
<mgrwt>
<rscale>  2 0.96156671E+02</rscale>
<asrwt>0</asrwt>
<pdfrwt beam="1">  1       21 0.31414615E-01 0.96156671E+02</pdfrwt>
<pdfrwt beam="2">  1       21 0.10936708E-01 0.96156671E+02</pdfrwt>
<totfact> 0.67738711E+05</totfact>
</mgrwt>
</event>
<event>
 5    1  0.1696945E+000  0.1007793E+03  0.7546771E-02  0.1278666E+00
         21   -1    0    0  503  502  0.00000000000E+00  0.00000000000E+00  0.19498522037E+03  0.19498522037E+03  0.00000000000E+00 0. -1.
         21   -1    0    0  501  503 -0.00000000000E+00 -0.00000000000E+00 -0.15141129061E+03  0.15141129061E+03  0.00000000000E+00 0. -1.
         24    1    1    2    0    0  0.66064367180E+02  0.47721948891E+02  0.13896443004E+03  0.18005614065E+03  0.80419002446E+02 0. -1.
          1    1    1    2  501    0 -0.49418424962E+02 -0.17251968771E+02 -0.11508065350E+03  0.12642534541E+03  0.00000000000E+00 0. -1.
         -2    1    1    2    0  502 -0.16645942218E+02 -0.30469980119E+02  0.19690153214E+02  0.39915024920E+02  0.00000000000E+00 0.  1.
<mgrwt>
<rscale>  2 0.10077930E+03</rscale>
<asrwt>0</asrwt>
<pdfrwt beam="1">  1       21 0.29997726E-01 0.10077930E+03</pdfrwt>
<pdfrwt beam="2">  1       21 0.23294045E-01 0.10077930E+03</pdfrwt>
<totfact> 0.18955797E+05</totfact>
</mgrwt>
</event>
<event>
 5    1  0.1696945E+000  0.1072999E+03  0.7546771E-02  0.1265653E+00
         21   -1    0    0  501  502  0.00000000000E+00  0.00000000000E+00  0.94015793955E+02  0.94015793955E+02  0.00000000000E+00 0.  1.
         21   -1    0    0  502  503 -0.00000000000E+00 -0.00000000000E+00 -0.14747461427E+03  0.14747461427E+03  0.00000000000E+00 0. -1.
         24    1    1    2    0    0 -0.43335974214E+02 -0.39859429501E+02 -0.38470755232E+02  0.10683630349E+03  0.80419002446E+02 0.  0.
          1    1    1    2  501    0  0.31941558571E+00  0.65069880085E+02  0.26036455568E+02  0.70086292092E+02  0.00000000000E+00 0. -1.
         -2    1    1    2    0  503  0.43016558629E+02 -0.25210450585E+02 -0.41024520655E+02  0.64567812646E+02  0.00000000000E+00 0.  1.
<mgrwt>
<rscale>  2 0.10729991E+03</rscale>
<asrwt>0</asrwt>
<pdfrwt beam="1">  1       21 0.14463968E-01 0.10729991E+03</pdfrwt>
<pdfrwt beam="2">  1       21 0.22688402E-01 0.10729991E+03</pdfrwt>
<totfact> 0.76554460E+05</totfact>
</mgrwt>
</event>
<event>
 5    1  0.1696945E+000  0.6371057E+02  0.7546771E-02  0.1382888E+00
         21   -1    0    0  503  502  0.00000000000E+00  0.00000000000E+00  0.37085240517E+02  0.37085240517E+02  0.00000000000E+00 0. -1.
         21   -1    0    0  501  503 -0.00000000000E+00 -0.00000000000E+00 -0.11110577091E+03  0.11110577091E+03  0.00000000000E+00 0. -1.
         24    1    1    2    0    0  0.71263439722E+01 -0.30129472540E+02 -0.44973973507E+02  0.97203107673E+02  0.80419002446E+02 0. -1.
          1    1    1    2  501    0  0.97190998685E+01  0.18113633361E+02 -0.18974646804E+02  0.27975021665E+02  0.00000000000E+00 0. -1.
         -2    1    1    2    0  502 -0.16845443841E+02  0.12015839178E+02 -0.10071910081E+02  0.23012882089E+02  0.00000000000E+00 0.  1.
<mgrwt>
<rscale>  2 0.63710573E+02</rscale>
<asrwt>0</asrwt>
<pdfrwt beam="1">  1       21 0.57054217E-02 0.63710573E+02</pdfrwt>
<pdfrwt beam="2">  1       21 0.17093195E-01 0.63710573E+02</pdfrwt>
<totfact> 0.62021211E+06</totfact>
</mgrwt>
</event>
<event>
 5    1  0.1696945E+000  0.6867853E+02  0.7546771E-02  0.1364645E+00
         21   -1    0    0  503  502  0.00000000000E+00  0.00000000000E+00  0.93572356284E+02  0.93572356284E+02  0.00000000000E+00 0.  1.
         21   -1    0    0  501  503 -0.00000000000E+00 -0.00000000000E+00 -0.11770354275E+03  0.11770354275E+03  0.00000000000E+00 0. -1.
         24    1    1    2    0    0 -0.20266366370E+02 -0.41595592711E+01  0.19525841285E+02  0.85302414804E+02  0.80419002446E+02 0. -1.
          1    1    1    2  501    0 -0.21019740446E+01  0.24197390171E+02 -0.77212204651E+02  0.80942303730E+02  0.00000000000E+00 0. -1.
         -2    1    1    2    0  502  0.22368340415E+02 -0.20037830899E+02  0.33555176902E+02  0.45031180498E+02  0.00000000000E+00 0.  1.
<mgrwt>
<rscale>  2 0.68678529E+02</rscale>
<asrwt>0</asrwt>
<pdfrwt beam="1">  1       21 0.14395747E-01 0.68678529E+02</pdfrwt>
<pdfrwt beam="2">  1       21 0.18108237E-01 0.68678529E+02</pdfrwt>
<totfact> 0.11561207E+06</totfact>
</mgrwt>
</event>
<event>
 5    1  0.1696945E+000  0.6710186E+02  0.7546771E-02  0.1370235E+00
         21   -1    0    0  503  502  0.00000000000E+00  0.00000000000E+00  0.15144643457E+02  0.15144643457E+02  0.00000000000E+00 0.  1.
         21   -1    0    0  501  503 -0.00000000000E+00 -0.00000000000E+00 -0.53925152763E+03  0.53925152763E+03  0.00000000000E+00 0.  1.
         24    1    1    2    0    0  0.22068128388E+01 -0.22028304101E+02 -0.18636548020E+03  0.20417988238E+03  0.80419002446E+02 0.  1.
          1    1    1    2  501    0 -0.23048393403E+02  0.43317508495E+01 -0.31129607676E+03  0.31217821819E+03  0.00000000000E+00 0. -1.
         -2    1    1    2    0  502  0.20841580564E+02  0.17696553252E+02 -0.26445327209E+02  0.38038070516E+02  0.00000000000E+00 0.  1.
<mgrwt>
<rscale>  2 0.67101855E+02</rscale>
<asrwt>0</asrwt>
<pdfrwt beam="1">  1       21 0.23299457E-02 0.67101855E+02</pdfrwt>
<pdfrwt beam="2">  1       21 0.82961756E-01 0.67101855E+02</pdfrwt>
<totfact> 0.12056904E+06</totfact>
</mgrwt>
</event>
<event>
 5    1  0.1696945E+000  0.1145364E+03  0.7546771E-02  0.1252393E+00
         21   -1    0    0  501  502  0.00000000000E+00  0.00000000000E+00  0.50332878455E+03  0.50332878455E+03  0.00000000000E+00 0.  1.
         21   -1    0    0  502  503 -0.00000000000E+00 -0.00000000000E+00 -0.31330726547E+02  0.31330726547E+02  0.00000000000E+00 0.  1.
         24    1    1    2    0    0  0.22317243923E+02  0.92145094401E+02  0.16593467779E+03  0.20734105008E+03  0.80419002446E+02 0.  1.
          1    1    1    2  501    0 -0.18680769875E+02 -0.76648389925E+01  0.13494927733E+03  0.13645156054E+03  0.00000000000E+00 0. -1.
         -2    1    1    2    0  503 -0.36364740482E+01 -0.84480255409E+02  0.17111410288E+03  0.19086690049E+03  0.00000000000E+00 0.  1.
<mgrwt>
<rscale>  2 0.11453636E+03</rscale>
<asrwt>0</asrwt>
<pdfrwt beam="1">  1       21 0.77435192E-01 0.11453636E+03</pdfrwt>
<pdfrwt beam="2">  1       21 0.48201121E-02 0.11453636E+03</pdfrwt>
<totfact> 0.42949995E+05</totfact>
</mgrwt>
</event>
<event>
 5    1  0.1696945E+000  0.1448549E+03  0.7546771E-02  0.1206942E+00
         21   -1    0    0  503  502  0.00000000000E+00  0.00000000000E+00  0.18557388870E+04  0.18557388870E+04  0.00000000000E+00 0.  1.
         21   -1    0    0  501  503 -0.00000000000E+00 -0.00000000000E+00 -0.29406531614E+02  0.29406531614E+02  0.00000000000E+00 0.  1.
         24    1    1    2    0    0 -0.11325738410E+03 -0.52487767575E+02  0.20894226027E+03  0.25633237189E+03  0.80419002446E+02 0.  1.
          1    1    1    2  501    0  0.57097545713E+02 -0.91586576368E+01  0.18119520837E+03  0.19019914372E+03  0.00000000000E+00 0. -1.
         -2    1    1    2    0  502  0.56159838391E+02  0.61646425212E+02  0.14361948867E+04  0.14386139030E+04  0.00000000000E+00 0.  1.
<mgrwt>
<rscale>  2 0.14485489E+03</rscale>
<asrwt>0</asrwt>
<pdfrwt beam="1">  1       21 0.28549820E+00 0.14485489E+03</pdfrwt>
<pdfrwt beam="2">  1       21 0.45240832E-02 0.14485489E+03</pdfrwt>
<totfact> 0.13902005E+04</totfact>
</mgrwt>
</event>
<event>
 5    1  0.1696945E+000  0.8842942E+02  0.7546771E-02  0.1306700E+00
         21   -1    0    0  503  502  0.00000000000E+00  0.00000000000E+00  0.46063704157E+01  0.46063704157E+01  0.00000000000E+00 0.  1.
         21   -1    0    0  501  503 -0.00000000000E+00 -0.00000000000E+00 -0.21269672452E+04  0.21269672452E+04  0.00000000000E+00 0.  1.
         24    1    1    2    0    0 -0.47418746789E+02  0.36484331252E+02 -0.11578080940E+04  0.11621387363E+04  0.80419002446E+02 0.  0.
          1    1    1    2  501    0 -0.73521251686E+00 -0.27659042103E+02 -0.68979633247E+03  0.69035102914E+03  0.00000000000E+00 0. -1.
         -2    1    1    2    0  502  0.48153959305E+02 -0.88252891493E+01 -0.27475644830E+03  0.27908385014E+03  0.00000000000E+00 0.  1.
<mgrwt>
<rscale>  2 0.88429417E+02</rscale>
<asrwt>0</asrwt>
<pdfrwt beam="1">  1       21 0.70867358E-03 0.88429417E+02</pdfrwt>
<pdfrwt beam="2">  1       21 0.32722517E+00 0.88429417E+02</pdfrwt>
<totfact> 0.17261635E+05</totfact>
</mgrwt>
</event>
<event>
 5    1  0.1696945E+000  0.1871442E+03  0.7546771E-02  0.1161063E+00
         21   -1    0    0  501  502  0.00000000000E+00  0.00000000000E+00  0.24978156544E+04  0.24978156544E+04  0.00000000000E+00 0. -1.
         21   -1    0    0  502  503 -0.00000000000E+00 -0.00000000000E+00 -0.68572918257E+02  0.68572918257E+02  0.00000000000E+00 0.  1.
         24    1    1    2    0    0 -0.71081290485E+02 -0.10370666171E+03  0.57800861442E+02  0.16004929578E+03  0.80419002446E+02 0.  1.
          1    1    1    2  501    0  0.27327363526E+02 -0.54461130591E+02  0.19919737016E+04  0.19929054236E+04  0.00000000000E+00 0. -1.
         -2    1    1    2    0  503  0.43753926959E+02  0.15816779230E+03  0.37946817311E+03  0.41343385330E+03  0.00000000000E+00 0.  1.
<mgrwt>
<rscale>  2 0.18714419E+03</rscale>
<asrwt>0</asrwt>
<pdfrwt beam="1">  1       21 0.38427926E+00 0.18714419E+03</pdfrwt>
<pdfrwt beam="2">  1       21 0.10549682E-01 0.18714419E+03</pdfrwt>
<totfact> 0.81089935E+02</totfact>
</mgrwt>
</event>
<event>
 5    1  0.1696945E+000  0.9951841E+02  0.7546771E-02  0.1281312E+00
         21   -1    0    0  503  502  0.00000000000E+00  0.00000000000E+00  0.48421665986E+02  0.48421665986E+02  0.00000000000E+00 0. -1.
         21   -1    0    0  501  503 -0.00000000000E+00 -0.00000000000E+00 -0.26556850585E+03  0.26556850585E+03  0.00000000000E+00 0. -1.
         24    1    1    2    0    0 -0.51943429095E+02 -0.25080835693E+02 -0.83347002942E+02  0.12938742983E+03  0.80419002446E+02 0. -1.
          1    1    1    2  501    0  0.69479667460E+02  0.37144340048E+02 -0.14151066466E+03  0.16196417628E+03  0.00000000000E+00 0. -1.
         -2    1    1    2    0  502 -0.17536238365E+02 -0.12063504355E+02  0.77108277354E+01  0.22638565716E+02  0.00000000000E+00 0.  1.
<mgrwt>
<rscale>  2 0.99518409E+02</rscale>
<asrwt>0</asrwt>
<pdfrwt beam="1">  1       21 0.74494870E-02 0.99518409E+02</pdfrwt>
<pdfrwt beam="2">  1       21 0.40856694E-01 0.99518409E+02</pdfrwt>
<totfact> 0.78602917E+05</totfact>
</mgrwt>
</event>
<event>
 5    1  0.1696945E+000  0.2026245E+03  0.7546771E-02  0.1147543E+00
         21   -1    0    0  503  502  0.00000000000E+00  0.00000000000E+00  0.20117529137E+03  0.20117529137E+03  0.00000000000E+00 0.  1.
         21   -1    0    0  501  503 -0.00000000000E+00 -0.00000000000E+00 -0.36671202549E+03  0.36671202549E+03  0.00000000000E+00 0. -1.
         24    1    1    2    0    0  0.16535959068E+02  0.10634811144E+03 -0.14110448251E+03  0.19483595584E+03  0.80419002446E+02 0. -1.
          1    1    1    2  501    0  0.84244422702E+02 -0.14106346222E+03 -0.13997937172E+03  0.21584774180E+03  0.00000000000E+00 0. -1.
         -2    1    1    2    0  502 -0.10078038177E+03  0.34715350777E+02  0.11554712011E+03  0.15720361922E+03  0.00000000000E+00 0.  1.
<mgrwt>
<rscale>  2 0.20262451E+03</rscale>
<asrwt>0</asrwt>
<pdfrwt beam="1">  1       21 0.30950045E-01 0.20262451E+03</pdfrwt>
<pdfrwt beam="2">  1       21 0.56417234E-01 0.20262451E+03</pdfrwt>
<totfact> 0.29470136E+04</totfact>
</mgrwt>
</event>
<event>
 5    1  0.1696945E+000  0.6698561E+02  0.7546771E-02  0.1370654E+00
         21   -1    0    0  503  502  0.00000000000E+00  0.00000000000E+00  0.21625500725E+02  0.21625500725E+02  0.00000000000E+00 0.  1.
         21   -1    0    0  501  503 -0.00000000000E+00 -0.00000000000E+00 -0.21242595381E+03  0.21242595381E+03  0.00000000000E+00 0.  1.
         24    1    1    2    0    0  0.26492407472E+02 -0.13915543496E+02 -0.13808313412E+03  0.16257200831E+03  0.80419002446E+02 0.  1.
          1    1    1    2  501    0 -0.53451998795E+01  0.24105331852E+02 -0.24643032212E+02  0.34884340642E+02  0.00000000000E+00 0. -1.
         -2    1    1    2    0  502 -0.21147207593E+02 -0.10189788356E+02 -0.28074286757E+02  0.36595105583E+02  0.00000000000E+00 0.  1.
<mgrwt>
<rscale>  2 0.66985612E+02</rscale>
<asrwt>0</asrwt>
<pdfrwt beam="1">  1       21 0.33270002E-02 0.66985612E+02</pdfrwt>
<pdfrwt beam="2">  1       21 0.32680915E-01 0.66985612E+02</pdfrwt>
<totfact> 0.45594383E+06</totfact>
</mgrwt>
</event>
<event>
 5    1  0.1696945E+000  0.1480046E+03  0.7546771E-02  0.1202947E+00
         21   -1    0    0  501  502  0.00000000000E+00  0.00000000000E+00  0.13943272615E+02  0.13943272615E+02  0.00000000000E+00 0.  1.
         21   -1    0    0  502  503 -0.00000000000E+00 -0.00000000000E+00 -0.36326558050E+04  0.36326558050E+04  0.00000000000E+00 0. -1.
         24    1    1    2    0    0 -0.36139559052E+02  0.13048252411E+03 -0.10376747825E+04  0.10495560618E+04  0.80419002446E+02 0.  1.
          1    1    1    2  501    0  0.12646174474E+02 -0.95865852145E+02 -0.29143121098E+03  0.30705429173E+03  0.00000000000E+00 0. -1.
         -2    1    1    2    0  503  0.23493384578E+02 -0.34616671968E+02 -0.22896065389E+04  0.22899887240E+04  0.00000000000E+00 0.  1.
<mgrwt>
<rscale>  2 0.14800464E+03</rscale>
<asrwt>0</asrwt>
<pdfrwt beam="1">  1       21 0.21451176E-02 0.14800464E+03</pdfrwt>
<pdfrwt beam="2">  1       21 0.55887044E+00 0.14800464E+03</pdfrwt>
<totfact> 0.83891962E+02</totfact>
</mgrwt>
</event>
<event>
 5    1  0.1696945E+000  0.6779930E+02  0.7546771E-02  0.1367741E+00
         21   -1    0    0  501  502  0.00000000000E+00  0.00000000000E+00  0.40408286411E+03  0.40408286411E+03  0.00000000000E+00 0. -1.
         21   -1    0    0  502  503 -0.00000000000E+00 -0.00000000000E+00 -0.33990959548E+02  0.33990959548E+02  0.00000000000E+00 0. -1.
         24    1    1    2    0    0 -0.28810726014E+01 -0.19797347951E+02  0.50868845298E+02  0.97237291928E+02  0.80419002446E+02 0. -1.
          1    1    1    2  501    0  0.18441949145E+02 -0.85989138183E+01  0.30464849408E+03  0.30532728629E+03  0.00000000000E+00 0. -1.
         -2    1    1    2    0  503 -0.15560876544E+02  0.28396261769E+02  0.14574565180E+02  0.35509245436E+02  0.00000000000E+00 0.  1.
<mgrwt>
<rscale>  2 0.67799301E+02</rscale>
<asrwt>0</asrwt>
<pdfrwt beam="1">  1       21 0.62166591E-01 0.67799301E+02</pdfrwt>
<pdfrwt beam="2">  1       21 0.52293787E-02 0.67799301E+02</pdfrwt>
<totfact> 0.60277495E+05</totfact>
</mgrwt>
</event>
<event>
 5    1  0.1696945E+000  0.9621466E+02  0.7546771E-02  0.1288464E+00
         21   -1    0    0  501  502  0.00000000000E+00  0.00000000000E+00  0.20866904240E+03  0.20866904240E+03  0.00000000000E+00 0. -1.
         21   -1    0    0  502  503 -0.00000000000E+00 -0.00000000000E+00 -0.53586910377E+02  0.53586910377E+02  0.00000000000E+00 0.  1.
         24    1    1    2    0    0 -0.18089000180E+02 -0.73919716105E+02  0.38637123468E+02  0.11726627657E+03  0.80419002446E+02 0.  1.
          1    1    1    2  501    0  0.16958920005E+02  0.14592199043E+02  0.55919784135E+02  0.60229224620E+02  0.00000000000E+00 0. -1.
         -2    1    1    2    0  503  0.11300801758E+01  0.59327517063E+02  0.60525224419E+02  0.84760451586E+02  0.00000000000E+00 0.  1.
<mgrwt>
<rscale>  2 0.96214658E+02</rscale>
<asrwt>0</asrwt>
<pdfrwt beam="1">  1       21 0.32102929E-01 0.96214658E+02</pdfrwt>
<pdfrwt beam="2">  1       21 0.82441402E-02 0.96214658E+02</pdfrwt>
<totfact> 0.10593729E+06</totfact>
</mgrwt>
</event>
<event>
 5    1  0.1696945E+000  0.9311984E+02  0.7546771E-02  0.1295468E+00
         21   -1    0    0  501  502  0.00000000000E+00  0.00000000000E+00  0.32138506885E+03  0.32138506885E+03  0.00000000000E+00 0. -1.
         21   -1    0    0  502  503 -0.00000000000E+00 -0.00000000000E+00 -0.65989147833E+02  0.65989147833E+02  0.00000000000E+00 0.  1.
         24    1    1    2    0    0 -0.27800810547E+02  0.15647917426E+02  0.44610729567E+02  0.97339999660E+02  0.80419002446E+02 0.  0.
          1    1    1    2  501    0  0.55334256826E+02  0.16168629209E+02  0.23467315493E+03  0.24165014834E+03  0.00000000000E+00 0. -1.
         -2    1    1    2    0  503 -0.27533446279E+02 -0.31816546636E+02 -0.23887963474E+02  0.48384068687E+02  0.00000000000E+00 0.  1.
<mgrwt>
<rscale>  2 0.93119843E+02</rscale>
<asrwt>0</asrwt>
<pdfrwt beam="1">  1       21 0.49443856E-01 0.93119843E+02</pdfrwt>
<pdfrwt beam="2">  1       21 0.10152177E-01 0.93119843E+02</pdfrwt>
<totfact> 0.31433142E+05</totfact>
</mgrwt>
</event>
<event>
 5    1  0.1696945E+000  0.9091936E+02  0.7546771E-02  0.1300640E+00
         21   -1    0    0  501  502  0.00000000000E+00  0.00000000000E+00  0.32380684353E+02  0.32380684353E+02  0.00000000000E+00 0.  1.
         21   -1    0    0  502  503 -0.00000000000E+00 -0.00000000000E+00 -0.15044478979E+04  0.15044478979E+04  0.00000000000E+00 0.  1.
         24    1    1    2    0    0  0.40063111971E+02  0.31909892016E+02 -0.16567922950E+03  0.19115469440E+03  0.80419002446E+02 0.  1.
          1    1    1    2  501    0 -0.55961380361E+01 -0.48092981387E+02 -0.10903589430E+02  0.49630030043E+02  0.00000000000E+00 0. -1.
         -2    1    1    2    0  503 -0.34466973935E+02  0.16183089370E+02 -0.12954843946E+04  0.12960438578E+04  0.00000000000E+00 0.  1.
<mgrwt>
<rscale>  2 0.90919364E+02</rscale>
<asrwt>0</asrwt>
<pdfrwt beam="1">  1       21 0.49816456E-02 0.90919364E+02</pdfrwt>
<pdfrwt beam="2">  1       21 0.23145343E+00 0.90919364E+02</pdfrwt>
<totfact> 0.25799970E+04</totfact>
</mgrwt>
</event>
<event>
 5    1  0.1696945E+000  0.8566004E+02  0.7546771E-02  0.1313715E+00
         21   -1    0    0  501  502  0.00000000000E+00  0.00000000000E+00  0.22853046718E+03  0.22853046718E+03  0.00000000000E+00 0. -1.
         21   -1    0    0  502  503 -0.00000000000E+00 -0.00000000000E+00 -0.45780032402E+02  0.45780032402E+02  0.00000000000E+00 0.  1.
         24    1    1    2    0    0  0.26612397255E+02  0.10479744349E+02  0.16299918932E+02  0.86896191176E+02  0.80419002446E+02 0.  1.
          1    1    1    2  501    0  0.28335575378E+02 -0.12524991503E+02  0.65615501729E+02  0.72561520872E+02  0.00000000000E+00 0. -1.
         -2    1    1    2    0  503 -0.54947972633E+02  0.20452471540E+01  0.10083501412E+03  0.11485278754E+03  0.00000000000E+00 0.  1.
<mgrwt>
<rscale>  2 0.85660041E+02</rscale>
<asrwt>0</asrwt>
<pdfrwt beam="1">  1       21 0.35158533E-01 0.85660041E+02</pdfrwt>
<pdfrwt beam="2">  1       21 0.70430820E-02 0.85660041E+02</pdfrwt>
<totfact> 0.11589038E+06</totfact>
</mgrwt>
</event>
<event>
 5    1  0.1696945E+000  0.8153366E+02  0.7546771E-02  0.1324755E+00
         21   -1    0    0  501  502  0.00000000000E+00  0.00000000000E+00  0.13313812349E+03  0.13313812349E+03  0.00000000000E+00 0. -1.
         21   -1    0    0  502  503 -0.00000000000E+00 -0.00000000000E+00 -0.50672157693E+02  0.50672157693E+02  0.00000000000E+00 0. -1.
         24    1    1    2    0    0  0.40991574409E+02 -0.86675427500E+01  0.40399547788E+02  0.99271218818E+02  0.80419002446E+02 0. -1.
          1    1    1    2  501    0 -0.32458486675E+02  0.33190265777E+02  0.20342831048E+02  0.50685085327E+02  0.00000000000E+00 0. -1.
         -2    1    1    2    0  503 -0.85330877336E+01 -0.24522723027E+02  0.21723586964E+02  0.33853977041E+02  0.00000000000E+00 0.  1.
<mgrwt>
<rscale>  2 0.81533664E+02</rscale>
<asrwt>0</asrwt>
<pdfrwt beam="1">  1       21 0.20482788E-01 0.81533664E+02</pdfrwt>
<pdfrwt beam="2">  1       21 0.77957166E-02 0.81533664E+02</pdfrwt>
<totfact> 0.26929718E+06</totfact>
</mgrwt>
</event>
<event>
 5    1  0.1696945E+000  0.9445808E+02  0.7546771E-02  0.1292401E+00
         21   -1    0    0  501  502  0.00000000000E+00  0.00000000000E+00  0.33185619233E+02  0.33185619233E+02  0.00000000000E+00 0.  1.
         21   -1    0    0  502  503 -0.00000000000E+00 -0.00000000000E+00 -0.32027364235E+03  0.32027364235E+03  0.00000000000E+00 0. -1.
         24    1    1    2    0    0  0.61812236396E+02 -0.60157116821E+01 -0.16675149975E+03  0.19526960844E+03  0.80419002446E+02 0. -1.
          1    1    1    2  501    0 -0.32753765569E+01  0.25426851114E+02 -0.32337878543E+01  0.25840089649E+02  0.00000000000E+00 0. -1.
         -2    1    1    2    0  503 -0.58536859839E+02 -0.19411139432E+02 -0.11710273552E+03  0.13234956350E+03  0.00000000000E+00 0.  1.
<mgrwt>
<rscale>  2 0.94458080E+02</rscale>
<asrwt>0</asrwt>
<pdfrwt beam="1">  1       21 0.51054798E-02 0.94458080E+02</pdfrwt>
<pdfrwt beam="2">  1       21 0.49272868E-01 0.94458080E+02</pdfrwt>
<totfact> 0.10185221E+06</totfact>
</mgrwt>
</event>
<event>
 5    1  0.1696945E+000  0.1112710E+03  0.7546771E-02  0.1258234E+00
         21   -1    0    0  503  502  0.00000000000E+00  0.00000000000E+00  0.93346556742E+02  0.93346556742E+02  0.00000000000E+00 0. -1.
         21   -1    0    0  501  503 -0.00000000000E+00 -0.00000000000E+00 -0.19954427048E+03  0.19954427048E+03  0.00000000000E+00 0. -1.
         24    1    1    2    0    0 -0.47432697878E+02 -0.78851194022E+02 -0.33941907306E+02  0.12683312128E+03  0.80419002446E+02 0. -1.
          1    1    1    2  501    0 -0.27328849215E+00  0.36622985765E+02 -0.92273564552E+02  0.99276021718E+02  0.00000000000E+00 0. -1.
         -2    1    1    2    0  502  0.47705986370E+02  0.42228208257E+02  0.20017758120E+02  0.66781684228E+02  0.00000000000E+00 0.  1.
<mgrwt>
<rscale>  2 0.11127104E+03</rscale>
<asrwt>0</asrwt>
<pdfrwt beam="1">  1       21 0.14361009E-01 0.11127104E+03</pdfrwt>
<pdfrwt beam="2">  1       21 0.30699118E-01 0.11127104E+03</pdfrwt>
<totfact> 0.43743823E+05</totfact>
</mgrwt>
</event>
<event>
 5    1  0.1696945E+000  0.7219869E+02  0.7546771E-02  0.1352772E+00
         21   -1    0    0  503  502  0.00000000000E+00  0.00000000000E+00  0.66309147329E+03  0.66309147329E+03  0.00000000000E+00 0.  1.
         21   -1    0    0  501  503 -0.00000000000E+00 -0.00000000000E+00 -0.16282606130E+02  0.16282606130E+02  0.00000000000E+00 0.  1.
         24    1    1    2    0    0  0.17670843996E+02  0.43188459350E+02  0.14072727727E+03  0.16866797049E+03  0.80419002446E+02 0.  1.
          1    1    1    2  501    0 -0.18366942670E+02 -0.16401047216E+02  0.78176745772E+02  0.81963055777E+02  0.00000000000E+00 0. -1.
         -2    1    1    2    0  502  0.69609867405E+00 -0.26787412134E+02  0.42790484413E+03  0.42874305315E+03  0.00000000000E+00 0.  1.
<mgrwt>
<rscale>  2 0.72198690E+02</rscale>
<asrwt>0</asrwt>
<pdfrwt beam="1">  1       21 0.10201405E+00 0.72198690E+02</pdfrwt>
<pdfrwt beam="2">  1       21 0.25050168E-02 0.72198690E+02</pdfrwt>
<totfact> 0.67495236E+05</totfact>
</mgrwt>
</event>
<event>
 5    1  0.1696945E+000  0.8792947E+02  0.7546771E-02  0.1307945E+00
         21   -1    0    0  503  502  0.00000000000E+00  0.00000000000E+00  0.50281091558E+01  0.50281091558E+01  0.00000000000E+00 0. -1.
         21   -1    0    0  501  503 -0.00000000000E+00 -0.00000000000E+00 -0.20628899924E+04  0.20628899924E+04  0.00000000000E+00 0.  1.
         24    1    1    2    0    0  0.29610146617E+02 -0.30670373630E+02 -0.12803883348E+04  0.12836194672E+04  0.80419002446E+02 0.  0.
          1    1    1    2  501    0  0.13997489263E+02 -0.15802334713E+02 -0.46041942028E+03  0.46090312003E+03  0.00000000000E+00 0. -1.
         -2    1    1    2    0  502 -0.43607635879E+02  0.46472708344E+02 -0.31705412813E+03  0.32339551433E+03  0.00000000000E+00 0.  1.
<mgrwt>
<rscale>  2 0.87929473E+02</rscale>
<asrwt>0</asrwt>
<pdfrwt beam="1">  1       21 0.77355633E-03 0.87929473E+02</pdfrwt>
<pdfrwt beam="2">  1       21 0.31736725E+00 0.87929473E+02</pdfrwt>
<totfact> 0.17095913E+05</totfact>
</mgrwt>
</event>
<event>
 5    1  0.1696945E+000  0.8937452E+02  0.7546771E-02  0.1304373E+00
         21   -1    0    0  501  502  0.00000000000E+00  0.00000000000E+00  0.25068300074E+03  0.25068300074E+03  0.00000000000E+00 0. -1.
         21   -1    0    0  502  503 -0.00000000000E+00 -0.00000000000E+00 -0.35368518730E+02  0.35368518730E+02  0.00000000000E+00 0.  1.
         24    1    1    2    0    0  0.49298251153E+01  0.70959120563E+02  0.10778322737E+03  0.15213132493E+03  0.80419002446E+02 0. -1.
          1    1    1    2  501    0  0.96996583648E+00 -0.28825612579E+02  0.75027297934E+02  0.80380048579E+02  0.00000000000E+00 0. -1.
         -2    1    1    2    0  503 -0.58997909517E+01 -0.42133507984E+02  0.32503956701E+02  0.53540145961E+02  0.00000000000E+00 0.  1.
<mgrwt>
<rscale>  2 0.89374518E+02</rscale>
<asrwt>0</asrwt>
<pdfrwt beam="1">  1       21 0.38566614E-01 0.89374518E+02</pdfrwt>
<pdfrwt beam="2">  1       21 0.54413107E-02 0.89374518E+02</pdfrwt>
<totfact> 0.14943680E+06</totfact>
</mgrwt>
</event>
<event>
 5    1  0.1696945E+000  0.6985266E+02  0.7546771E-02  0.1360595E+00
         21   -1    0    0  501  502  0.00000000000E+00  0.00000000000E+00  0.53681810891E+02  0.53681810891E+02  0.00000000000E+00 0. -1.
         21   -1    0    0  502  503 -0.00000000000E+00 -0.00000000000E+00 -0.19673250217E+03  0.19673250217E+03  0.00000000000E+00 0. -1.
         24    1    1    2    0    0 -0.81153515000E+01  0.13711902167E+02 -0.10391955239E+03  0.13236451380E+03  0.80419002446E+02 0. -1.
          1    1    1    2  501    0  0.30272808714E+02 -0.17906259197E+02  0.29439111201E+02  0.45866527383E+02  0.00000000000E+00 0. -1.
         -2    1    1    2    0  503 -0.22157457214E+02  0.41943570302E+01 -0.68570250091E+02  0.72183271875E+02  0.00000000000E+00 0.  1.
<mgrwt>
<rscale>  2 0.69852661E+02</rscale>
<asrwt>0</asrwt>
<pdfrwt beam="1">  1       21 0.82587401E-02 0.69852661E+02</pdfrwt>
<pdfrwt beam="2">  1       21 0.30266539E-01 0.69852661E+02</pdfrwt>
<totfact> 0.11726302E+06</totfact>
</mgrwt>
</event>
<event>
 5    1  0.1696945E+000  0.1232014E+03  0.7546771E-02  0.1237907E+00
         21   -1    0    0  503  502  0.00000000000E+00  0.00000000000E+00  0.17885753401E+03  0.17885753401E+03  0.00000000000E+00 0. -1.
         21   -1    0    0  501  503 -0.00000000000E+00 -0.00000000000E+00 -0.11145399826E+03  0.11145399826E+03  0.00000000000E+00 0.  1.
         24    1    1    2    0    0  0.14149055557E+02 -0.64260896250E+02  0.99756737833E+02  0.14404263694E+03  0.80419002446E+02 0. -1.
          1    1    1    2  501    0  0.55845612369E+02  0.38852331647E+02 -0.18809151474E+02  0.70583427761E+02  0.00000000000E+00 0. -1.
         -2    1    1    2    0  502 -0.69994667927E+02  0.25408564602E+02 -0.13544050616E+02  0.75685467564E+02  0.00000000000E+00 0.  1.
<mgrwt>
<rscale>  2 0.12320145E+03</rscale>
<asrwt>0</asrwt>
<pdfrwt beam="1">  1       21 0.27516544E-01 0.12320145E+03</pdfrwt>
<pdfrwt beam="2">  1       21 0.17146769E-01 0.12320145E+03</pdfrwt>
<totfact> 0.39127674E+05</totfact>
</mgrwt>
</event>
<event>
 5    1  0.1696945E+000  0.9932743E+02  0.7546771E-02  0.1281717E+00
         21   -1    0    0  503  502  0.00000000000E+00  0.00000000000E+00  0.57696936955E+02  0.57696936955E+02  0.00000000000E+00 0. -1.
         21   -1    0    0  501  503 -0.00000000000E+00 -0.00000000000E+00 -0.17886868594E+03  0.17886868594E+03  0.00000000000E+00 0.  1.
         24    1    1    2    0    0 -0.44348859862E+02  0.59518176363E+02 -0.84866808922E+02  0.13848763808E+03  0.80419002446E+02 0.  0.
          1    1    1    2  501    0  0.54624217782E+02 -0.41983325985E+02 -0.36042417030E+02  0.77752560437E+02  0.00000000000E+00 0. -1.
         -2    1    1    2    0  502 -0.10275357920E+02 -0.17534850378E+02 -0.26252303622E+00  0.20325424387E+02  0.00000000000E+00 0.  1.
<mgrwt>
<rscale>  2 0.99327428E+02</rscale>
<asrwt>0</asrwt>
<pdfrwt beam="1">  1       21 0.88764519E-02 0.99327428E+02</pdfrwt>
<pdfrwt beam="2">  1       21 0.27518259E-01 0.99327428E+02</pdfrwt>
<totfact> 0.12535062E+06</totfact>
</mgrwt>
</event>
<event>
 5    1  0.1696945E+000  0.6984309E+02  0.7546771E-02  0.1360627E+00
         21   -1    0    0  501  502  0.00000000000E+00  0.00000000000E+00  0.23385124350E+02  0.23385124350E+02  0.00000000000E+00 0.  1.
         21   -1    0    0  502  503 -0.00000000000E+00 -0.00000000000E+00 -0.77970283775E+03  0.77970283775E+03  0.00000000000E+00 0.  1.
         24    1    1    2    0    0  0.34804090455E+02  0.20711272072E+02 -0.35716046272E+03  0.36833557198E+03  0.80419002446E+02 0.  1.
          1    1    1    2  501    0 -0.23596933916E+02  0.26390047715E+01  0.92812062646E+01  0.25493536949E+02  0.00000000000E+00 0. -1.
         -2    1    1    2    0  503 -0.11207156539E+02 -0.23350276844E+02 -0.40843845694E+03  0.40925885317E+03  0.00000000000E+00 0.  1.
<mgrwt>
<rscale>  2 0.69843092E+02</rscale>
<asrwt>0</asrwt>
<pdfrwt beam="1">  1       21 0.35977116E-02 0.69843092E+02</pdfrwt>
<pdfrwt beam="2">  1       21 0.11995428E+00 0.69843092E+02</pdfrwt>
<totfact> 0.25748123E+05</totfact>
</mgrwt>
</event>
<event>
 5    1  0.1696945E+000  0.9004703E+02  0.7546771E-02  0.1302738E+00
         21   -1    0    0  503  502  0.00000000000E+00  0.00000000000E+00  0.14365961353E+04  0.14365961353E+04  0.00000000000E+00 0.  1.
         21   -1    0    0  501  503 -0.00000000000E+00 -0.00000000000E+00 -0.14894213166E+02  0.14894213166E+02  0.00000000000E+00 0.  1.
         24    1    1    2    0    0 -0.60581586418E+02  0.92746146080E+01  0.20534152977E+03  0.22888535753E+03  0.80419002446E+02 0.  1.
          1    1    1    2  501    0  0.12188622364E+02 -0.25236669122E+02  0.74325762343E+02  0.79434066567E+02  0.00000000000E+00 0. -1.
         -2    1    1    2    0  502  0.48392964055E+02  0.15962054514E+02  0.11420346300E+04  0.11431709244E+04  0.00000000000E+00 0.  1.
<mgrwt>
<rscale>  2 0.90047029E+02</rscale>
<asrwt>0</asrwt>
<pdfrwt beam="1">  1       21 0.22101468E+00 0.90047029E+02</pdfrwt>
<pdfrwt beam="2">  1       21 0.22914186E-02 0.90047029E+02</pdfrwt>
<totfact> 0.10567882E+05</totfact>
</mgrwt>
</event>
<event>
 5    1  0.1696945E+000  0.1160188E+03  0.7546771E-02  0.1249813E+00
         21   -1    0    0  501  502  0.00000000000E+00  0.00000000000E+00  0.10144410777E+03  0.10144410777E+03  0.00000000000E+00 0. -1.
         21   -1    0    0  502  503 -0.00000000000E+00 -0.00000000000E+00 -0.20504545305E+03  0.20504545305E+03  0.00000000000E+00 0.  1.
         24    1    1    2    0    0 -0.19707669022E+02  0.69036231597E+01  0.45846280893E+02  0.94895467000E+02  0.80419002446E+02 0. -1.
          1    1    1    2  501    0  0.39429746991E+02  0.64102016967E+02 -0.64314049988E+02  0.98995305711E+02  0.00000000000E+00 0. -1.
         -2    1    1    2    0  503 -0.19722077969E+02 -0.71005640126E+02 -0.85133576182E+02  0.11259878811E+03  0.00000000000E+00 0.  1.
<mgrwt>
<rscale>  2 0.11601883E+03</rscale>
<asrwt>0</asrwt>
<pdfrwt beam="1">  1       21 0.15606786E-01 0.11601883E+03</pdfrwt>
<pdfrwt beam="2">  1       21 0.31545454E-01 0.11601883E+03</pdfrwt>
<totfact> 0.35723194E+05</totfact>
</mgrwt>
</event>
<event>
 5    1  0.1696945E+000  0.8027926E+02  0.7546771E-02  0.1328261E+00
         21   -1    0    0  501  502  0.00000000000E+00  0.00000000000E+00  0.11803830997E+04  0.11803830997E+04  0.00000000000E+00 0. -1.
         21   -1    0    0  502  503 -0.00000000000E+00 -0.00000000000E+00 -0.72176370016E+01  0.72176370016E+01  0.00000000000E+00 0.  1.
         24    1    1    2    0    0 -0.26144970280E+02  0.26147158615E+02  0.91670079407E+03  0.92096405748E+03  0.80419002446E+02 0. -1.
          1    1    1    2  501    0 -0.20494416766E+02 -0.79163829317E+01  0.98689179358E+02  0.10110511540E+03  0.00000000000E+00 0. -1.
         -2    1    1    2    0  503  0.46639387046E+02 -0.18230775683E+02  0.15777548927E+03  0.16553156382E+03  0.00000000000E+00 0.  1.
<mgrwt>
<rscale>  2 0.80279258E+02</rscale>
<asrwt>0</asrwt>
<pdfrwt beam="1">  1       21 0.18159725E+00 0.80279258E+02</pdfrwt>
<pdfrwt beam="2">  1       21 0.11104066E-02 0.80279258E+02</pdfrwt>
<totfact> 0.58543288E+05</totfact>
</mgrwt>
</event>
<event>
 5    1  0.1696945E+000  0.1107905E+03  0.7546771E-02  0.1259113E+00
         21   -1    0    0  501  502  0.00000000000E+00  0.00000000000E+00  0.65641351545E+03  0.65641351545E+03  0.00000000000E+00 0.  1.
         21   -1    0    0  502  503 -0.00000000000E+00 -0.00000000000E+00 -0.91853672489E+02  0.91853672489E+02  0.00000000000E+00 0.  1.
         24    1    1    2    0    0  0.52017729988E+02 -0.65620553728E+02  0.19646311423E+03  0.22820357690E+03  0.80419002446E+02 0.  1.
          1    1    1    2  501    0 -0.34521210708E+02 -0.30132469398E+01  0.42671783738E+03  0.42812253665E+03  0.00000000000E+00 0. -1.
         -2    1    1    2    0  503 -0.17496519279E+02  0.68633800668E+02 -0.58621108647E+02  0.91941074391E+02  0.00000000000E+00 0.  1.
<mgrwt>
<rscale>  2 0.11079046E+03</rscale>
<asrwt>0</asrwt>
<pdfrwt beam="1">  1       21 0.10098669E+00 0.11079046E+03</pdfrwt>
<pdfrwt beam="2">  1       21 0.14131335E-01 0.11079046E+03</pdfrwt>
<totfact> 0.36856876E+04</totfact>
</mgrwt>
</event>
<event>
 5    1  0.1696945E+000  0.1045223E+03  0.7546771E-02  0.1271064E+00
         21   -1    0    0  501  502  0.00000000000E+00  0.00000000000E+00  0.21854461484E+03  0.21854461484E+03  0.00000000000E+00 0. -1.
         21   -1    0    0  502  503 -0.00000000000E+00 -0.00000000000E+00 -0.55930272969E+02  0.55930272969E+02  0.00000000000E+00 0.  1.
         24    1    1    2    0    0  0.78528033324E+02  0.41371513823E+02  0.11743781342E+03  0.16774119991E+03  0.80419002446E+02 0. -1.
          1    1    1    2  501    0 -0.52661665133E+02 -0.22569885166E+02  0.47845599487E+02  0.74644839616E+02  0.00000000000E+00 0. -1.
         -2    1    1    2    0  503 -0.25866368191E+02 -0.18801628657E+02 -0.26690710371E+01  0.32088848277E+02  0.00000000000E+00 0.  1.
<mgrwt>
<rscale>  2 0.10452233E+03</rscale>
<asrwt>0</asrwt>
<pdfrwt beam="1">  1       21 0.33622248E-01 0.10452233E+03</pdfrwt>
<pdfrwt beam="2">  1       21 0.86046575E-02 0.10452233E+03</pdfrwt>
<totfact> 0.90106149E+05</totfact>
</mgrwt>
</event>
<event>
 5    1  0.1696945E+000  0.1090805E+03  0.7546771E-02  0.1262282E+00
         21   -1    0    0  501  502  0.00000000000E+00  0.00000000000E+00  0.80389566201E+03  0.80389566201E+03  0.00000000000E+00 0.  1.
         21   -1    0    0  502  503 -0.00000000000E+00 -0.00000000000E+00 -0.31662360937E+02  0.31662360937E+02  0.00000000000E+00 0.  1.
         24    1    1    2    0    0 -0.50813467397E+02  0.62850968849E+02  0.69023426179E+03  0.69958759627E+03  0.80419002446E+02 0.  1.
          1    1    1    2  501    0  0.10891673705E+02 -0.63291191611E+02  0.68324998858E+02  0.93769445773E+02  0.00000000000E+00 0. -1.
         -2    1    1    2    0  503  0.39921793692E+02  0.44022276164E+00  0.13674040425E+02  0.42200980903E+02  0.00000000000E+00 0.  1.
<mgrwt>
<rscale>  2 0.10908048E+03</rscale>
<asrwt>0</asrwt>
<pdfrwt beam="1">  1       21 0.12367624E+00 0.10908048E+03</pdfrwt>
<pdfrwt beam="2">  1       21 0.48711331E-02 0.10908048E+03</pdfrwt>
<totfact> 0.14260397E+05</totfact>
</mgrwt>
</event>
<event>
 5    1  0.1696945E+000  0.8111593E+02  0.7546771E-02  0.1325914E+00
         21   -1    0    0  501  502  0.00000000000E+00  0.00000000000E+00  0.65693209074E+02  0.65693209074E+02  0.00000000000E+00 0. -1.
         21   -1    0    0  502  503 -0.00000000000E+00 -0.00000000000E+00 -0.18194853784E+03  0.18194853784E+03  0.00000000000E+00 0.  1.
         24    1    1    2    0    0 -0.38557589379E+01 -0.35191306638E+02 -0.34281627040E+02  0.94317235152E+02  0.80419002446E+02 0. -1.
          1    1    1    2  501    0 -0.29410548914E+02  0.58039488765E+01  0.24018659383E+02  0.38413047374E+02  0.00000000000E+00 0. -1.
         -2    1    1    2    0  503  0.33266307852E+02  0.29387357762E+02 -0.10599236111E+03  0.11491146439E+03  0.00000000000E+00 0.  1.
<mgrwt>
<rscale>  2 0.81115928E+02</rscale>
<asrwt>0</asrwt>
<pdfrwt beam="1">  1       21 0.10106648E-01 0.81115928E+02</pdfrwt>
<pdfrwt beam="2">  1       21 0.27992083E-01 0.81115928E+02</pdfrwt>
<totfact> 0.96575591E+05</totfact>
</mgrwt>
</event>
<event>
 5    1  0.1696945E+000  0.6841659E+02  0.7546771E-02  0.1365562E+00
         21   -1    0    0  501  502  0.00000000000E+00  0.00000000000E+00  0.24123139306E+02  0.24123139306E+02  0.00000000000E+00 0.  1.
         21   -1    0    0  502  503 -0.00000000000E+00 -0.00000000000E+00 -0.32841410725E+03  0.32841410725E+03  0.00000000000E+00 0. -1.
         24    1    1    2    0    0  0.16544817153E+02 -0.44510885477E+01 -0.14375000810E+03  0.16560442007E+03  0.80419002446E+02 0.  0.
          1    1    1    2  501    0  0.18858931534E+01  0.26105403861E+02 -0.24309494920E+01  0.26286084135E+02  0.00000000000E+00 0. -1.
         -2    1    1    2    0  503 -0.18430710306E+02 -0.21654315313E+02 -0.15811001036E+03  0.16064674235E+03  0.00000000000E+00 0.  1.
<mgrwt>
<rscale>  2 0.68416586E+02</rscale>
<asrwt>0</asrwt>
<pdfrwt beam="1">  1       21 0.37112522E-02 0.68416586E+02</pdfrwt>
<pdfrwt beam="2">  1       21 0.50525247E-01 0.68416586E+02</pdfrwt>
<totfact> 0.16225893E+06</totfact>
</mgrwt>
</event>
<event>
 5    1  0.1750431E+000  0.1192631E+03  0.7546771E-02  0.1244318E+00
         21   -1    0    0  503  502  0.00000000000E+00  0.00000000000E+00  0.80571260485E+03  0.80571260485E+03  0.00000000000E+00 0.  1.
         21   -1    0    0  501  503 -0.00000000000E+00 -0.00000000000E+00 -0.53346922065E+02  0.53346922065E+02  0.00000000000E+00 0. -1.
         24    1    1    2    0    0  0.37200274072E+02  0.15616262442E+01  0.13865542242E+03  0.16455649847E+03  0.80419002446E+02 0. -1.
          1    1    1    2  501    0 -0.62617923541E+02  0.57872086612E+02  0.83186579387E+01  0.85670198011E+02  0.00000000000E+00 0. -1.
         -2    1    1    2    0  502  0.25417649468E+02 -0.59433712856E+02  0.60539160242E+03  0.60883283043E+03  0.00000000000E+00 0.  1.
<mgrwt>
<rscale>  2 0.11926308E+03</rscale>
<asrwt>0</asrwt>
<pdfrwt beam="1">  1       21 0.12395578E+00 0.11926308E+03</pdfrwt>
<pdfrwt beam="2">  1       21 0.82072194E-02 0.11926308E+03</pdfrwt>
<totfact> 0.58211920E+04</totfact>
</mgrwt>
</event>
<event>
 5    1  0.1696945E+000  0.6582646E+02  0.7546771E-02  0.1374889E+00
         21   -1    0    0  503  502  0.00000000000E+00  0.00000000000E+00  0.16078925629E+02  0.16078925629E+02  0.00000000000E+00 0. -1.
         21   -1    0    0  501  503 -0.00000000000E+00 -0.00000000000E+00 -0.33338057929E+03  0.33338057929E+03  0.00000000000E+00 0. -1.
         24    1    1    2    0    0 -0.53228783161E+01  0.19777633856E+01 -0.13226077093E+03  0.15489471283E+03  0.80419002446E+02 0. -1.
          1    1    1    2  501    0 -0.17376825420E+02  0.14784927941E+02 -0.13669789224E+03  0.13858882314E+03  0.00000000000E+00 0. -1.
         -2    1    1    2    0  502  0.22699703737E+02 -0.16762691327E+02 -0.48342990488E+02  0.55975968947E+02  0.00000000000E+00 0.  1.
<mgrwt>
<rscale>  2 0.65826456E+02</rscale>
<asrwt>0</asrwt>
<pdfrwt beam="1">  1       21 0.24736809E-02 0.65826456E+02</pdfrwt>
<pdfrwt beam="2">  1       21 0.51289320E-01 0.65826456E+02</pdfrwt>
<totfact> 0.30229269E+06</totfact>
</mgrwt>
</event>
<event>
 5    1  0.1696945E+000  0.9194163E+02  0.7546771E-02  0.1298217E+00
         21   -1    0    0  503  502  0.00000000000E+00  0.00000000000E+00  0.28412747306E+03  0.28412747306E+03  0.00000000000E+00 0.  1.
         21   -1    0    0  501  503 -0.00000000000E+00 -0.00000000000E+00 -0.29877082195E+02  0.29877082195E+02  0.00000000000E+00 0.  1.
         24    1    1    2    0    0 -0.29527832922E+02 -0.61366215703E+01  0.12060333337E+03  0.14806056537E+03  0.80419002446E+02 0. -1.
          1    1    1    2  501    0  0.53660278913E+02  0.32115829822E+02  0.78229533649E+02  0.10015344224E+03  0.00000000000E+00 0. -1.
         -2    1    1    2    0  502 -0.24132445991E+02 -0.25979208252E+02  0.55417523846E+02  0.65790547650E+02  0.00000000000E+00 0.  1.
<mgrwt>
<rscale>  2 0.91941629E+02</rscale>
<asrwt>0</asrwt>
<pdfrwt beam="1">  1       21 0.43711917E-01 0.91941629E+02</pdfrwt>
<pdfrwt beam="2">  1       21 0.45964744E-02 0.91941629E+02</pdfrwt>
<totfact> 0.15444001E+06</totfact>
</mgrwt>
</event>
<event>
 5    1  0.1696945E+000  0.8579531E+02  0.7546771E-02  0.1313366E+00
         21   -1    0    0  501  502  0.00000000000E+00  0.00000000000E+00  0.23887010005E+03  0.23887010005E+03  0.00000000000E+00 0.  1.
         21   -1    0    0  502  503 -0.00000000000E+00 -0.00000000000E+00 -0.58132954099E+02  0.58132954099E+02  0.00000000000E+00 0.  1.
         24    1    1    2    0    0  0.18993999552E+02  0.61612584766E+02  0.12455883370E+03  0.16167560616E+03  0.80419002446E+02 0.  1.
          1    1    1    2  501    0 -0.52259854342E-01 -0.39083511998E+02  0.85358469612E+02  0.93880732718E+02  0.00000000000E+00 0. -1.
         -2    1    1    2    0  503 -0.18941739698E+02 -0.22529072769E+02 -0.29180157364E+02  0.41446715267E+02  0.00000000000E+00 0.  1.
<mgrwt>
<rscale>  2 0.85795308E+02</rscale>
<asrwt>0</asrwt>
<pdfrwt beam="1">  1       21 0.36749246E-01 0.85795308E+02</pdfrwt>
<pdfrwt beam="2">  1       21 0.89435315E-02 0.85795308E+02</pdfrwt>
<totfact> 0.70753900E+05</totfact>
</mgrwt>
</event>
<event>
 5    1  0.1696945E+000  0.6552089E+02  0.7546771E-02  0.1376023E+00
         21   -1    0    0  501  502  0.00000000000E+00  0.00000000000E+00  0.17266461751E+02  0.17266461751E+02  0.00000000000E+00 0. -1.
         21   -1    0    0  502  503 -0.00000000000E+00 -0.00000000000E+00 -0.62165546415E+03  0.62165546415E+03  0.00000000000E+00 0. -1.
         24    1    1    2    0    0 -0.26520944330E+02  0.12690123733E+02 -0.28954400783E+03  0.30193931203E+03  0.80419002446E+02 0. -1.
          1    1    1    2  501    0  0.18435587456E+02  0.10250129660E+02  0.10600361483E+00  0.21093773481E+02  0.00000000000E+00 0. -1.
         -2    1    1    2    0  503  0.80853568738E+01 -0.22940253394E+02 -0.31495099819E+03  0.31588884039E+03  0.00000000000E+00 0.  1.
<mgrwt>
<rscale>  2 0.65520885E+02</rscale>
<asrwt>0</asrwt>
<pdfrwt beam="1">  1       21 0.26563791E-02 0.65520885E+02</pdfrwt>
<pdfrwt beam="2">  1       21 0.95639290E-01 0.65520885E+02</pdfrwt>
<totfact> 0.71139105E+05</totfact>
</mgrwt>
</event>
<event>
 5    1  0.1696945E+000  0.7023590E+02  0.7546771E-02  0.1359293E+00
         21   -1    0    0  501  502  0.00000000000E+00  0.00000000000E+00  0.19998543883E+02  0.19998543883E+02  0.00000000000E+00 0.  1.
         21   -1    0    0  502  503 -0.00000000000E+00 -0.00000000000E+00 -0.29370546891E+03  0.29370546891E+03  0.00000000000E+00 0. -1.
         24    1    1    2    0    0 -0.76405058744E+01  0.85119070250E+01 -0.20376776073E+03  0.21936122301E+03  0.80419002446E+02 0. -1.
          1    1    1    2  501    0  0.19257810838E+02 -0.29514724571E+02 -0.24395489975E+02  0.42861663243E+02  0.00000000000E+00 0. -1.
         -2    1    1    2    0  503 -0.11617304963E+02  0.21002817546E+02 -0.45543674314E+02  0.51481126537E+02  0.00000000000E+00 0.  1.
<mgrwt>
<rscale>  2 0.70235897E+02</rscale>
<asrwt>0</asrwt>
<pdfrwt beam="1">  1       21 0.30766995E-02 0.70235897E+02</pdfrwt>
<pdfrwt beam="2">  1       21 0.45185451E-01 0.70235897E+02</pdfrwt>
<totfact> 0.27572260E+06</totfact>
</mgrwt>
</event>
<event>
 5    1  0.1696945E+000  0.6581009E+02  0.7546771E-02  0.1374950E+00
         21   -1    0    0  503  502  0.00000000000E+00  0.00000000000E+00  0.10962623003E+03  0.10962623003E+03  0.00000000000E+00 0. -1.
         21   -1    0    0  501  503 -0.00000000000E+00 -0.00000000000E+00 -0.91207874646E+02  0.91207874646E+02  0.00000000000E+00 0. -1.
         24    1    1    2    0    0  0.25327051843E+02  0.40814312353E+01  0.18294287201E+02  0.86371375667E+02  0.80419002446E+02 0.  0.
          1    1    1    2  501    0 -0.83318663624E+01 -0.21387335503E+02 -0.52071894929E+02  0.56906241823E+02  0.00000000000E+00 0. -1.
         -2    1    1    2    0  502 -0.16995185481E+02  0.17305904267E+02  0.52195963115E+02  0.57556487189E+02  0.00000000000E+00 0.  1.
<mgrwt>
<rscale>  2 0.65810087E+02</rscale>
<asrwt>0</asrwt>
<pdfrwt beam="1">  1       21 0.16865574E-01 0.65810087E+02</pdfrwt>
<pdfrwt beam="2">  1       21 0.14031981E-01 0.65810087E+02</pdfrwt>
<totfact> 0.13716595E+06</totfact>
</mgrwt>
</event>
<event>
 5    1  0.1696945E+000  0.7867157E+02  0.7546771E-02  0.1332864E+00
         21   -1    0    0  503  502  0.00000000000E+00  0.00000000000E+00  0.85554537927E+02  0.85554537927E+02  0.00000000000E+00 0.  1.
         21   -1    0    0  501  503 -0.00000000000E+00 -0.00000000000E+00 -0.34972681137E+03  0.34972681137E+03  0.00000000000E+00 0. -1.
         24    1    1    2    0    0  0.21361377701E+02 -0.79739057663E+01 -0.93861819638E+02  0.12568670881E+03  0.80419002446E+02 0.  1.
          1    1    1    2  501    0 -0.19129799376E+02 -0.30073092354E+02 -0.23328131240E+03  0.23598837011E+03  0.00000000000E+00 0. -1.
         -2    1    1    2    0  502 -0.22315783252E+01  0.38046998121E+02  0.62970858597E+02  0.73606270387E+02  0.00000000000E+00 0.  1.
<mgrwt>
<rscale>  2 0.78671569E+02</rscale>
<asrwt>0</asrwt>
<pdfrwt beam="1">  1       21 0.13162237E-01 0.78671569E+02</pdfrwt>
<pdfrwt beam="2">  1       21 0.53804124E-01 0.78671569E+02</pdfrwt>
<totfact> 0.16858488E+05</totfact>
</mgrwt>
</event>
<event>
 5    1  0.1696945E+000  0.7674954E+02  0.7546771E-02  0.1338537E+00
         21   -1    0    0  501  502  0.00000000000E+00  0.00000000000E+00  0.50305587606E+02  0.50305587606E+02  0.00000000000E+00 0. -1.
         21   -1    0    0  502  503 -0.00000000000E+00 -0.00000000000E+00 -0.36305918296E+03  0.36305918296E+03  0.00000000000E+00 0.  1.
         24    1    1    2    0    0  0.22350858802E+02  0.11597025382E+02 -0.29606484559E+03  0.30782407417E+03  0.80419002446E+02 0.  1.
          1    1    1    2  501    0  0.22175911141E+02  0.29860180990E+01  0.31297557123E+02  0.38473684784E+02  0.00000000000E+00 0. -1.
         -2    1    1    2    0  503 -0.44526769943E+02 -0.14583043481E+02 -0.47986306886E+02  0.67067011617E+02  0.00000000000E+00 0.  1.
<mgrwt>
<rscale>  2 0.76749538E+02</rscale>
<asrwt>0</asrwt>
<pdfrwt beam="1">  1       21 0.77393212E-02 0.76749538E+02</pdfrwt>
<pdfrwt beam="2">  1       21 0.55855259E-01 0.76749538E+02</pdfrwt>
<totfact> 0.39068878E+05</totfact>
</mgrwt>
</event>
<event>
 5    1  0.1696945E+000  0.8753964E+02  0.7546771E-02  0.1308922E+00
         21   -1    0    0  503  502  0.00000000000E+00  0.00000000000E+00  0.39313795775E+02  0.39313795775E+02  0.00000000000E+00 0. -1.
         21   -1    0    0  501  503 -0.00000000000E+00 -0.00000000000E+00 -0.32374603603E+03  0.32374603603E+03  0.00000000000E+00 0. -1.
         24    1    1    2    0    0 -0.41604475289E+02 -0.55127639667E+02 -0.14073098275E+03  0.17618857647E+03  0.80419002446E+02 0. -1.
          1    1    1    2  501    0  0.15230614809E+02  0.19320594659E+02 -0.14011146913E+03  0.14225498510E+03  0.00000000000E+00 0. -1.
         -2    1    1    2    0  502  0.26373860480E+02  0.35807045008E+02 -0.35897883794E+01  0.44616270232E+02  0.00000000000E+00 0.  1.
<mgrwt>
<rscale>  2 0.87539638E+02</rscale>
<asrwt>0</asrwt>
<pdfrwt beam="1">  1       21 0.60482763E-02 0.87539638E+02</pdfrwt>
<pdfrwt beam="2">  1       21 0.49807082E-01 0.87539638E+02</pdfrwt>
<totfact> 0.74962040E+05</totfact>
</mgrwt>
</event>
<event>
 5    1  0.1696945E+000  0.2080203E+03  0.7546771E-02  0.1143143E+00
         21   -1    0    0  503  502  0.00000000000E+00  0.00000000000E+00  0.55213547623E+02  0.55213547623E+02  0.00000000000E+00 0. -1.
         21   -1    0    0  501  503 -0.00000000000E+00 -0.00000000000E+00 -0.94082707558E+03  0.94082707558E+03  0.00000000000E+00 0. -1.
         24    1    1    2    0    0  0.99572154160E+02  0.12652112210E+03 -0.51058973455E+03  0.54137907348E+03  0.80419002446E+02 0. -1.
          1    1    1    2  501    0 -0.14920698365E+03 -0.87845632969E+02 -0.34261739643E+03  0.38388313265E+03  0.00000000000E+00 0. -1.
         -2    1    1    2    0  502  0.49634829487E+02 -0.38675489131E+02 -0.32406396983E+02  0.70778417071E+02  0.00000000000E+00 0.  1.
<mgrwt>
<rscale>  2 0.20802029E+03</rscale>
<asrwt>0</asrwt>
<pdfrwt beam="1">  1       21 0.84943919E-02 0.20802029E+03</pdfrwt>
<pdfrwt beam="2">  1       21 0.14474263E+00 0.20802029E+03</pdfrwt>
<totfact> 0.35148531E+04</totfact>
</mgrwt>
</event>
<event>
 5    1  0.1696945E+000  0.2449278E+03  0.7546771E-02  0.1116553E+00
         21   -1    0    0  501  502  0.00000000000E+00  0.00000000000E+00  0.41754230191E+03  0.41754230191E+03  0.00000000000E+00 0. -1.
         21   -1    0    0  502  503 -0.00000000000E+00 -0.00000000000E+00 -0.15002167051E+03  0.15002167051E+03  0.00000000000E+00 0.  1.
         24    1    1    2    0    0 -0.15720999762E+03  0.13790488565E+03  0.75568930488E+02  0.23645426629E+03  0.80419002446E+02 0.  0.
          1    1    1    2  501    0  0.14833902259E+03 -0.17399054019E+03  0.18307157440E+03  0.29290335445E+03  0.00000000000E+00 0. -1.
         -2    1    1    2    0  503  0.88709750301E+01  0.36085654539E+02  0.88801265203E+01  0.38206351678E+02  0.00000000000E+00 0.  1.
<mgrwt>
<rscale>  2 0.24492777E+03</rscale>
<asrwt>0</asrwt>
<pdfrwt beam="1">  1       21 0.64237277E-01 0.24492777E+03</pdfrwt>
<pdfrwt beam="2">  1       21 0.23080257E-01 0.24492777E+03</pdfrwt>
<totfact> 0.38446274E+04</totfact>
</mgrwt>
</event>
<event>
 5    1  0.1696945E+000  0.9851404E+02  0.7546771E-02  0.1283452E+00
         21   -1    0    0  501  502  0.00000000000E+00  0.00000000000E+00  0.10521248550E+02  0.10521248550E+02  0.00000000000E+00 0.  1.
         21   -1    0    0  502  503 -0.00000000000E+00 -0.00000000000E+00 -0.16140024490E+04  0.16140024490E+04  0.00000000000E+00 0. -1.
         24    1    1    2    0    0 -0.69154599839E+02  0.23415026149E+02 -0.49951685307E+03  0.51118971486E+03  0.80419002446E+02 0.  1.
          1    1    1    2  501    0  0.44515992356E+02  0.11217532591E+02 -0.12045386724E+03  0.12890554971E+03  0.00000000000E+00 0. -1.
         -2    1    1    2    0  503  0.24638607483E+02 -0.34632558741E+02 -0.98351048018E+03  0.98442843301E+03  0.00000000000E+00 0.  1.
<mgrwt>
<rscale>  2 0.98514045E+02</rscale>
<asrwt>0</asrwt>
<pdfrwt beam="1">  1       21 0.16186540E-02 0.98514045E+02</pdfrwt>
<pdfrwt beam="2">  1       21 0.24830801E+00 0.98514045E+02</pdfrwt>
<totfact> 0.12731816E+05</totfact>
</mgrwt>
</event>
<event>
 5    1  0.1696945E+000  0.8810985E+02  0.7546771E-02  0.1307495E+00
         21   -1    0    0  503  502  0.00000000000E+00  0.00000000000E+00  0.47596023465E+03  0.47596023465E+03  0.00000000000E+00 0.  1.
         21   -1    0    0  501  503 -0.00000000000E+00 -0.00000000000E+00 -0.18030074218E+02  0.18030074218E+02  0.00000000000E+00 0.  1.
         24    1    1    2    0    0  0.90892547639E+01  0.48322488281E+02  0.21361401738E+03  0.23348627754E+03  0.80419002446E+02 0.  1.
          1    1    1    2  501    0  0.28355427734E+02 -0.16411631190E+02  0.47985944526E+02  0.58103552321E+02  0.00000000000E+00 0. -1.
         -2    1    1    2    0  502 -0.37444682498E+02 -0.31910857092E+02  0.19633019852E+03  0.20240047900E+03  0.00000000000E+00 0.  1.
<mgrwt>
<rscale>  2 0.88109850E+02</rscale>
<asrwt>0</asrwt>
<pdfrwt beam="1">  1       21 0.73224642E-01 0.88109850E+02</pdfrwt>
<pdfrwt beam="2">  1       21 0.27738579E-02 0.88109850E+02</pdfrwt>
<totfact> 0.12043607E+06</totfact>
</mgrwt>
</event>
<event>
 5    1  0.1696945E+000  0.8732453E+02  0.7546771E-02  0.1309463E+00
         21   -1    0    0  501  502  0.00000000000E+00  0.00000000000E+00  0.13546469870E+03  0.13546469870E+03  0.00000000000E+00 0. -1.
         21   -1    0    0  502  503 -0.00000000000E+00 -0.00000000000E+00 -0.25523978351E+03  0.25523978351E+03  0.00000000000E+00 0.  1.
         24    1    1    2    0    0 -0.22526873755E+02 -0.53350226033E+02 -0.14366834015E+03  0.17453227373E+03  0.80419002446E+02 0.  0.
          1    1    1    2  501    0  0.26102420635E+02  0.44033816382E+01  0.11212627759E+03  0.11520862927E+03  0.00000000000E+00 0. -1.
         -2    1    1    2    0  503 -0.35755468806E+01  0.48946844395E+02 -0.88233022247E+02  0.10096357921E+03  0.00000000000E+00 0.  1.
<mgrwt>
<rscale>  2 0.87324534E+02</rscale>
<asrwt>0</asrwt>
<pdfrwt beam="1">  1       21 0.20840723E-01 0.87324534E+02</pdfrwt>
<pdfrwt beam="2">  1       21 0.39267658E-01 0.87324534E+02</pdfrwt>
<totfact> 0.13870178E+05</totfact>
</mgrwt>
</event>
<event>
 5    1  0.1696945E+000  0.6733583E+02  0.7546771E-02  0.1369394E+00
         21   -1    0    0  503  502  0.00000000000E+00  0.00000000000E+00  0.15663949969E+03  0.15663949969E+03  0.00000000000E+00 0.  1.
         21   -1    0    0  501  503 -0.00000000000E+00 -0.00000000000E+00 -0.50874063286E+02  0.50874063286E+02  0.00000000000E+00 0. -1.
         24    1    1    2    0    0  0.12947170780E+02  0.12132198860E+02  0.11755026074E+03  0.14352734664E+03  0.80419002446E+02 0.  1.
          1    1    1    2  501    0 -0.79155503494E+01  0.19104385314E+02 -0.22521061970E+02  0.30575017707E+02  0.00000000000E+00 0. -1.
         -2    1    1    2    0  502 -0.50316204309E+01 -0.31236584174E+02  0.10736237634E+02  0.33411198625E+02  0.00000000000E+00 0.  1.
<mgrwt>
<rscale>  2 0.67335827E+02</rscale>
<asrwt>0</asrwt>
<pdfrwt beam="1">  1       21 0.24098384E-01 0.67335827E+02</pdfrwt>
<pdfrwt beam="2">  1       21 0.78267790E-02 0.67335827E+02</pdfrwt>
<totfact> 0.19646703E+06</totfact>
</mgrwt>
</event>
<event>
 5    1  0.1696945E+000  0.1034271E+03  0.7546771E-02  0.1273250E+00
         21   -1    0    0  503  502  0.00000000000E+00  0.00000000000E+00  0.52161440707E+02  0.52161440707E+02  0.00000000000E+00 0.  1.
         21   -1    0    0  501  503 -0.00000000000E+00 -0.00000000000E+00 -0.40189372274E+03  0.40189372274E+03  0.00000000000E+00 0. -1.
         24    1    1    2    0    0 -0.76995198912E+02 -0.13246796951E+02 -0.17267882328E+03  0.20588572134E+03  0.80419002446E+02 0.  1.
          1    1    1    2  501    0  0.35485221971E+02  0.33274018058E+02 -0.19328008760E+03  0.19930768555E+03  0.00000000000E+00 0. -1.
         -2    1    1    2    0  502  0.41509976941E+02 -0.20027221108E+02  0.16226628847E+02  0.48861756566E+02  0.00000000000E+00 0.  1.
<mgrwt>
<rscale>  2 0.10342711E+03</rscale>
<asrwt>0</asrwt>
<pdfrwt beam="1">  1       21 0.80248369E-02 0.10342711E+03</pdfrwt>
<pdfrwt beam="2">  1       21 0.61829804E-01 0.10342711E+03</pdfrwt>
<totfact> 0.29567708E+05</totfact>
</mgrwt>
</event>
<event>
 5    1  0.1696945E+000  0.6470495E+02  0.7546771E-02  0.1379085E+00
         21   -1    0    0  503  502  0.00000000000E+00  0.00000000000E+00  0.32485888484E+02  0.32485888484E+02  0.00000000000E+00 0.  1.
         21   -1    0    0  501  503 -0.00000000000E+00 -0.00000000000E+00 -0.17178829362E+03  0.17178829362E+03  0.00000000000E+00 0. -1.
         24    1    1    2    0    0  0.23590574686E+02  0.54376503308E+01 -0.45164538538E+02  0.95357929670E+02  0.80419002446E+02 0.  0.
          1    1    1    2  501    0 -0.84926582072E+01 -0.21659694229E+02 -0.78285154894E+02  0.81669045999E+02  0.00000000000E+00 0. -1.
         -2    1    1    2    0  502 -0.15097916479E+02  0.16222043899E+02 -0.15852711706E+02  0.27247206438E+02  0.00000000000E+00 0.  1.
<mgrwt>
<rscale>  2 0.64704949E+02</rscale>
<asrwt>0</asrwt>
<pdfrwt beam="1">  1       21 0.49978289E-02 0.64704949E+02</pdfrwt>
<pdfrwt beam="2">  1       21 0.26428969E-01 0.64704949E+02</pdfrwt>
<totfact> 0.34924827E+06</totfact>
</mgrwt>
</event>
<event>
 5    1  0.1696945E+000  0.8020401E+02  0.7546771E-02  0.1328473E+00
         21   -1    0    0  501  502  0.00000000000E+00  0.00000000000E+00  0.14579701215E+03  0.14579701215E+03  0.00000000000E+00 0. -1.
         21   -1    0    0  502  503 -0.00000000000E+00 -0.00000000000E+00 -0.92026333010E+02  0.92026333010E+02  0.00000000000E+00 0. -1.
         24    1    1    2    0    0  0.20657365661E+02 -0.69451595926E+01 -0.52258403759E+02  0.98352014294E+02  0.80419002446E+02 0. -1.
          1    1    1    2  501    0  0.50762750208E+00  0.38821749876E+02  0.89941741928E+02  0.97963783564E+02  0.00000000000E+00 0. -1.
         -2    1    1    2    0  503 -0.21164993163E+02 -0.31876590283E+02  0.16087340973E+02  0.41507547305E+02  0.00000000000E+00 0.  1.
<mgrwt>
<rscale>  2 0.80204011E+02</rscale>
<asrwt>0</asrwt>
<pdfrwt beam="1">  1       21 0.22430310E-01 0.80204011E+02</pdfrwt>
<pdfrwt beam="2">  1       21 0.14157897E-01 0.80204011E+02</pdfrwt>
<totfact> 0.80946939E+05</totfact>
</mgrwt>
</event>
<event>
 5    1  0.1696945E+000  0.7166550E+02  0.7546771E-02  0.1354519E+00
         21   -1    0    0  501  502  0.00000000000E+00  0.00000000000E+00  0.12874225708E+03  0.12874225708E+03  0.00000000000E+00 0.  1.
         21   -1    0    0  502  503 -0.00000000000E+00 -0.00000000000E+00 -0.42084148715E+02  0.42084148715E+02  0.00000000000E+00 0. -1.
         24    1    1    2    0    0 -0.25507366652E+02  0.78155998675E+01  0.61457599681E+02  0.10467073071E+03  0.80419002446E+02 0.  1.
          1    1    1    2  501    0  0.35786088154E+02  0.10763369221E+02  0.24928237185E+02  0.44921166853E+02  0.00000000000E+00 0. -1.
         -2    1    1    2    0  503 -0.10278721502E+02 -0.18578969088E+02  0.27227150161E+00  0.21234508232E+02  0.00000000000E+00 0.  1.
<mgrwt>
<rscale>  2 0.71665499E+02</rscale>
<asrwt>0</asrwt>
<pdfrwt beam="1">  1       21 0.19806501E-01 0.71665499E+02</pdfrwt>
<pdfrwt beam="2">  1       21 0.64744845E-02 0.71665499E+02</pdfrwt>
<totfact> 0.38874450E+06</totfact>
</mgrwt>
</event>
<event>
 5    1  0.1696945E+000  0.6988127E+02  0.7546771E-02  0.1360497E+00
         21   -1    0    0  503  502  0.00000000000E+00  0.00000000000E+00  0.60368411418E+03  0.60368411418E+03  0.00000000000E+00 0.  1.
         21   -1    0    0  501  503 -0.00000000000E+00 -0.00000000000E+00 -0.12469942858E+02  0.12469942858E+02  0.00000000000E+00 0. -1.
         24    1    1    2    0    0  0.19631306942E+00  0.16208028111E+02  0.31321280649E+03  0.32377803634E+03  0.80419002446E+02 0. -1.
          1    1    1    2  501    0 -0.10647428879E+02  0.18573242066E+02  0.13318966371E+02  0.25213645666E+02  0.00000000000E+00 0. -1.
         -2    1    1    2    0  502  0.10451115810E+02 -0.34781270178E+02  0.26468239846E+03  0.26716237503E+03  0.00000000000E+00 0.  1.
<mgrwt>
<rscale>  2 0.69881270E+02</rscale>
<asrwt>0</asrwt>
<pdfrwt beam="1">  1       21 0.92874457E-01 0.69881270E+02</pdfrwt>
<pdfrwt beam="2">  1       21 0.19184532E-02 0.69881270E+02</pdfrwt>
<totfact> 0.12788161E+06</totfact>
</mgrwt>
</event>
<event>
 5    1  0.1696945E+000  0.7874187E+02  0.7546771E-02  0.1332660E+00
         21   -1    0    0  503  502  0.00000000000E+00  0.00000000000E+00  0.72301546832E+02  0.72301546832E+02  0.00000000000E+00 0.  1.
         21   -1    0    0  501  503 -0.00000000000E+00 -0.00000000000E+00 -0.46447785123E+03  0.46447785123E+03  0.00000000000E+00 0. -1.
         24    1    1    2    0    0 -0.26983800769E+02  0.28480019193E+01 -0.28689304125E+03  0.29918400641E+03  0.80419002446E+02 0. -1.
          1    1    1    2  501    0  0.34667823764E+02 -0.29096832240E+02 -0.16543664586E+03  0.17151608509E+03  0.00000000000E+00 0. -1.
         -2    1    1    2    0  502 -0.76840229947E+01  0.26248830321E+02  0.60153382718E+02  0.66079306557E+02  0.00000000000E+00 0.  1.
<mgrwt>
<rscale>  2 0.78741875E+02</rscale>
<asrwt>0</asrwt>
<pdfrwt beam="1">  1       21 0.11123315E-01 0.78741875E+02</pdfrwt>
<pdfrwt beam="2">  1       21 0.71458129E-01 0.78741875E+02</pdfrwt>
<totfact> 0.12453786E+05</totfact>
</mgrwt>
</event>
<event>
 5    1  0.1696945E+000  0.1144565E+03  0.7546771E-02  0.1252533E+00
         21   -1    0    0  501  502  0.00000000000E+00  0.00000000000E+00  0.35671645265E+03  0.35671645265E+03  0.00000000000E+00 0. -1.
         21   -1    0    0  502  503 -0.00000000000E+00 -0.00000000000E+00 -0.67023900702E+02  0.67023900702E+02  0.00000000000E+00 0.  1.
         24    1    1    2    0    0  0.60490574025E+02 -0.71098669570E+02  0.14566389464E+02  0.12407064930E+03  0.80419002446E+02 0.  1.
          1    1    1    2  501    0 -0.38437639820E+02  0.74068679513E+02  0.25921024858E+03  0.27231153925E+03  0.00000000000E+00 0. -1.
         -2    1    1    2    0  503 -0.22052934205E+02 -0.29700099429E+01  0.15915913905E+02  0.27358164806E+02  0.00000000000E+00 0.  1.
<mgrwt>
<rscale>  2 0.11445648E+03</rscale>
<asrwt>0</asrwt>
<pdfrwt beam="1">  1       21 0.54879453E-01 0.11445648E+03</pdfrwt>
<pdfrwt beam="2">  1       21 0.10311370E-01 0.11445648E+03</pdfrwt>
<totfact> 0.24558519E+05</totfact>
</mgrwt>
</event>
<event>
 5    1  0.1696945E+000  0.6685005E+02  0.7546771E-02  0.1371144E+00
         21   -1    0    0  501  502  0.00000000000E+00  0.00000000000E+00  0.26716780213E+03  0.26716780213E+03  0.00000000000E+00 0. -1.
         21   -1    0    0  502  503 -0.00000000000E+00 -0.00000000000E+00 -0.39001561634E+02  0.39001561634E+02  0.00000000000E+00 0.  1.
         24    1    1    2    0    0 -0.18415570804E+02 -0.56689720505E+01  0.63129960381E+02  0.10403786976E+03  0.80419002446E+02 0. -1.
          1    1    1    2  501    0  0.11062498196E+02 -0.20786349203E+02  0.17216117393E+03  0.17376398070E+03  0.00000000000E+00 0. -1.
         -2    1    1    2    0  503  0.73530726083E+01  0.26455321254E+02 -0.71248938115E+01  0.28367513307E+02  0.00000000000E+00 0.  1.
<mgrwt>
<rscale>  2 0.66850055E+02</rscale>
<asrwt>0</asrwt>
<pdfrwt beam="1">  1       21 0.41102738E-01 0.66850055E+02</pdfrwt>
<pdfrwt beam="2">  1       21 0.60002404E-02 0.66850055E+02</pdfrwt>
<totfact> 0.11100019E+06</totfact>
</mgrwt>
</event>
<event>
 5    1  0.1696945E+000  0.7771804E+02  0.7546771E-02  0.1335655E+00
         21   -1    0    0  503  502  0.00000000000E+00  0.00000000000E+00  0.51063885541E+02  0.51063885541E+02  0.00000000000E+00 0.  1.
         21   -1    0    0  501  503 -0.00000000000E+00 -0.00000000000E+00 -0.76964899577E+03  0.76964899577E+03  0.00000000000E+00 0. -1.
         24    1    1    2    0    0  0.48988047252E+01  0.26605466633E+02 -0.43192655458E+02  0.95208563598E+02  0.80419002446E+02 0.  0.
          1    1    1    2  501    0 -0.19121144119E+01  0.21904074633E+02 -0.67653235197E+03  0.67688955372E+03  0.00000000000E+00 0. -1.
         -2    1    1    2    0  502 -0.29866903133E+01 -0.48509541266E+02  0.11398972007E+01  0.48614763997E+02  0.00000000000E+00 0.  1.
<mgrwt>
<rscale>  2 0.77718039E+02</rscale>
<asrwt>0</asrwt>
<pdfrwt beam="1">  1       21 0.78559823E-02 0.77718039E+02</pdfrwt>
<pdfrwt beam="2">  1       21 0.11840754E+00 0.77718039E+02</pdfrwt>
<totfact> 0.72237638E+04</totfact>
</mgrwt>
</event>
<event>
 5    1  0.1696945E+000  0.7565673E+02  0.7546771E-02  0.1341849E+00
         21   -1    0    0  501  502  0.00000000000E+00  0.00000000000E+00  0.92848239373E+03  0.92848239373E+03  0.00000000000E+00 0.  1.
         21   -1    0    0  502  503 -0.00000000000E+00 -0.00000000000E+00 -0.99834148546E+01  0.99834148546E+01  0.00000000000E+00 0.  1.
         24    1    1    2    0    0  0.47634534705E+02 -0.26032036780E+02  0.74106251884E+03  0.74738717451E+03  0.80419002446E+02 0.  1.
          1    1    1    2  501    0 -0.27927665454E+02  0.15649285794E+02  0.15892115658E+03  0.16211350546E+03  0.00000000000E+00 0. -1.
         -2    1    1    2    0  503 -0.19706869251E+02  0.10382750986E+02  0.18515303454E+02  0.28965128616E+02  0.00000000000E+00 0.  1.
<mgrwt>
<rscale>  2 0.75656734E+02</rscale>
<asrwt>0</asrwt>
<pdfrwt beam="1">  1       21 0.14284338E+00 0.75656734E+02</pdfrwt>
<pdfrwt beam="2">  1       21 0.15359107E-02 0.75656734E+02</pdfrwt>
<totfact> 0.65635654E+05</totfact>
</mgrwt>
</event>
<event>
 5    1  0.1696945E+000  0.9234817E+02  0.7546771E-02  0.1297263E+00
         21   -1    0    0  501  502  0.00000000000E+00  0.00000000000E+00  0.90846174078E+02  0.90846174078E+02  0.00000000000E+00 0. -1.
         21   -1    0    0  502  503 -0.00000000000E+00 -0.00000000000E+00 -0.32074859699E+03  0.32074859699E+03  0.00000000000E+00 0.  1.
         24    1    1    2    0    0 -0.49067904562E+02 -0.17780812507E+02 -0.89913500396E+01  0.96290585632E+02  0.80419002446E+02 0. -1.
          1    1    1    2  501    0  0.67828464240E+02  0.10195347632E+02  0.21630217074E+02  0.71920177733E+02  0.00000000000E+00 0. -1.
         -2    1    1    2    0  503 -0.18760559678E+02  0.75854648756E+01 -0.24254128995E+03  0.24338400771E+03  0.00000000000E+00 0.  1.
<mgrwt>
<rscale>  2 0.92348173E+02</rscale>
<asrwt>0</asrwt>
<pdfrwt beam="1">  1       21 0.13976335E-01 0.92348173E+02</pdfrwt>
<pdfrwt beam="2">  1       21 0.49345938E-01 0.92348173E+02</pdfrwt>
<totfact> 0.18009958E+05</totfact>
</mgrwt>
</event>
<event>
 5    1  0.1696945E+000  0.7959725E+02  0.7546771E-02  0.1330198E+00
         21   -1    0    0  503  502  0.00000000000E+00  0.00000000000E+00  0.58259961121E+02  0.58259961121E+02  0.00000000000E+00 0. -1.
         21   -1    0    0  501  503 -0.00000000000E+00 -0.00000000000E+00 -0.11373891332E+03  0.11373891332E+03  0.00000000000E+00 0. -1.
         24    1    1    2    0    0  0.32192749194E+02 -0.34156927812E+02 -0.18561774346E+02  0.94946428261E+02  0.80419002446E+02 0. -1.
          1    1    1    2  501    0 -0.17963609776E+01  0.35604034451E+02 -0.28033536828E+02  0.45351442855E+02  0.00000000000E+00 0. -1.
         -2    1    1    2    0  502 -0.30396388216E+02 -0.14471066389E+01 -0.88836410285E+01  0.31701003330E+02  0.00000000000E+00 0.  1.
<mgrwt>
<rscale>  2 0.79597251E+02</rscale>
<asrwt>0</asrwt>
<pdfrwt beam="1">  1       21 0.89630710E-02 0.79597251E+02</pdfrwt>
<pdfrwt beam="2">  1       21 0.17498294E-01 0.79597251E+02</pdfrwt>
<totfact> 0.28209583E+06</totfact>
</mgrwt>
</event>
<event>
 5    1  0.1696945E+000  0.1467641E+03  0.7546771E-02  0.1204507E+00
         21   -1    0    0  501  502  0.00000000000E+00  0.00000000000E+00  0.86163635376E+02  0.86163635376E+02  0.00000000000E+00 0. -1.
         21   -1    0    0  502  503 -0.00000000000E+00 -0.00000000000E+00 -0.43295744966E+03  0.43295744966E+03  0.00000000000E+00 0. -1.
         24    1    1    2    0    0  0.13324588049E+03 -0.15815823268E+02 -0.32036781711E+03  0.35652119029E+03  0.80419002446E+02 0. -1.
          1    1    1    2  501    0 -0.31911218691E+02  0.16134580657E+02  0.29945127913E+02  0.46640768187E+02  0.00000000000E+00 0. -1.
         -2    1    1    2    0  503 -0.10133466180E+03 -0.31875738967E+00 -0.56371125096E+02  0.11595912656E+03  0.00000000000E+00 0.  1.
<mgrwt>
<rscale>  2 0.14676405E+03</rscale>
<asrwt>0</asrwt>
<pdfrwt beam="1">  1       21 0.13255944E-01 0.14676405E+03</pdfrwt>
<pdfrwt beam="2">  1       21 0.66608839E-01 0.14676405E+03</pdfrwt>
<totfact> 0.10323555E+05</totfact>
</mgrwt>
</event>
<event>
 5    1  0.1696945E+000  0.8785108E+02  0.7546771E-02  0.1308141E+00
         21   -1    0    0  501  502  0.00000000000E+00  0.00000000000E+00  0.81114844340E+01  0.81114844340E+01  0.00000000000E+00 0. -1.
         21   -1    0    0  502  503 -0.00000000000E+00 -0.00000000000E+00 -0.20565632233E+04  0.20565632233E+04  0.00000000000E+00 0. -1.
         24    1    1    2    0    0 -0.23404242042E+02  0.61587462097E+02 -0.80360772155E+03  0.81030448606E+03  0.80419002446E+02 0. -1.
          1    1    1    2  501    0  0.28455157219E+02 -0.37197550540E+02 -0.11390855899E+03  0.12316051945E+03  0.00000000000E+00 0. -1.
         -2    1    1    2    0  503 -0.50509151773E+01 -0.24389911557E+02 -0.11309354583E+04  0.11312097022E+04  0.00000000000E+00 0.  1.
<mgrwt>
<rscale>  2 0.87851078E+02</rscale>
<asrwt>0</asrwt>
<pdfrwt beam="1">  1       21 0.12479225E-02 0.87851078E+02</pdfrwt>
<pdfrwt beam="2">  1       21 0.31639389E+00 0.87851078E+02</pdfrwt>
<totfact> 0.82046982E+04</totfact>
</mgrwt>
</event>
<event>
 5    1  0.2508277E+000  0.9887756E+02  0.7546771E-02  0.1282674E+00
         21   -1    0    0  501  502  0.00000000000E+00  0.00000000000E+00  0.13476749414E+03  0.13476749414E+03  0.00000000000E+00 0.  1.
         21   -1    0    0  502  503 -0.00000000000E+00 -0.00000000000E+00 -0.35268813944E+03  0.35268813944E+03  0.00000000000E+00 0.  1.
         24    1    1    2    0    0  0.73818776165E+02 -0.36291839742E+02  0.78779654203E+02  0.13942653699E+03  0.80419002446E+02 0.  1.
          1    1    1    2  501    0 -0.25106493119E+02  0.78243990753E+01  0.15664742843E+02  0.30609498297E+02  0.00000000000E+00 0. -1.
         -2    1    1    2    0  503 -0.48712283046E+02  0.28467440667E+02 -0.31236504235E+03  0.31741959829E+03  0.00000000000E+00 0.  1.
<mgrwt>
<rscale>  2 0.98877557E+02</rscale>
<asrwt>0</asrwt>
<pdfrwt beam="1">  1       21 0.20733461E-01 0.98877557E+02</pdfrwt>
<pdfrwt beam="2">  1       21 0.54259714E-01 0.98877557E+02</pdfrwt>
<totfact> 0.72407170E+04</totfact>
</mgrwt>
</event>
<event>
 5    1  0.1696945E+000  0.1043989E+03  0.7546771E-02  0.1271309E+00
         21   -1    0    0  503  502  0.00000000000E+00  0.00000000000E+00  0.11409672591E+02  0.11409672591E+02  0.00000000000E+00 0. -1.
         21   -1    0    0  501  503 -0.00000000000E+00 -0.00000000000E+00 -0.12071777542E+04  0.12071777542E+04  0.00000000000E+00 0.  1.
         24    1    1    2    0    0  0.59807497654E+02  0.23991449610E+02 -0.74332260501E+03  0.75043203390E+03  0.80419002446E+02 0.  0.
          1    1    1    2  501    0 -0.44721829242E+02 -0.55223465698E+02 -0.39265124101E+03  0.39902966086E+03  0.00000000000E+00 0. -1.
         -2    1    1    2    0  502 -0.15085668412E+02  0.31232016088E+02 -0.59794235606E+02  0.69125732055E+02  0.00000000000E+00 0.  1.
<mgrwt>
<rscale>  2 0.10439886E+03</rscale>
<asrwt>0</asrwt>
<pdfrwt beam="1">  1       21 0.17553360E-02 0.10439886E+03</pdfrwt>
<pdfrwt beam="2">  1       21 0.18571946E+00 0.10439886E+03</pdfrwt>
<totfact> 0.26391899E+05</totfact>
</mgrwt>
</event>
<event>
 5    1  0.1696945E+000  0.7071414E+02  0.7546771E-02  0.1357681E+00
         21   -1    0    0  501  502  0.00000000000E+00  0.00000000000E+00  0.95424156043E+02  0.95424156043E+02  0.00000000000E+00 0. -1.
         21   -1    0    0  502  503 -0.00000000000E+00 -0.00000000000E+00 -0.52735496502E+02  0.52735496502E+02  0.00000000000E+00 0.  1.
         24    1    1    2    0    0 -0.43724457502E+02  0.61157313514E+01  0.24626336906E+02  0.94988961346E+02  0.80419002446E+02 0. -1.
          1    1    1    2  501    0  0.28236191883E+02  0.73351184888E+01  0.13549978767E+02  0.32166573020E+02  0.00000000000E+00 0. -1.
         -2    1    1    2    0  503  0.15488265619E+02 -0.13450849840E+02  0.45123438676E+01  0.21004118179E+02  0.00000000000E+00 0.  1.
<mgrwt>
<rscale>  2 0.70714137E+02</rscale>
<asrwt>0</asrwt>
<pdfrwt beam="1">  1       21 0.14680639E-01 0.70714137E+02</pdfrwt>
<pdfrwt beam="2">  1       21 0.81131533E-02 0.70714137E+02</pdfrwt>
<totfact> 0.45398107E+06</totfact>
</mgrwt>
</event>
<event>
 5    1  0.1696945E+000  0.8100948E+02  0.7546771E-02  0.1326211E+00
         21   -1    0    0  501  502  0.00000000000E+00  0.00000000000E+00  0.35504303242E+02  0.35504303242E+02  0.00000000000E+00 0. -1.
         21   -1    0    0  502  503 -0.00000000000E+00 -0.00000000000E+00 -0.45813873794E+03  0.45813873794E+03  0.00000000000E+00 0.  1.
         24    1    1    2    0    0 -0.33085010643E+02  0.51245911541E+02 -0.24159945508E+03  0.26183634970E+03  0.80419002446E+02 0.  0.
          1    1    1    2  501    0  0.14489347668E+02 -0.25416865062E+02  0.15226149771E+02  0.32981720123E+02  0.00000000000E+00 0. -1.
         -2    1    1    2    0  503  0.18595662975E+02 -0.25829046479E+02 -0.19626112939E+03  0.19882497135E+03  0.00000000000E+00 0.  1.
<mgrwt>
<rscale>  2 0.81009483E+02</rscale>
<asrwt>0</asrwt>
<pdfrwt beam="1">  1       21 0.54622009E-02 0.81009483E+02</pdfrwt>
<pdfrwt beam="2">  1       21 0.70482878E-01 0.81009483E+02</pdfrwt>
<totfact> 0.42967618E+05</totfact>
</mgrwt>
</event>
<event>
 5    1  0.1696945E+000  0.6332640E+02  0.7546771E-02  0.1384380E+00
         21   -1    0    0  501  502  0.00000000000E+00  0.00000000000E+00  0.19445299134E+02  0.19445299134E+02  0.00000000000E+00 0.  1.
         21   -1    0    0  502  503 -0.00000000000E+00 -0.00000000000E+00 -0.23097113888E+03  0.23097113888E+03  0.00000000000E+00 0. -1.
         24    1    1    2    0    0  0.12701560561E+02 -0.54329510422E+01 -0.11713486902E+03  0.14275377435E+03  0.80419002446E+02 0.  1.
          1    1    1    2  501    0  0.26257217190E+01  0.22190853824E+02 -0.20372191164E+02  0.30238296592E+02  0.00000000000E+00 0. -1.
         -2    1    1    2    0  503 -0.15327282280E+02 -0.16757902782E+02 -0.74018779567E+02  0.77424367071E+02  0.00000000000E+00 0.  1.
<mgrwt>
<rscale>  2 0.63326401E+02</rscale>
<asrwt>0</asrwt>
<pdfrwt beam="1">  1       21 0.29915847E-02 0.63326401E+02</pdfrwt>
<pdfrwt beam="2">  1       21 0.35534019E-01 0.63326401E+02</pdfrwt>
<totfact> 0.45910333E+06</totfact>
</mgrwt>
</event>
<event>
 5    1  0.1905266E+000  0.9774992E+02  0.7546771E-02  0.1285100E+00
         21   -1    0    0  503  502  0.00000000000E+00  0.00000000000E+00  0.54587710707E+02  0.54587710707E+02  0.00000000000E+00 0.  1.
         21   -1    0    0  501  503 -0.00000000000E+00 -0.00000000000E+00 -0.98717930226E+03  0.98717930226E+03  0.00000000000E+00 0.  1.
         24    1    1    2    0    0 -0.28912395962E+02 -0.23173028453E+02 -0.10634652534E+03  0.13838249634E+03  0.80419002446E+02 0.  0.
          1    1    1    2  501    0  0.70505650769E+01 -0.39735590648E+02 -0.83521032823E+03  0.83618474036E+03  0.00000000000E+00 0. -1.
         -2    1    1    2    0  502  0.21861830885E+02  0.62908619101E+02  0.89652620144E+01  0.67199776263E+02  0.00000000000E+00 0.  1.
<mgrwt>
<rscale>  2 0.97749916E+02</rscale>
<asrwt>0</asrwt>
<pdfrwt beam="1">  1       21 0.83981103E-02 0.97749916E+02</pdfrwt>
<pdfrwt beam="2">  1       21 0.15187372E+00 0.97749916E+02</pdfrwt>
<totfact> 0.34198087E+04</totfact>
</mgrwt>
</event>
<event>
 5    1  0.1696945E+000  0.1408866E+03  0.7546771E-02  0.1212141E+00
         21   -1    0    0  503  502  0.00000000000E+00  0.00000000000E+00  0.68522510798E+02  0.68522510798E+02  0.00000000000E+00 0.  1.
         21   -1    0    0  501  503 -0.00000000000E+00 -0.00000000000E+00 -0.39752451604E+03  0.39752451604E+03  0.00000000000E+00 0. -1.
         24    1    1    2    0    0 -0.31975600478E+02  0.50856319239E+02 -0.18504096978E+02  0.10207067058E+03  0.80419002446E+02 0.  1.
          1    1    1    2  501    0 -0.47011650594E+01 -0.11091884535E+03 -0.23964976033E+03  0.26411569214E+03  0.00000000000E+00 0. -1.
         -2    1    1    2    0  502  0.36676765537E+02  0.60062526113E+02 -0.70848147928E+02  0.99860664118E+02  0.00000000000E+00 0.  1.
<mgrwt>
<rscale>  2 0.14088659E+03</rscale>
<asrwt>0</asrwt>
<pdfrwt beam="1">  1       21 0.10541925E-01 0.14088659E+03</pdfrwt>
<pdfrwt beam="2">  1       21 0.61157618E-01 0.14088659E+03</pdfrwt>
<totfact> 0.18666091E+05</totfact>
</mgrwt>
</event>
<event>
 5    1  0.1696945E+000  0.8328609E+02  0.7546771E-02  0.1319976E+00
         21   -1    0    0  501  502  0.00000000000E+00  0.00000000000E+00  0.53850429202E+02  0.53850429202E+02  0.00000000000E+00 0.  1.
         21   -1    0    0  502  503 -0.00000000000E+00 -0.00000000000E+00 -0.28740472213E+03  0.28740472213E+03  0.00000000000E+00 0.  1.
         24    1    1    2    0    0 -0.25193358000E+02 -0.40570125027E+02 -0.14048667960E+02  0.94579180361E+02  0.80419002446E+02 0.  1.
          1    1    1    2  501    0  0.22770465652E+02 -0.82074595574E+01 -0.26039909273E+01  0.24344142358E+02  0.00000000000E+00 0. -1.
         -2    1    1    2    0  503  0.24228923477E+01  0.48777584584E+02 -0.21690163404E+03  0.22233182862E+03  0.00000000000E+00 0.  1.
<mgrwt>
<rscale>  2 0.83286085E+02</rscale>
<asrwt>0</asrwt>
<pdfrwt beam="1">  1       21 0.82846814E-02 0.83286085E+02</pdfrwt>
<pdfrwt beam="2">  1       21 0.44216111E-01 0.83286085E+02</pdfrwt>
<totfact> 0.55942062E+05</totfact>
</mgrwt>
</event>
<event>
 5    1  0.1696945E+000  0.1402993E+03  0.7546771E-02  0.1212927E+00
         21   -1    0    0  503  502  0.00000000000E+00  0.00000000000E+00  0.38279910642E+03  0.38279910642E+03  0.00000000000E+00 0.  1.
         21   -1    0    0  501  503 -0.00000000000E+00 -0.00000000000E+00 -0.19687725918E+03  0.19687725918E+03  0.00000000000E+00 0. -1.
         24    1    1    2    0    0  0.55332175642E+02  0.92766796669E+02  0.26487046479E+02  0.13724470048E+03  0.80419002446E+02 0. -1.
          1    1    1    2  501    0 -0.25819163923E+02 -0.10916132684E+03 -0.11808213551E+03  0.16286870550E+03  0.00000000000E+00 0. -1.
         -2    1    1    2    0  502 -0.29513011719E+02  0.16394530175E+02  0.27751693626E+03  0.27956295962E+03  0.00000000000E+00 0.  1.
<mgrwt>
<rscale>  2 0.14029933E+03</rscale>
<asrwt>0</asrwt>
<pdfrwt beam="1">  1       21 0.58892170E-01 0.14029933E+03</pdfrwt>
<pdfrwt beam="2">  1       21 0.30288809E-01 0.14029933E+03</pdfrwt>
<totfact> 0.29073902E+04</totfact>
</mgrwt>
</event>
<event>
 5    1  0.1696945E+000  0.6849575E+02  0.7546771E-02  0.1365284E+00
         21   -1    0    0  501  502  0.00000000000E+00  0.00000000000E+00  0.46112482677E+02  0.46112482677E+02  0.00000000000E+00 0. -1.
         21   -1    0    0  502  503 -0.00000000000E+00 -0.00000000000E+00 -0.28775473171E+03  0.28775473171E+03  0.00000000000E+00 0.  1.
         24    1    1    2    0    0 -0.78330942983E+01 -0.23195599397E+02 -0.93360577933E+02  0.12562964087E+03  0.80419002446E+02 0. -1.
          1    1    1    2  501    0 -0.17418188699E+02  0.21429337150E+02  0.22480940818E+02  0.35609022568E+02  0.00000000000E+00 0. -1.
         -2    1    1    2    0  503  0.25251282997E+02  0.17662622472E+01 -0.17076261192E+03  0.17262855096E+03  0.00000000000E+00 0.  1.
<mgrwt>
<rscale>  2 0.68495748E+02</rscale>
<asrwt>0</asrwt>
<pdfrwt beam="1">  1       21 0.70942280E-02 0.68495748E+02</pdfrwt>
<pdfrwt beam="2">  1       21 0.44269960E-01 0.68495748E+02</pdfrwt>
<totfact> 0.72442280E+05</totfact>
</mgrwt>
</event>
<event>
 5    1  0.1696945E+000  0.8617542E+02  0.7546771E-02  0.1312387E+00
         21   -1    0    0  501  502  0.00000000000E+00  0.00000000000E+00  0.65762656594E+03  0.65762656594E+03  0.00000000000E+00 0. -1.
         21   -1    0    0  502  503 -0.00000000000E+00 -0.00000000000E+00 -0.27998240584E+02  0.27998240584E+02  0.00000000000E+00 0. -1.
         24    1    1    2    0    0  0.66907032059E+02  0.26058748300E+00  0.11009773248E+03  0.15187279380E+03  0.80419002446E+02 0. -1.
          1    1    1    2  501    0 -0.43862757452E+02 -0.52013687620E+01  0.50306871117E+03  0.50500408304E+03  0.00000000000E+00 0. -1.
         -2    1    1    2    0  503 -0.23044274607E+02  0.49407812790E+01  0.16461881701E+02  0.28747929681E+02  0.00000000000E+00 0.  1.
<mgrwt>
<rscale>  2 0.86175424E+02</rscale>
<asrwt>0</asrwt>
<pdfrwt beam="1">  1       21 0.10117331E+00 0.86175424E+02</pdfrwt>
<pdfrwt beam="2">  1       21 0.43074221E-02 0.86175424E+02</pdfrwt>
<totfact> 0.28442619E+05</totfact>
</mgrwt>
</event>
<event>
 5    1  0.1696945E+000  0.6926118E+02  0.7546771E-02  0.1362624E+00
         21   -1    0    0  503  502  0.00000000000E+00  0.00000000000E+00  0.15496982465E+03  0.15496982465E+03  0.00000000000E+00 0.  1.
         21   -1    0    0  501  503 -0.00000000000E+00 -0.00000000000E+00 -0.11970062930E+03  0.11970062930E+03  0.00000000000E+00 0. -1.
         24    1    1    2    0    0  0.10425476830E+02  0.87275584118E+01 -0.53394950503E+02  0.97483832180E+02  0.80419002446E+02 0.  0.
          1    1    1    2  501    0  0.15188823034E+02  0.15502534498E+02 -0.39060290325E+02  0.44684843082E+02  0.00000000000E+00 0. -1.
         -2    1    1    2    0  502 -0.25614299864E+02 -0.24230092910E+02  0.12772443617E+03  0.13250177869E+03  0.00000000000E+00 0.  1.
<mgrwt>
<rscale>  2 0.69261181E+02</rscale>
<asrwt>0</asrwt>
<pdfrwt beam="1">  1       21 0.23841512E-01 0.69261181E+02</pdfrwt>
<pdfrwt beam="2">  1       21 0.18415481E-01 0.69261181E+02</pdfrwt>
<totfact> 0.45146005E+05</totfact>
</mgrwt>
</event>
<event>
 5    1  0.1696945E+000  0.1088455E+03  0.7546771E-02  0.1262723E+00
         21   -1    0    0  501  502  0.00000000000E+00  0.00000000000E+00  0.14357029882E+03  0.14357029882E+03  0.00000000000E+00 0. -1.
         21   -1    0    0  502  503 -0.00000000000E+00 -0.00000000000E+00 -0.14017271489E+04  0.14017271489E+04  0.00000000000E+00 0.  1.
         24    1    1    2    0    0 -0.83493586274E+02  0.34221902619E+02 -0.55851572361E+03  0.57144496414E+03  0.80419002446E+02 0.  1.
          1    1    1    2  501    0  0.33900015026E+02 -0.32854898388E+02  0.13228088761E+03  0.14045244246E+03  0.00000000000E+00 0. -1.
         -2    1    1    2    0  503  0.49593571248E+02 -0.13670042304E+01 -0.83192201413E+03  0.83340004116E+03  0.00000000000E+00 0.  1.
<mgrwt>
<rscale>  2 0.10884547E+03</rscale>
<asrwt>0</asrwt>
<pdfrwt beam="1">  1       21 0.22087739E-01 0.10884547E+03</pdfrwt>
<pdfrwt beam="2">  1       21 0.21565032E+00 0.10884547E+03</pdfrwt>
<totfact> 0.22925149E+03</totfact>
</mgrwt>
</event>
<event>
 5    1  0.1696945E+000  0.6522560E+02  0.7546771E-02  0.1377125E+00
         21   -1    0    0  503  502  0.00000000000E+00  0.00000000000E+00  0.31071304278E+02  0.31071304278E+02  0.00000000000E+00 0.  1.
         21   -1    0    0  501  503 -0.00000000000E+00 -0.00000000000E+00 -0.27448985369E+03  0.27448985369E+03  0.00000000000E+00 0.  1.
         24    1    1    2    0    0 -0.22604599321E+02  0.71051192852E+01 -0.22632060403E+03  0.24134970975E+03  0.80419002446E+02 0.  1.
          1    1    1    2  501    0  0.23243147753E+02  0.12910625216E+02 -0.30233771432E+02  0.40261757239E+02  0.00000000000E+00 0. -1.
         -2    1    1    2    0  502 -0.63854843261E+00 -0.20015744501E+02  0.13135826054E+02  0.23949690982E+02  0.00000000000E+00 0.  1.
<mgrwt>
<rscale>  2 0.65225596E+02</rscale>
<asrwt>0</asrwt>
<pdfrwt beam="1">  1       21 0.47802006E-02 0.65225596E+02</pdfrwt>
<pdfrwt beam="2">  1       21 0.42229209E-01 0.65225596E+02</pdfrwt>
<totfact> 0.15319606E+06</totfact>
</mgrwt>
</event>
<event>
 5    1  0.1696945E+000  0.6805362E+02  0.7546771E-02  0.1366840E+00
         21   -1    0    0  501  502  0.00000000000E+00  0.00000000000E+00  0.29138688019E+02  0.29138688019E+02  0.00000000000E+00 0.  1.
         21   -1    0    0  502  503 -0.00000000000E+00 -0.00000000000E+00 -0.48069221358E+03  0.48069221358E+03  0.00000000000E+00 0. -1.
         24    1    1    2    0    0  0.26740683759E+02  0.19499091712E+02 -0.44220729025E+02  0.97560071624E+02  0.80419002446E+02 0.  1.
          1    1    1    2  501    0 -0.41593952488E+01 -0.25453808958E+02 -0.78892786608E+02  0.83001618889E+02  0.00000000000E+00 0. -1.
         -2    1    1    2    0  503 -0.22581288510E+02  0.59547172455E+01 -0.32844000993E+03  0.32926921109E+03  0.00000000000E+00 0.  1.
<mgrwt>
<rscale>  2 0.68053623E+02</rscale>
<asrwt>0</asrwt>
<pdfrwt beam="1">  1       21 0.44828755E-02 0.68053623E+02</pdfrwt>
<pdfrwt beam="2">  1       21 0.73952641E-01 0.68053623E+02</pdfrwt>
<totfact> 0.53724812E+05</totfact>
</mgrwt>
</event>
<event>
 5    1  0.1696945E+000  0.7398771E+02  0.7546771E-02  0.1347035E+00
         21   -1    0    0  503  502  0.00000000000E+00  0.00000000000E+00  0.42768258534E+02  0.42768258534E+02  0.00000000000E+00 0.  1.
         21   -1    0    0  501  503 -0.00000000000E+00 -0.00000000000E+00 -0.26238283671E+03  0.26238283671E+03  0.00000000000E+00 0.  1.
         24    1    1    2    0    0 -0.29639233257E+02 -0.27848017374E+02 -0.16577555311E+03  0.18868689988E+03  0.80419002446E+02 0.  1.
          1    1    1    2  501    0  0.12993384766E-01  0.28228959210E+02 -0.74946045671E+02  0.80086104092E+02  0.00000000000E+00 0. -1.
         -2    1    1    2    0  502  0.29626239872E+02 -0.38094183656E+00  0.21107020612E+02  0.36378091274E+02  0.00000000000E+00 0.  1.
<mgrwt>
<rscale>  2 0.73987710E+02</rscale>
<asrwt>0</asrwt>
<pdfrwt beam="1">  1       21 0.65797322E-02 0.73987710E+02</pdfrwt>
<pdfrwt beam="2">  1       21 0.40366590E-01 0.73987710E+02</pdfrwt>
<totfact> 0.98869357E+05</totfact>
</mgrwt>
</event>
<event>
 5    1  0.1696945E+000  0.8449239E+02  0.7546771E-02  0.1316765E+00
         21   -1    0    0  501  502  0.00000000000E+00  0.00000000000E+00  0.39010896633E+01  0.39010896633E+01  0.00000000000E+00 0.  1.
         21   -1    0    0  502  503 -0.00000000000E+00 -0.00000000000E+00 -0.21034179797E+04  0.21034179797E+04  0.00000000000E+00 0.  1.
         24    1    1    2    0    0 -0.50671921720E+01  0.42763780273E+02 -0.13282150305E+04  0.13313439828E+04  0.80419002446E+02 0.  1.
          1    1    1    2  501    0  0.19267150916E+02  0.10978311737E+02 -0.10271539445E+03  0.10508186661E+03  0.00000000000E+00 0. -1.
         -2    1    1    2    0  503 -0.14199958744E+02 -0.53742092010E+02 -0.66858646503E+03  0.67089321990E+03  0.00000000000E+00 0.  1.
<mgrwt>
<rscale>  2 0.84492387E+02</rscale>
<asrwt>0</asrwt>
<pdfrwt beam="1">  1       21 0.60016687E-03 0.84492387E+02</pdfrwt>
<pdfrwt beam="2">  1       21 0.32360318E+00 0.84492387E+02</pdfrwt>
<totfact> 0.23508291E+05</totfact>
</mgrwt>
</event>
<event>
 5    1  0.1696945E+000  0.6647902E+02  0.7546771E-02  0.1372493E+00
         21   -1    0    0  503  502  0.00000000000E+00  0.00000000000E+00  0.15186910189E+02  0.15186910189E+02  0.00000000000E+00 0. -1.
         21   -1    0    0  501  503 -0.00000000000E+00 -0.00000000000E+00 -0.17831671166E+04  0.17831671166E+04  0.00000000000E+00 0. -1.
         24    1    1    2    0    0  0.18961317500E+01 -0.18398429382E+02 -0.10621326454E+03  0.13450119345E+03  0.80419002446E+02 0. -1.
          1    1    1    2  501    0  0.17961789782E+02  0.23840326466E+02 -0.15447392679E+04  0.15450276350E+04  0.00000000000E+00 0. -1.
         -2    1    1    2    0  502 -0.19857921532E+02 -0.54418970839E+01 -0.11702767395E+03  0.11882519834E+03  0.00000000000E+00 0.  1.
<mgrwt>
<rscale>  2 0.66479024E+02</rscale>
<asrwt>0</asrwt>
<pdfrwt beam="1">  1       21 0.23364467E-02 0.66479024E+02</pdfrwt>
<pdfrwt beam="2">  1       21 0.27433353E+00 0.66479024E+02</pdfrwt>
<totfact> 0.53541354E+04</totfact>
</mgrwt>
</event>
<event>
 5    1  0.1696945E+000  0.7404136E+02  0.7546771E-02  0.1346866E+00
         21   -1    0    0  501  502  0.00000000000E+00  0.00000000000E+00  0.72879497949E+03  0.72879497949E+03  0.00000000000E+00 0. -1.
         21   -1    0    0  502  503 -0.00000000000E+00 -0.00000000000E+00 -0.20729576104E+02  0.20729576104E+02  0.00000000000E+00 0.  1.
         24    1    1    2    0    0  0.12883965993E+02 -0.13113191140E+00  0.23002315475E+03  0.24401614998E+03  0.80419002446E+02 0.  1.
          1    1    1    2  501    0  0.16969046998E+02  0.23317536579E+02  0.46444211608E+03  0.46533658276E+03  0.00000000000E+00 0. -1.
         -2    1    1    2    0  503 -0.29853012991E+02 -0.23186404668E+02  0.13600132562E+02  0.40171822858E+02  0.00000000000E+00 0.  1.
<mgrwt>
<rscale>  2 0.74041358E+02</rscale>
<asrwt>0</asrwt>
<pdfrwt beam="1">  1       21 0.11212228E+00 0.74041358E+02</pdfrwt>
<pdfrwt beam="2">  1       21 0.31891661E-02 0.74041358E+02</pdfrwt>
<totfact> 0.36688872E+05</totfact>
</mgrwt>
</event>
<event>
 5    1  0.1696945E+000  0.8299883E+02  0.7546771E-02  0.1320750E+00
         21   -1    0    0  501  502  0.00000000000E+00  0.00000000000E+00  0.24307384074E+03  0.24307384074E+03  0.00000000000E+00 0. -1.
         21   -1    0    0  502  503 -0.00000000000E+00 -0.00000000000E+00 -0.52023193774E+02  0.52023193774E+02  0.00000000000E+00 0.  1.
         24    1    1    2    0    0  0.98415971981E+01  0.84641402812E+01  0.10171655488E+03  0.13031489629E+03  0.80419002446E+02 0. -1.
          1    1    1    2  501    0 -0.46965217388E+02 -0.57328218726E+01  0.11173361469E+03  0.12133835973E+03  0.00000000000E+00 0. -1.
         -2    1    1    2    0  503  0.37123620190E+02 -0.27313184086E+01 -0.22399522602E+02  0.43443778485E+02  0.00000000000E+00 0.  1.
<mgrwt>
<rscale>  2 0.82998835E+02</rscale>
<asrwt>0</asrwt>
<pdfrwt beam="1">  1       21 0.37395975E-01 0.82998835E+02</pdfrwt>
<pdfrwt beam="2">  1       21 0.80035684E-02 0.82998835E+02</pdfrwt>
<totfact> 0.82650169E+05</totfact>
</mgrwt>
</event>
<event>
 5    1  0.1904501E+000  0.1326799E+03  0.7546771E-02  0.1223533E+00
         21   -1    0    0  503  502  0.00000000000E+00  0.00000000000E+00  0.23710618877E+03  0.23710618877E+03  0.00000000000E+00 0. -1.
         21   -1    0    0  501  503 -0.00000000000E+00 -0.00000000000E+00 -0.13086951622E+03  0.13086951622E+03  0.00000000000E+00 0. -1.
         24    1    1    2    0    0  0.55716536113E+02  0.10656039849E+03  0.17254368995E+03  0.22516214562E+03  0.80419002446E+02 0. -1.
          1    1    1    2  501    0 -0.30101067362E+02 -0.68498674882E+02 -0.61179638948E+02  0.96649319391E+02  0.00000000000E+00 0. -1.
         -2    1    1    2    0  502 -0.25615468750E+02 -0.38061723613E+02 -0.51273784560E+01  0.46164239986E+02  0.00000000000E+00 0.  1.
<mgrwt>
<rscale>  2 0.13267994E+03</rscale>
<asrwt>0</asrwt>
<pdfrwt beam="1">  1       21 0.36477875E-01 0.13267994E+03</pdfrwt>
<pdfrwt beam="2">  1       21 0.20133772E-01 0.13267994E+03</pdfrwt>
<totfact> 0.16825162E+05</totfact>
</mgrwt>
</event>
<event>
 5    1  0.1696945E+000  0.7224388E+02  0.7546771E-02  0.1352625E+00
         21   -1    0    0  501  502  0.00000000000E+00  0.00000000000E+00  0.89934230017E+03  0.89934230017E+03  0.00000000000E+00 0.  1.
         21   -1    0    0  502  503 -0.00000000000E+00 -0.00000000000E+00 -0.12615241032E+02  0.12615241032E+02  0.00000000000E+00 0.  1.
         24    1    1    2    0    0  0.78741435146E+01  0.15479516465E+02  0.35189573666E+03  0.36138544935E+03  0.80419002446E+02 0.  1.
          1    1    1    2  501    0  0.90470868456E+00  0.22862630248E+02  0.49156989496E+03  0.49210210322E+03  0.00000000000E+00 0. -1.
         -2    1    1    2    0  503 -0.87788521991E+01 -0.38342146712E+02  0.43261427522E+02  0.58469988641E+02  0.00000000000E+00 0.  1.
<mgrwt>
<rscale>  2 0.72243881E+02</rscale>
<asrwt>0</asrwt>
<pdfrwt beam="1">  1       21 0.13836030E+00 0.72243881E+02</pdfrwt>
<pdfrwt beam="2">  1       21 0.19408070E-02 0.72243881E+02</pdfrwt>
<totfact> 0.49083875E+05</totfact>
</mgrwt>
</event>
<event>
 5    1  0.1696945E+000  0.1175334E+03  0.7546771E-02  0.1247222E+00
         21   -1    0    0  501  502  0.00000000000E+00  0.00000000000E+00  0.34201436831E+03  0.34201436831E+03  0.00000000000E+00 0. -1.
         21   -1    0    0  502  503 -0.00000000000E+00 -0.00000000000E+00 -0.10347249236E+03  0.10347249236E+03  0.00000000000E+00 0.  1.
         24    1    1    2    0    0  0.43956341670E+02 -0.73921651537E+02  0.28352670389E+03  0.30700354772E+03  0.80419002446E+02 0. -1.
          1    1    1    2  501    0 -0.29289458400E+02  0.90538595933E+02 -0.81659354600E+01  0.95508074155E+02  0.00000000000E+00 0. -1.
         -2    1    1    2    0  503 -0.14666883270E+02 -0.16616944396E+02 -0.36818892482E+02  0.42975238795E+02  0.00000000000E+00 0.  1.
<mgrwt>
<rscale>  2 0.11753343E+03</rscale>
<asrwt>0</asrwt>
<pdfrwt beam="1">  1       21 0.52617595E-01 0.11753343E+03</pdfrwt>
<pdfrwt beam="2">  1       21 0.15918845E-01 0.11753343E+03</pdfrwt>
<totfact> 0.12382749E+05</totfact>
</mgrwt>
</event>
<event>
 5    1  0.1696945E+000  0.7576953E+02  0.7546771E-02  0.1341504E+00
         21   -1    0    0  503  502  0.00000000000E+00  0.00000000000E+00  0.22465499134E+03  0.22465499134E+03  0.00000000000E+00 0.  1.
         21   -1    0    0  501  503 -0.00000000000E+00 -0.00000000000E+00 -0.34191817077E+02  0.34191817077E+02  0.00000000000E+00 0. -1.
         24    1    1    2    0    0  0.28904252841E+02 -0.45437661151E+01  0.53799498413E+02  0.10108265740E+03  0.80419002446E+02 0.  0.
          1    1    1    2  501    0  0.13917634042E+02  0.16419620402E+02  0.10393239430E+02  0.23902382671E+02  0.00000000000E+00 0. -1.
         -2    1    1    2    0  502 -0.42821886884E+02 -0.11875854287E+02  0.12627043642E+03  0.13386176835E+03  0.00000000000E+00 0.  1.
<mgrwt>
<rscale>  2 0.75769526E+02</rscale>
<asrwt>0</asrwt>
<pdfrwt beam="1">  1       21 0.34562305E-01 0.75769526E+02</pdfrwt>
<pdfrwt beam="2">  1       21 0.52602797E-02 0.75769526E+02</pdfrwt>
<totfact> 0.19462068E+06</totfact>
</mgrwt>
</event>
<event>
 5    1  0.1721962E+000  0.7507203E+02  0.7546771E-02  0.1343648E+00
         21   -1    0    0  501  502  0.00000000000E+00  0.00000000000E+00  0.10993466834E+03  0.10993466834E+03  0.00000000000E+00 0.  1.
         21   -1    0    0  502  503 -0.00000000000E+00 -0.00000000000E+00 -0.11787825232E+03  0.11787825232E+03  0.00000000000E+00 0.  1.
         24    1    1    2    0    0  0.28299404272E+02  0.28894260544E+02  0.77221083353E+02  0.11860036359E+03  0.80419002446E+02 0.  1.
          1    1    1    2  501    0  0.83619595528E+01 -0.21031162352E+02 -0.90712523095E+01  0.24382776214E+02  0.00000000000E+00 0. -1.
         -2    1    1    2    0  503 -0.36661363825E+02 -0.78630981919E+01 -0.76093415019E+02  0.84829780855E+02  0.00000000000E+00 0.  1.
<mgrwt>
<rscale>  2 0.75072028E+02</rscale>
<asrwt>0</asrwt>
<pdfrwt beam="1">  1       21 0.16913026E-01 0.75072028E+02</pdfrwt>
<pdfrwt beam="2">  1       21 0.18135116E-01 0.75072028E+02</pdfrwt>
<totfact> 0.86791147E+05</totfact>
</mgrwt>
</event>
<event>
 5    1  0.1696945E+000  0.6262936E+02  0.7546771E-02  0.1387117E+00
         21   -1    0    0  503  502  0.00000000000E+00  0.00000000000E+00  0.32167587596E+02  0.32167587596E+02  0.00000000000E+00 0. -1.
         21   -1    0    0  501  503 -0.00000000000E+00 -0.00000000000E+00 -0.14235757645E+03  0.14235757645E+03  0.00000000000E+00 0.  1.
         24    1    1    2    0    0 -0.22180070244E+02  0.12520507051E+01 -0.47649811087E+02  0.96079360937E+02  0.80419002446E+02 0.  0.
          1    1    1    2  501    0  0.12885437962E+02  0.17008154371E+02 -0.50151174515E+02  0.54501854389E+02  0.00000000000E+00 0. -1.
         -2    1    1    2    0  502  0.92946322817E+01 -0.18260205077E+02 -0.12389003248E+02  0.23943948717E+02  0.00000000000E+00 0.  1.
<mgrwt>
<rscale>  2 0.62629360E+02</rscale>
<asrwt>0</asrwt>
<pdfrwt beam="1">  1       21 0.49488596E-02 0.62629360E+02</pdfrwt>
<pdfrwt beam="2">  1       21 0.21901166E-01 0.62629360E+02</pdfrwt>
<totfact> 0.50081821E+06</totfact>
</mgrwt>
</event>
<event>
 5    1  0.1696945E+000  0.1118741E+03  0.7546771E-02  0.1257138E+00
         21   -1    0    0  501  502  0.00000000000E+00  0.00000000000E+00  0.97640078920E+02  0.97640078920E+02  0.00000000000E+00 0. -1.
         21   -1    0    0  502  503 -0.00000000000E+00 -0.00000000000E+00 -0.64767416371E+03  0.64767416371E+03  0.00000000000E+00 0.  1.
         24    1    1    2    0    0  0.26766328334E+02 -0.57105226226E+02 -0.74045207981E+02  0.12620361316E+03  0.80419002446E+02 0. -1.
          1    1    1    2  501    0  0.45829440350E+01  0.81622618086E+02  0.47207788365E+02  0.94402491712E+02  0.00000000000E+00 0. -1.
         -2    1    1    2    0  503 -0.31349272369E+02 -0.24517391860E+02 -0.52319666517E+03  0.52470813776E+03  0.00000000000E+00 0.  1.
<mgrwt>
<rscale>  2 0.11187414E+03</rscale>
<asrwt>0</asrwt>
<pdfrwt beam="1">  1       21 0.15021550E-01 0.11187414E+03</pdfrwt>
<pdfrwt beam="2">  1       21 0.99642181E-01 0.11187414E+03</pdfrwt>
<totfact> 0.34058248E+04</totfact>
</mgrwt>
</event>
<event>
 5    1  0.1696945E+000  0.7106602E+02  0.7546771E-02  0.1356505E+00
         21   -1    0    0  501  502  0.00000000000E+00  0.00000000000E+00  0.30274345955E+03  0.30274345955E+03  0.00000000000E+00 0. -1.
         21   -1    0    0  502  503 -0.00000000000E+00 -0.00000000000E+00 -0.11059727513E+04  0.11059727513E+04  0.00000000000E+00 0. -1.
         24    1    1    2    0    0  0.47659084174E+02 -0.76301934174E+01 -0.78496802277E+03  0.79055146630E+03  0.80419002446E+02 0. -1.
          1    1    1    2  501    0 -0.25344089324E+02  0.54137726122E+01  0.29899544323E+03  0.30011648883E+03  0.00000000000E+00 0. -1.
         -2    1    1    2    0  503 -0.22314994851E+02  0.22164208052E+01 -0.31725671220E+03  0.31804825570E+03  0.00000000000E+00 0.  1.
<mgrwt>
<rscale>  2 0.71066021E+02</rscale>
<asrwt>0</asrwt>
<pdfrwt beam="1">  1       21 0.46575917E-01 0.71066021E+02</pdfrwt>
<pdfrwt beam="2">  1       21 0.17014965E+00 0.71066021E+02</pdfrwt>
<totfact> 0.11471884E+03</totfact>
</mgrwt>
</event>
<event>
 5    1  0.1696945E+000  0.7476886E+02  0.7546771E-02  0.1344588E+00
         21   -1    0    0  501  502  0.00000000000E+00  0.00000000000E+00  0.17163046028E+02  0.17163046028E+02  0.00000000000E+00 0.  1.
         21   -1    0    0  502  503 -0.00000000000E+00 -0.00000000000E+00 -0.54534954696E+03  0.54534954696E+03  0.00000000000E+00 0. -1.
         24    1    1    2    0    0 -0.88968241891E+01  0.14978295506E+02 -0.20245553130E+03  0.21853823676E+03  0.80419002446E+02 0.  0.
          1    1    1    2  501    0 -0.24070675737E+02 -0.23033768421E+02 -0.25821771071E+02  0.42151106502E+02  0.00000000000E+00 0. -1.
         -2    1    1    2    0  503  0.32967499926E+02  0.80554729153E+01 -0.29990919855E+03  0.30182324972E+03  0.00000000000E+00 0.  1.
<mgrwt>
<rscale>  2 0.74768856E+02</rscale>
<asrwt>0</asrwt>
<pdfrwt beam="1">  1       21 0.26404688E-02 0.74768856E+02</pdfrwt>
<pdfrwt beam="2">  1       21 0.83899924E-01 0.74768856E+02</pdfrwt>
<totfact> 0.96474879E+05</totfact>
</mgrwt>
</event>
<event>
 5    1  0.1696945E+000  0.1703294E+03  0.7546771E-02  0.1177505E+00
         21   -1    0    0  503  502  0.00000000000E+00  0.00000000000E+00  0.67821021743E+02  0.67821021743E+02  0.00000000000E+00 0.  1.
         21   -1    0    0  501  503 -0.00000000000E+00 -0.00000000000E+00 -0.16554791795E+04  0.16554791795E+04  0.00000000000E+00 0. -1.
         24    1    1    2    0    0 -0.10217860907E+03 -0.39877030561E+02 -0.43576639182E+03  0.45649776551E+03  0.80419002446E+02 0. -1.
          1    1    1    2  501    0  0.14048527792E+03 -0.11058169379E+02 -0.11861190407E+04  0.11944608722E+04  0.00000000000E+00 0. -1.
         -2    1    1    2    0  502 -0.38306668854E+02  0.50935199941E+02  0.34227274813E+02  0.72341563522E+02  0.00000000000E+00 0.  1.
<mgrwt>
<rscale>  2 0.17032944E+03</rscale>
<asrwt>0</asrwt>
<pdfrwt beam="1">  1       21 0.10434004E-01 0.17032944E+03</pdfrwt>
<pdfrwt beam="2">  1       21 0.25468909E+00 0.17032944E+03</pdfrwt>
<totfact> 0.48154053E+03</totfact>
</mgrwt>
</event>
<event>
 5    1  0.1696945E+000  0.8593780E+02  0.7546771E-02  0.1312998E+00
         21   -1    0    0  503  502  0.00000000000E+00  0.00000000000E+00  0.12158628355E+03  0.12158628355E+03  0.00000000000E+00 0.  1.
         21   -1    0    0  501  503 -0.00000000000E+00 -0.00000000000E+00 -0.10486439147E+03  0.10486439147E+03  0.00000000000E+00 0. -1.
         24    1    1    2    0    0  0.27628280123E+02 -0.14265730076E+01  0.49599548629E+02  0.98451450734E+02  0.80419002446E+02 0.  1.
          1    1    1    2  501    0  0.28542749139E+02  0.95013286326E+01 -0.58463845638E+02  0.65749410803E+02  0.00000000000E+00 0. -1.
         -2    1    1    2    0  502 -0.56171029262E+02 -0.80747556250E+01  0.25586189089E+02  0.62249813484E+02  0.00000000000E+00 0.  1.
<mgrwt>
<rscale>  2 0.85937799E+02</rscale>
<asrwt>0</asrwt>
<pdfrwt beam="1">  1       21 0.18705582E-01 0.85937799E+02</pdfrwt>
<pdfrwt beam="2">  1       21 0.16132983E-01 0.85937799E+02</pdfrwt>
<totfact> 0.89540655E+05</totfact>
</mgrwt>
</event>
<event>
 5    1  0.1696945E+000  0.9791493E+02  0.7546771E-02  0.1284743E+00
         21   -1    0    0  501  502  0.00000000000E+00  0.00000000000E+00  0.30658239233E+03  0.30658239233E+03  0.00000000000E+00 0. -1.
         21   -1    0    0  502  503 -0.00000000000E+00 -0.00000000000E+00 -0.39483254842E+02  0.39483254842E+02  0.00000000000E+00 0.  1.
         24    1    1    2    0    0 -0.18821496502E+02 -0.32492202704E+02  0.11100914052E+03  0.14212753850E+03  0.80419002446E+02 0.  0.
          1    1    1    2  501    0 -0.41087773388E+02  0.58204116356E+01  0.12433237239E+03  0.13107486845E+03  0.00000000000E+00 0. -1.
         -2    1    1    2    0  503  0.59909269890E+02  0.26671791069E+02  0.31757624577E+02  0.72863240227E+02  0.00000000000E+00 0.  1.
<mgrwt>
<rscale>  2 0.97914926E+02</rscale>
<asrwt>0</asrwt>
<pdfrwt beam="1">  1       21 0.47166520E-01 0.97914926E+02</pdfrwt>
<pdfrwt beam="2">  1       21 0.60743471E-02 0.97914926E+02</pdfrwt>
<totfact> 0.83226804E+05</totfact>
</mgrwt>
</event>
<event>
 5    1  0.1696945E+000  0.8555720E+02  0.7546771E-02  0.1313982E+00
         21   -1    0    0  503  502  0.00000000000E+00  0.00000000000E+00  0.17775645505E+03  0.17775645505E+03  0.00000000000E+00 0. -1.
         21   -1    0    0  501  503 -0.00000000000E+00 -0.00000000000E+00 -0.10866527522E+03  0.10866527522E+03  0.00000000000E+00 0. -1.
         24    1    1    2    0    0 -0.15900403523E+02  0.60298045671E+02  0.44873942751E+02  0.11121854088E+03  0.80419002446E+02 0.  0.
          1    1    1    2  501    0  0.24941016192E+02 -0.40133087485E+02 -0.66642744217E+02  0.81694396115E+02  0.00000000000E+00 0. -1.
         -2    1    1    2    0  502 -0.90406126692E+01 -0.20164958186E+02  0.90859981298E+02  0.93508793264E+02  0.00000000000E+00 0.  1.
<mgrwt>
<rscale>  2 0.85557197E+02</rscale>
<asrwt>0</asrwt>
<pdfrwt beam="1">  1       21 0.27347147E-01 0.85557197E+02</pdfrwt>
<pdfrwt beam="2">  1       21 0.16717735E-01 0.85557197E+02</pdfrwt>
<totfact> 0.41596701E+05</totfact>
</mgrwt>
</event>
<event>
 5    1  0.1696945E+000  0.9192673E+02  0.7546771E-02  0.1298252E+00
         21   -1    0    0  503  502  0.00000000000E+00  0.00000000000E+00  0.45714743505E+02  0.45714743505E+02  0.00000000000E+00 0. -1.
         21   -1    0    0  501  503 -0.00000000000E+00 -0.00000000000E+00 -0.29127557995E+03  0.29127557995E+03  0.00000000000E+00 0. -1.
         24    1    1    2    0    0 -0.30933269779E+02 -0.35990304672E+02 -0.48927382921E+02  0.10541951415E+03  0.80419002446E+02 0. -1.
          1    1    1    2  501    0  0.52395515455E+02  0.43123080942E+02 -0.19760639307E+03  0.20893342655E+03  0.00000000000E+00 0. -1.
         -2    1    1    2    0  502 -0.21462245676E+02 -0.71327762699E+01  0.97293953977E+00  0.22637382758E+02  0.00000000000E+00 0.  1.
<mgrwt>
<rscale>  2 0.91926727E+02</rscale>
<asrwt>0</asrwt>
<pdfrwt beam="1">  1       21 0.70330374E-02 0.91926727E+02</pdfrwt>
<pdfrwt beam="2">  1       21 0.44811628E-01 0.91926727E+02</pdfrwt>
<totfact> 0.72013959E+05</totfact>
</mgrwt>
</event>
<event>
 5    1  0.1696945E+000  0.8941171E+02  0.7546771E-02  0.1304283E+00
         21   -1    0    0  501  502  0.00000000000E+00  0.00000000000E+00  0.93705954620E+01  0.93705954620E+01  0.00000000000E+00 0. -1.
         21   -1    0    0  502  503 -0.00000000000E+00 -0.00000000000E+00 -0.12457324309E+04  0.12457324309E+04  0.00000000000E+00 0.  1.
         24    1    1    2    0    0  0.17969463533E+02 -0.32864174926E+02 -0.31187067820E+03  0.32424295133E+03  0.80419002446E+02 0.  0.
          1    1    1    2  501    0  0.14494899411E+02  0.50933052024E+02 -0.26037887235E+03  0.26570930556E+03  0.00000000000E+00 0. -1.
         -2    1    1    2    0  503 -0.32464362944E+02 -0.18068877098E+02 -0.66411228488E+03  0.66515076946E+03  0.00000000000E+00 0.  1.
<mgrwt>
<rscale>  2 0.89411707E+02</rscale>
<asrwt>0</asrwt>
<pdfrwt beam="1">  1       21 0.14416300E-02 0.89411707E+02</pdfrwt>
<pdfrwt beam="2">  1       21 0.19165116E+00 0.89411707E+02</pdfrwt>
<totfact> 0.33353570E+05</totfact>
</mgrwt>
</event>
<event>
 5    1  0.1696945E+000  0.6313571E+02  0.7546771E-02  0.1385125E+00
         21   -1    0    0  501  502  0.00000000000E+00  0.00000000000E+00  0.16850490874E+02  0.16850490874E+02  0.00000000000E+00 0. -1.
         21   -1    0    0  502  503 -0.00000000000E+00 -0.00000000000E+00 -0.63362816104E+03  0.63362816104E+03  0.00000000000E+00 0. -1.
         24    1    1    2    0    0  0.63984140380E+01  0.30384554853E+01 -0.19113110638E+03  0.20748129480E+03  0.80419002446E+02 0.  1.
          1    1    1    2  501    0 -0.25185960042E+02  0.39540578705E+01 -0.10834447084E+02  0.27701126340E+02  0.00000000000E+00 0. -1.
         -2    1    1    2    0  503  0.18787546004E+02 -0.69925133558E+01 -0.41481211671E+03  0.41529623077E+03  0.00000000000E+00 0.  1.
<mgrwt>
<rscale>  2 0.63135709E+02</rscale>
<asrwt>0</asrwt>
<pdfrwt beam="1">  1       21 0.25923827E-02 0.63135709E+02</pdfrwt>
<pdfrwt beam="2">  1       21 0.97481274E-01 0.63135709E+02</pdfrwt>
<totfact> 0.70818073E+05</totfact>
</mgrwt>
</event>
<event>
 5    1  0.1696945E+000  0.1248713E+03  0.7546771E-02  0.1235271E+00
         21   -1    0    0  501  502  0.00000000000E+00  0.00000000000E+00  0.12668814563E+04  0.12668814563E+04  0.00000000000E+00 0. -1.
         21   -1    0    0  502  503 -0.00000000000E+00 -0.00000000000E+00 -0.23257712545E+02  0.23257712545E+02  0.00000000000E+00 0. -1.
         24    1    1    2    0    0 -0.25190161571E+02 -0.73119346855E+02  0.18430346052E+03  0.21544364608E+03  0.80419002446E+02 0. -1.
          1    1    1    2  501    0  0.67620142549E+02  0.67195503869E+02  0.97929646109E+03  0.98392544338E+03  0.00000000000E+00 0. -1.
         -2    1    1    2    0  503 -0.42429980978E+02  0.59238429856E+01  0.80023822185E+02  0.90770079423E+02  0.00000000000E+00 0.  1.
<mgrwt>
<rscale>  2 0.12487127E+03</rscale>
<asrwt>0</asrwt>
<pdfrwt beam="1">  1       21 0.19490479E+00 0.12487127E+03</pdfrwt>
<pdfrwt beam="2">  1       21 0.35781106E-02 0.12487127E+03</pdfrwt>
<totfact> 0.71517973E+04</totfact>
</mgrwt>
</event>
<event>
 5    1  0.1696945E+000  0.6654811E+02  0.7546771E-02  0.1372241E+00
         21   -1    0    0  501  502  0.00000000000E+00  0.00000000000E+00  0.35575112079E+02  0.35575112079E+02  0.00000000000E+00 0. -1.
         21   -1    0    0  502  503 -0.00000000000E+00 -0.00000000000E+00 -0.34149136761E+03  0.34149136761E+03  0.00000000000E+00 0. -1.
         24    1    1    2    0    0 -0.75405805696E+00 -0.67177353615E+01 -0.17314168923E+03  0.19102606386E+03  0.80419002446E+02 0. -1.
          1    1    1    2  501    0 -0.14108907195E+02 -0.18412802550E+02  0.19922098206E+02  0.30577484477E+02  0.00000000000E+00 0. -1.
         -2    1    1    2    0  503  0.14862965252E+02  0.25130537912E+02 -0.15269666450E+03  0.15546293134E+03  0.00000000000E+00 0.  1.
<mgrwt>
<rscale>  2 0.66548108E+02</rscale>
<asrwt>0</asrwt>
<pdfrwt beam="1">  1       21 0.54730941E-02 0.66548108E+02</pdfrwt>
<pdfrwt beam="2">  1       21 0.52537134E-01 0.66548108E+02</pdfrwt>
<totfact> 0.79111845E+05</totfact>
</mgrwt>
</event>
<event>
 5    1  0.1696945E+000  0.7503164E+02  0.7546771E-02  0.1343773E+00
         21   -1    0    0  503  502  0.00000000000E+00  0.00000000000E+00  0.15679878082E+03  0.15679878082E+03  0.00000000000E+00 0.  1.
         21   -1    0    0  501  503 -0.00000000000E+00 -0.00000000000E+00 -0.10449506152E+03  0.10449506152E+03  0.00000000000E+00 0.  1.
         24    1    1    2    0    0 -0.40211958467E+02  0.20857781694E+02 -0.50472242966E+02  0.10519844070E+03  0.80419002446E+02 0.  1.
          1    1    1    2  501    0  0.22940859034E+02  0.78618616585E+01 -0.18355131107E+02  0.30413857367E+02  0.00000000000E+00 0. -1.
         -2    1    1    2    0  502  0.17271099433E+02 -0.28719643352E+02  0.12113109337E+03  0.12568154427E+03  0.00000000000E+00 0.  1.
<mgrwt>
<rscale>  2 0.75031642E+02</rscale>
<asrwt>0</asrwt>
<pdfrwt beam="1">  1       21 0.24122889E-01 0.75031642E+02</pdfrwt>
<pdfrwt beam="2">  1       21 0.16076163E-01 0.75031642E+02</pdfrwt>
<totfact> 0.56404157E+05</totfact>
</mgrwt>
</event>
<event>
 5    1  0.1696945E+000  0.1469889E+03  0.7546771E-02  0.1204223E+00
         21   -1    0    0  501  502  0.00000000000E+00  0.00000000000E+00  0.15636555328E+03  0.15636555328E+03  0.00000000000E+00 0.  1.
         21   -1    0    0  502  503 -0.00000000000E+00 -0.00000000000E+00 -0.49987274360E+03  0.49987274360E+03  0.00000000000E+00 0.  1.
         24    1    1    2    0    0 -0.10975084030E+03  0.80294285595E+02  0.22538355936E+02  0.15958575340E+03  0.80419002446E+02 0.  1.
          1    1    1    2  501    0  0.26129614249E+02 -0.18518574516E+02  0.54627217962E+02  0.63323197055E+02  0.00000000000E+00 0. -1.
         -2    1    1    2    0  503  0.83621226046E+02 -0.61775711078E+02 -0.42067276422E+03  0.43332934643E+03  0.00000000000E+00 0.  1.
<mgrwt>
<rscale>  2 0.14698889E+03</rscale>
<asrwt>0</asrwt>
<pdfrwt beam="1">  1       21 0.24056238E-01 0.14698889E+03</pdfrwt>
<pdfrwt beam="2">  1       21 0.76903501E-01 0.14698889E+03</pdfrwt>
<totfact> 0.25185221E+04</totfact>
</mgrwt>
</event>
<event>
 5    1  0.1696945E+000  0.2152702E+03  0.7546771E-02  0.1137459E+00
         21   -1    0    0  501  502  0.00000000000E+00  0.00000000000E+00  0.32436703960E+03  0.32436703960E+03  0.00000000000E+00 0. -1.
         21   -1    0    0  502  503 -0.00000000000E+00 -0.00000000000E+00 -0.25518334081E+03  0.25518334081E+03  0.00000000000E+00 0. -1.
         24    1    1    2    0    0  0.13116190097E+03  0.45905636844E+02 -0.23406704842E+02  0.16225246238E+03  0.80419002446E+02 0. -1.
          1    1    1    2  501    0 -0.12478689620E+03  0.77185574400E+02  0.20390918397E+03  0.25121372906E+03  0.00000000000E+00 0. -1.
         -2    1    1    2    0  503 -0.63750047744E+01 -0.12309121124E+03 -0.11131878034E+03  0.16608418898E+03  0.00000000000E+00 0.  1.
<mgrwt>
<rscale>  2 0.21527019E+03</rscale>
<asrwt>0</asrwt>
<pdfrwt beam="1">  1       21 0.49902622E-01 0.21527019E+03</pdfrwt>
<pdfrwt beam="2">  1       21 0.39258975E-01 0.21527019E+03</pdfrwt>
<totfact> 0.23626309E+04</totfact>
</mgrwt>
</event>
<event>
 5    1  0.1696945E+000  0.7654375E+02  0.7546771E-02  0.1339156E+00
         21   -1    0    0  501  502  0.00000000000E+00  0.00000000000E+00  0.38501935582E+03  0.38501935582E+03  0.00000000000E+00 0. -1.
         21   -1    0    0  502  503 -0.00000000000E+00 -0.00000000000E+00 -0.26801195178E+02  0.26801195178E+02  0.00000000000E+00 0. -1.
         24    1    1    2    0    0  0.21833273075E+02  0.13365107506E+02  0.59296282825E+02  0.10314350694E+03  0.80419002446E+02 0. -1.
          1    1    1    2  501    0 -0.25606040189E+02 -0.36868429541E+02  0.25300977111E+03  0.25696088160E+03  0.00000000000E+00 0. -1.
         -2    1    1    2    0  503  0.37727671137E+01  0.23503322035E+02  0.45912106700E+02  0.51716162464E+02  0.00000000000E+00 0.  1.
<mgrwt>
<rscale>  2 0.76543752E+02</rscale>
<asrwt>0</asrwt>
<pdfrwt beam="1">  1       21 0.59233743E-01 0.76543752E+02</pdfrwt>
<pdfrwt beam="2">  1       21 0.41232611E-02 0.76543752E+02</pdfrwt>
<totfact> 0.98851583E+05</totfact>
</mgrwt>
</event>
<event>
 5    1  0.1696945E+000  0.6392556E+02  0.7546771E-02  0.1382059E+00
         21   -1    0    0  503  502  0.00000000000E+00  0.00000000000E+00  0.21149090239E+03  0.21149090239E+03  0.00000000000E+00 0. -1.
         21   -1    0    0  501  503 -0.00000000000E+00 -0.00000000000E+00 -0.24723467478E+02  0.24723467478E+02  0.00000000000E+00 0. -1.
         24    1    1    2    0    0 -0.26148190830E+02 -0.13300013859E+02  0.65746875587E+02  0.10793741639E+03  0.80419002446E+02 0. -1.
          1    1    1    2  501    0  0.68318475558E+01  0.20519516971E+02  0.54533743513E+02  0.58665610875E+02  0.00000000000E+00 0. -1.
         -2    1    1    2    0  502  0.19316343274E+02 -0.72195031116E+01  0.66486815812E+02  0.69611342607E+02  0.00000000000E+00 0.  1.
<mgrwt>
<rscale>  2 0.63925560E+02</rscale>
<asrwt>0</asrwt>
<pdfrwt beam="1">  1       21 0.32537061E-01 0.63925560E+02</pdfrwt>
<pdfrwt beam="2">  1       21 0.38036105E-02 0.63925560E+02</pdfrwt>
<totfact> 0.36878367E+06</totfact>
</mgrwt>
</event>
<event>
 5    1  0.1696945E+000  0.7634921E+02  0.7546771E-02  0.1339743E+00
         21   -1    0    0  503  502  0.00000000000E+00  0.00000000000E+00  0.31053666624E+02  0.31053666624E+02  0.00000000000E+00 0.  1.
         21   -1    0    0  501  503 -0.00000000000E+00 -0.00000000000E+00 -0.35492405027E+03  0.35492405027E+03  0.00000000000E+00 0. -1.
         24    1    1    2    0    0 -0.26845775858E+02  0.50742047549E+01 -0.95519168437E+02  0.12781850699E+03  0.80419002446E+02 0. -1.
          1    1    1    2  501    0  0.47168937243E+02 -0.50827221389E+01 -0.23260653480E+03  0.23739533007E+03  0.00000000000E+00 0. -1.
         -2    1    1    2    0  502 -0.20323161385E+02  0.85173840207E-02  0.42553195911E+01  0.20763879841E+02  0.00000000000E+00 0.  1.
<mgrwt>
<rscale>  2 0.76349210E+02</rscale>
<asrwt>0</asrwt>
<pdfrwt beam="1">  1       21 0.47774876E-02 0.76349210E+02</pdfrwt>
<pdfrwt beam="2">  1       21 0.54603695E-01 0.76349210E+02</pdfrwt>
<totfact> 0.91803715E+05</totfact>
</mgrwt>
</event>
<event>
 5    1  0.1696945E+000  0.7543615E+02  0.7546771E-02  0.1342526E+00
         21   -1    0    0  503  502  0.00000000000E+00  0.00000000000E+00  0.94966574519E+02  0.94966574519E+02  0.00000000000E+00 0.  1.
         21   -1    0    0  501  503 -0.00000000000E+00 -0.00000000000E+00 -0.67382433971E+02  0.67382433971E+02  0.00000000000E+00 0.  1.
         24    1    1    2    0    0  0.24293878012E+02  0.22549144126E+01  0.21023302777E+02  0.86628357724E+02  0.80419002446E+02 0.  0.
          1    1    1    2  501    0 -0.23566368126E+01  0.28753504515E+02 -0.14500007717E+02  0.32288821328E+02  0.00000000000E+00 0. -1.
         -2    1    1    2    0  502 -0.21937241199E+02 -0.31008418927E+02  0.21060845488E+02  0.43431829439E+02  0.00000000000E+00 0.  1.
<mgrwt>
<rscale>  2 0.75436150E+02</rscale>
<asrwt>0</asrwt>
<pdfrwt beam="1">  1       21 0.14610242E-01 0.75436150E+02</pdfrwt>
<pdfrwt beam="2">  1       21 0.10366528E-01 0.75436150E+02</pdfrwt>
<totfact> 0.30225471E+06</totfact>
</mgrwt>
</event>
<event>
 5    1  0.1696945E+000  0.8659072E+02  0.7546771E-02  0.1311324E+00
         21   -1    0    0  501  502  0.00000000000E+00  0.00000000000E+00  0.18042537984E+03  0.18042537984E+03  0.00000000000E+00 0. -1.
         21   -1    0    0  502  503 -0.00000000000E+00 -0.00000000000E+00 -0.13024638372E+03  0.13024638372E+03  0.00000000000E+00 0.  1.
         24    1    1    2    0    0 -0.26151174474E+02  0.30261381257E+02  0.35533586875E+02  0.96589268931E+02  0.80419002446E+02 0. -1.
          1    1    1    2  501    0  0.74133911497E+01 -0.53218555172E+02  0.10556632985E+03  0.11845430757E+03  0.00000000000E+00 0. -1.
         -2    1    1    2    0  503  0.18737783325E+02  0.22957173914E+02 -0.90920920604E+02  0.95628187066E+02  0.00000000000E+00 0.  1.
<mgrwt>
<rscale>  2 0.86590718E+02</rscale>
<asrwt>0</asrwt>
<pdfrwt beam="1">  1       21 0.27757751E-01 0.86590718E+02</pdfrwt>
<pdfrwt beam="2">  1       21 0.20037905E-01 0.86590718E+02</pdfrwt>
<totfact> 0.29116037E+05</totfact>
</mgrwt>
</event>
<event>
 5    1  0.1696945E+000  0.8607626E+02  0.7546771E-02  0.1312642E+00
         21   -1    0    0  503  502  0.00000000000E+00  0.00000000000E+00  0.17240155333E+03  0.17240155333E+03  0.00000000000E+00 0.  1.
         21   -1    0    0  501  503 -0.00000000000E+00 -0.00000000000E+00 -0.89637142324E+02  0.89637142324E+02  0.00000000000E+00 0.  1.
         24    1    1    2    0    0 -0.15402108814E+02 -0.38243473134E+02 -0.46118680723E+02  0.10145904030E+03  0.80419002446E+02 0.  1.
          1    1    1    2  501    0 -0.17909708024E+02  0.44426166377E+02  0.31144052279E+02  0.57134874577E+02  0.00000000000E+00 0. -1.
         -2    1    1    2    0  502  0.33311816839E+02 -0.61826932438E+01  0.97739039449E+02  0.10344478077E+03  0.00000000000E+00 0.  1.
<mgrwt>
<rscale>  2 0.86076263E+02</rscale>
<asrwt>0</asrwt>
<pdfrwt beam="1">  1       21 0.26523316E-01 0.86076263E+02</pdfrwt>
<pdfrwt beam="2">  1       21 0.13790330E-01 0.86076263E+02</pdfrwt>
<totfact> 0.62126234E+05</totfact>
</mgrwt>
</event>
<event>
 5    1  0.1696945E+000  0.6408153E+02  0.7546771E-02  0.1381460E+00
         21   -1    0    0  501  502  0.00000000000E+00  0.00000000000E+00  0.27582507262E+03  0.27582507262E+03  0.00000000000E+00 0. -1.
         21   -1    0    0  502  503 -0.00000000000E+00 -0.00000000000E+00 -0.17115695031E+02  0.17115695031E+02  0.00000000000E+00 0. -1.
         24    1    1    2    0    0  0.83260809923E+00  0.22112551425E+02  0.12303189479E+03  0.14863956827E+03  0.80419002446E+02 0. -1.
          1    1    1    2  501    0  0.18577975558E+02 -0.15667695399E+02  0.10237225882E+03  0.10521738084E+03  0.00000000000E+00 0. -1.
         -2    1    1    2    0  503 -0.19410583657E+02 -0.64448560252E+01  0.33305223983E+02  0.39083818540E+02  0.00000000000E+00 0.  1.
<mgrwt>
<rscale>  2 0.64081531E+02</rscale>
<asrwt>0</asrwt>
<pdfrwt beam="1">  1       21 0.42434623E-01 0.64081531E+02</pdfrwt>
<pdfrwt beam="2">  1       21 0.26331841E-02 0.64081531E+02</pdfrwt>
<totfact> 0.39899683E+06</totfact>
</mgrwt>
</event>
<event>
 5    1  0.1696945E+000  0.7088726E+02  0.7546771E-02  0.1357102E+00
         21   -1    0    0  501  502  0.00000000000E+00  0.00000000000E+00  0.33501236666E+02  0.33501236666E+02  0.00000000000E+00 0. -1.
         21   -1    0    0  502  503 -0.00000000000E+00 -0.00000000000E+00 -0.26323247028E+03  0.26323247028E+03  0.00000000000E+00 0. -1.
         24    1    1    2    0    0  0.18228704136E+02 -0.12046584319E+02 -0.22179235599E+03  0.23693136344E+03  0.80419002446E+02 0. -1.
          1    1    1    2  501    0 -0.30889119047E+02 -0.10464125637E+02  0.54473516618E+00  0.32617975677E+02  0.00000000000E+00 0. -1.
         -2    1    1    2    0  503  0.12660414911E+02  0.22510709956E+02 -0.84836127849E+01  0.27184367830E+02  0.00000000000E+00 0.  1.
<mgrwt>
<rscale>  2 0.70887260E+02</rscale>
<asrwt>0</asrwt>
<pdfrwt beam="1">  1       21 0.51540365E-02 0.70887260E+02</pdfrwt>
<pdfrwt beam="2">  1       21 0.40497302E-01 0.70887260E+02</pdfrwt>
<totfact> 0.14741030E+06</totfact>
</mgrwt>
</event>
<event>
 5    1  0.1696945E+000  0.1095529E+03  0.7546771E-02  0.1261400E+00
         21   -1    0    0  503  502  0.00000000000E+00  0.00000000000E+00  0.16161396919E+04  0.16161396919E+04  0.00000000000E+00 0.  1.
         21   -1    0    0  501  503 -0.00000000000E+00 -0.00000000000E+00 -0.11072936442E+02  0.11072936442E+02  0.00000000000E+00 0. -1.
         24    1    1    2    0    0  0.42318921205E+02 -0.40718456273E+02  0.60086497355E+03  0.60906060139E+03  0.80419002446E+02 0. -1.
          1    1    1    2  501    0 -0.65951057135E+02  0.59897169019E+02  0.29173046202E+03  0.30503094148E+03  0.00000000000E+00 0. -1.
         -2    1    1    2    0  502  0.23632135930E+02 -0.19178712746E+02  0.71247131986E+03  0.71312108544E+03  0.00000000000E+00 0.  1.
<mgrwt>
<rscale>  2 0.10955292E+03</rscale>
<asrwt>0</asrwt>
<pdfrwt beam="1">  1       21 0.24863669E+00 0.10955292E+03</pdfrwt>
<pdfrwt beam="2">  1       21 0.17035300E-02 0.10955292E+03</pdfrwt>
<totfact> 0.11549554E+05</totfact>
</mgrwt>
</event>
<event>
 5    1  0.1696945E+000  0.9049818E+02  0.7546771E-02  0.1301650E+00
         21   -1    0    0  501  502  0.00000000000E+00  0.00000000000E+00  0.78999773892E+03  0.78999773892E+03  0.00000000000E+00 0.  1.
         21   -1    0    0  502  503 -0.00000000000E+00 -0.00000000000E+00 -0.10607206831E+02  0.10607206831E+02  0.00000000000E+00 0. -1.
         24    1    1    2    0    0 -0.27724935363E+02 -0.88329029839E+01  0.35807824644E+03  0.36814934299E+03  0.80419002446E+02 0.  1.
          1    1    1    2  501    0  0.52450951229E+02  0.32124039158E+02  0.31131694350E+03  0.31733467426E+03  0.00000000000E+00 0. -1.
         -2    1    1    2    0  503 -0.24726015865E+02 -0.23291136174E+02  0.10999534215E+03  0.11512092850E+03  0.00000000000E+00 0.  1.
<mgrwt>
<rscale>  2 0.90498177E+02</rscale>
<asrwt>0</asrwt>
<pdfrwt beam="1">  1       21 0.12153807E+00 0.90498177E+02</pdfrwt>
<pdfrwt beam="2">  1       21 0.16318786E-02 0.90498177E+02</pdfrwt>
<totfact> 0.88564103E+05</totfact>
</mgrwt>
</event>
<event>
 5    1  0.1696945E+000  0.6702777E+02  0.7546771E-02  0.1370502E+00
         21   -1    0    0  503  502  0.00000000000E+00  0.00000000000E+00  0.44585299856E+02  0.44585299856E+02  0.00000000000E+00 0. -1.
         21   -1    0    0  501  503 -0.00000000000E+00 -0.00000000000E+00 -0.14192420191E+03  0.14192420191E+03  0.00000000000E+00 0.  1.
         24    1    1    2    0    0  0.12475640658E+02  0.39308863184E+00 -0.38858884996E+02  0.90183285735E+02  0.80419002446E+02 0.  0.
          1    1    1    2  501    0 -0.56690651965E+01 -0.25776990326E+02 -0.64214782926E+02  0.69427155182E+02  0.00000000000E+00 0. -1.
         -2    1    1    2    0  502 -0.68065754618E+01  0.25383901694E+02  0.57347658722E+01  0.26899060845E+02  0.00000000000E+00 0.  1.
<mgrwt>
<rscale>  2 0.67027774E+02</rscale>
<asrwt>0</asrwt>
<pdfrwt beam="1">  1       21 0.68592768E-02 0.67027774E+02</pdfrwt>
<pdfrwt beam="2">  1       21 0.21834493E-01 0.67027774E+02</pdfrwt>
<totfact> 0.29411117E+06</totfact>
</mgrwt>
</event>
<event>
 5    1  0.1696945E+000  0.7418447E+02  0.7546771E-02  0.1346415E+00
         21   -1    0    0  501  502  0.00000000000E+00  0.00000000000E+00  0.20182637730E+02  0.20182637730E+02  0.00000000000E+00 0. -1.
         21   -1    0    0  502  503 -0.00000000000E+00 -0.00000000000E+00 -0.51678255987E+03  0.51678255987E+03  0.00000000000E+00 0.  1.
         24    1    1    2    0    0 -0.17439920249E+02  0.62927001402E+01 -0.10217771404E+03  0.13134401431E+03  0.80419002446E+02 0. -1.
          1    1    1    2  501    0  0.14963334377E+02 -0.34457858364E+02 -0.65672887545E+02  0.75658268135E+02  0.00000000000E+00 0. -1.
         -2    1    1    2    0  503  0.24765858712E+01  0.28165158223E+02 -0.32874932056E+03  0.32996291516E+03  0.00000000000E+00 0.  1.
<mgrwt>
<rscale>  2 0.74184474E+02</rscale>
<asrwt>0</asrwt>
<pdfrwt beam="1">  1       21 0.31050211E-02 0.74184474E+02</pdfrwt>
<pdfrwt beam="2">  1       21 0.79505010E-01 0.74184474E+02</pdfrwt>
<totfact> 0.83608398E+05</totfact>
</mgrwt>
</event>
<event>
 5    1  0.1696945E+000  0.9296134E+02  0.7546771E-02  0.1295835E+00
         21   -1    0    0  501  502  0.00000000000E+00  0.00000000000E+00  0.18749811042E+02  0.18749811042E+02  0.00000000000E+00 0. -1.
         21   -1    0    0  502  503 -0.00000000000E+00 -0.00000000000E+00 -0.50071742446E+03  0.50071742446E+03  0.00000000000E+00 0.  1.
         24    1    1    2    0    0  0.21489537311E+02  0.14060759626E+02 -0.19096692188E+03  0.20879436387E+03  0.80419002446E+02 0.  0.
          1    1    1    2  501    0 -0.24003752655E+02  0.40395171312E+02 -0.80333808470E+02  0.93067023107E+02  0.00000000000E+00 0. -1.
         -2    1    1    2    0  503  0.25142153445E+01 -0.54455930937E+02 -0.21066688307E+03  0.21760584853E+03  0.00000000000E+00 0.  1.
<mgrwt>
<rscale>  2 0.92961339E+02</rscale>
<asrwt>0</asrwt>
<pdfrwt beam="1">  1       21 0.28845862E-02 0.92961339E+02</pdfrwt>
<pdfrwt beam="2">  1       21 0.77033453E-01 0.92961339E+02</pdfrwt>
<totfact> 0.10126146E+06</totfact>
</mgrwt>
</event>
<event>
 5    1  0.1696945E+000  0.8815186E+02  0.7546771E-02  0.1307390E+00
         21   -1    0    0  503  502  0.00000000000E+00  0.00000000000E+00  0.90382637315E+02  0.90382637315E+02  0.00000000000E+00 0.  1.
         21   -1    0    0  501  503 -0.00000000000E+00 -0.00000000000E+00 -0.10962029518E+03  0.10962029518E+03  0.00000000000E+00 0. -1.
         24    1    1    2    0    0 -0.37712953117E+02 -0.23465189244E+02 -0.55992273012E+02  0.10758825461E+03  0.80419002446E+02 0. -1.
          1    1    1    2  501    0 -0.21682303708E+02  0.72958209421E+01  0.62567501558E+01  0.23717044922E+02  0.00000000000E+00 0. -1.
         -2    1    1    2    0  502  0.59395256825E+02  0.16169368302E+02  0.30497864995E+02  0.68697632957E+02  0.00000000000E+00 0.  1.
<mgrwt>
<rscale>  2 0.88151861E+02</rscale>
<asrwt>0</asrwt>
<pdfrwt beam="1">  1       21 0.13905021E-01 0.88151861E+02</pdfrwt>
<pdfrwt beam="2">  1       21 0.16864661E-01 0.88151861E+02</pdfrwt>
<totfact> 0.14085741E+06</totfact>
</mgrwt>
</event>
<event>
 5    1  0.1696945E+000  0.6931987E+02  0.7546771E-02  0.1362421E+00
         21   -1    0    0  503  502  0.00000000000E+00  0.00000000000E+00  0.13076868630E+02  0.13076868630E+02  0.00000000000E+00 0.  1.
         21   -1    0    0  501  503 -0.00000000000E+00 -0.00000000000E+00 -0.53235119746E+03  0.53235119746E+03  0.00000000000E+00 0. -1.
         24    1    1    2    0    0 -0.37442660244E+02  0.29898191451E+01 -0.29968015758E+03  0.31254808370E+03  0.80419002446E+02 0. -1.
          1    1    1    2  501    0  0.14210322524E+02 -0.17459195291E+02 -0.19433915288E+03  0.19563860332E+03  0.00000000000E+00 0. -1.
         -2    1    1    2    0  502  0.23232337720E+02  0.14469376146E+02 -0.25255018369E+02  0.37241379067E+02  0.00000000000E+00 0.  1.
<mgrwt>
<rscale>  2 0.69319867E+02</rscale>
<asrwt>0</asrwt>
<pdfrwt beam="1">  1       21 0.20118260E-02 0.69319867E+02</pdfrwt>
<pdfrwt beam="2">  1       21 0.81900181E-01 0.69319867E+02</pdfrwt>
<totfact> 0.15686392E+06</totfact>
</mgrwt>
</event>
<event>
 5    1  0.1696945E+000  0.8308458E+02  0.7546771E-02  0.1320519E+00
         21   -1    0    0  503  502  0.00000000000E+00  0.00000000000E+00  0.12587304070E+02  0.12587304070E+02  0.00000000000E+00 0.  1.
         21   -1    0    0  501  503 -0.00000000000E+00 -0.00000000000E+00 -0.77259095566E+03  0.77259095566E+03  0.00000000000E+00 0.  1.
         24    1    1    2    0    0 -0.61249202639E+02  0.15403524713E+01 -0.57998935867E+03  0.58873483814E+03  0.80419002446E+02 0.  1.
          1    1    1    2  501    0  0.18114562483E+02 -0.10608604526E+02 -0.12087931756E+03  0.12268858658E+03  0.00000000000E+00 0. -1.
         -2    1    1    2    0  502  0.43134640156E+02  0.90682520545E+01 -0.59134975363E+02  0.73754835013E+02  0.00000000000E+00 0.  1.
<mgrwt>
<rscale>  2 0.83084576E+02</rscale>
<asrwt>0</asrwt>
<pdfrwt beam="1">  1       21 0.19365085E-02 0.83084576E+02</pdfrwt>
<pdfrwt beam="2">  1       21 0.11886014E+00 0.83084576E+02</pdfrwt>
<totfact> 0.71182115E+05</totfact>
</mgrwt>
</event>
<event>
 5    1  0.1696945E+000  0.6444949E+02  0.7546771E-02  0.1380054E+00
         21   -1    0    0  501  502  0.00000000000E+00  0.00000000000E+00  0.13169385974E+03  0.13169385974E+03  0.00000000000E+00 0. -1.
         21   -1    0    0  502  503 -0.00000000000E+00 -0.00000000000E+00 -0.47614517372E+02  0.47614517372E+02  0.00000000000E+00 0.  1.
         24    1    1    2    0    0  0.24274871034E+02  0.13777311837E+02  0.23389353643E+02  0.88280017577E+02  0.80419002446E+02 0.  0.
          1    1    1    2  501    0 -0.42158168625E+01 -0.21774836504E+02  0.65285613295E+02  0.68950184335E+02  0.00000000000E+00 0. -1.
         -2    1    1    2    0  503 -0.20059054172E+02  0.79975246667E+01 -0.45956245674E+01  0.22078175202E+02  0.00000000000E+00 0.  1.
<mgrwt>
<rscale>  2 0.64449489E+02</rscale>
<asrwt>0</asrwt>
<pdfrwt beam="1">  1       21 0.20260594E-01 0.64449489E+02</pdfrwt>
<pdfrwt beam="2">  1       21 0.73253104E-02 0.64449489E+02</pdfrwt>
<totfact> 0.30107026E+06</totfact>
</mgrwt>
</event>
<event>
 5    1  0.1696945E+000  0.7090932E+02  0.7546771E-02  0.1357028E+00
         21   -1    0    0  503  502  0.00000000000E+00  0.00000000000E+00  0.67845415324E+01  0.67845415324E+01  0.00000000000E+00 0.  1.
         21   -1    0    0  501  503 -0.00000000000E+00 -0.00000000000E+00 -0.80757867302E+03  0.80757867302E+03  0.00000000000E+00 0. -1.
         24    1    1    2    0    0 -0.38395353052E+02  0.41554640899E+01 -0.60593152268E+03  0.61246362925E+03  0.80419002446E+02 0.  0.
          1    1    1    2  501    0  0.17321834155E+02  0.15902038308E+02 -0.96592246305E+02  0.99413192319E+02  0.00000000000E+00 0. -1.
         -2    1    1    2    0  502  0.21073518897E+02 -0.20057502398E+02 -0.98270362504E+02  0.10248639299E+03  0.00000000000E+00 0.  1.
<mgrwt>
<rscale>  2 0.70909318E+02</rscale>
<asrwt>0</asrwt>
<pdfrwt beam="1">  1       21 0.10437751E-02 0.70909318E+02</pdfrwt>
<pdfrwt beam="2">  1       21 0.12424293E+00 0.70909318E+02</pdfrwt>
<totfact> 0.16905684E+06</totfact>
</mgrwt>
</event>
<event>
 5    1  0.1696945E+000  0.7024008E+02  0.7546771E-02  0.1359279E+00
         21   -1    0    0  501  502  0.00000000000E+00  0.00000000000E+00  0.43757951464E+02  0.43757951464E+02  0.00000000000E+00 0. -1.
         21   -1    0    0  502  503 -0.00000000000E+00 -0.00000000000E+00 -0.31490224102E+03  0.31490224102E+03  0.00000000000E+00 0. -1.
         24    1    1    2    0    0  0.10824734381E+02  0.78697816424E+01 -0.24183150398E+03  0.25520344945E+03  0.80419002446E+02 0. -1.
          1    1    1    2  501    0 -0.67368744479E+01 -0.32905422184E+02  0.26084874114E+02  0.42527319971E+02  0.00000000000E+00 0. -1.
         -2    1    1    2    0  503 -0.40878599335E+01  0.25035640541E+02 -0.55397659690E+02  0.60929423067E+02  0.00000000000E+00 0.  1.
<mgrwt>
<rscale>  2 0.70240076E+02</rscale>
<asrwt>0</asrwt>
<pdfrwt beam="1">  1       21 0.67319929E-02 0.70240076E+02</pdfrwt>
<pdfrwt beam="2">  1       21 0.48446496E-01 0.70240076E+02</pdfrwt>
<totfact> 0.66069698E+05</totfact>
</mgrwt>
</event>
<event>
 5    1  0.1696945E+000  0.7504333E+02  0.7546771E-02  0.1343737E+00
         21   -1    0    0  501  502  0.00000000000E+00  0.00000000000E+00  0.14993259535E+03  0.14993259535E+03  0.00000000000E+00 0.  1.
         21   -1    0    0  502  503 -0.00000000000E+00 -0.00000000000E+00 -0.15269733183E+03  0.15269733183E+03  0.00000000000E+00 0.  1.
         24    1    1    2    0    0 -0.22036190057E+02 -0.35317449663E+02  0.92022417767E+02  0.12910560503E+03  0.80419002446E+02 0.  1.
          1    1    1    2  501    0 -0.75807353875E+01  0.28022770526E+02  0.31949731186E+02  0.43168605951E+02  0.00000000000E+00 0. -1.
         -2    1    1    2    0  503  0.29616925445E+02  0.72946791374E+01 -0.12673688543E+03  0.13035571620E+03  0.00000000000E+00 0.  1.
<mgrwt>
<rscale>  2 0.75043331E+02</rscale>
<asrwt>0</asrwt>
<pdfrwt beam="1">  1       21 0.23066553E-01 0.75043331E+02</pdfrwt>
<pdfrwt beam="2">  1       21 0.23491897E-01 0.75043331E+02</pdfrwt>
<totfact> 0.30766138E+05</totfact>
</mgrwt>
</event>
<event>
 5    1  0.1696945E+000  0.8165421E+02  0.7546771E-02  0.1324422E+00
         21   -1    0    0  501  502  0.00000000000E+00  0.00000000000E+00  0.13635033685E+04  0.13635033685E+04  0.00000000000E+00 0. -1.
         21   -1    0    0  502  503 -0.00000000000E+00 -0.00000000000E+00 -0.88552460289E+01  0.88552460289E+01  0.00000000000E+00 0.  1.
         24    1    1    2    0    0  0.12395639145E+02 -0.45620652017E+02  0.35260291681E+03  0.36473405196E+03  0.80419002446E+02 0.  1.
          1    1    1    2  501    0 -0.23096274137E+02 -0.69964524356E-01  0.79469185608E+03  0.79502741392E+03  0.00000000000E+00 0. -1.
         -2    1    1    2    0  503  0.10700634992E+02  0.45690616541E+02  0.20735334955E+03  0.21259714861E+03  0.00000000000E+00 0.  1.
<mgrwt>
<rscale>  2 0.81654206E+02</rscale>
<asrwt>0</asrwt>
<pdfrwt beam="1">  1       21 0.20976958E+00 0.81654206E+02</pdfrwt>
<pdfrwt beam="2">  1       21 0.13623466E-02 0.81654206E+02</pdfrwt>
<totfact> 0.28383733E+05</totfact>
</mgrwt>
</event>
<event>
 5    1  0.1696945E+000  0.7526036E+02  0.7546771E-02  0.1343067E+00
         21   -1    0    0  503  502  0.00000000000E+00  0.00000000000E+00  0.14334896390E+02  0.14334896390E+02  0.00000000000E+00 0. -1.
         21   -1    0    0  501  503 -0.00000000000E+00 -0.00000000000E+00 -0.60224798668E+03  0.60224798668E+03  0.00000000000E+00 0.  1.
         24    1    1    2    0    0 -0.27379229825E+01  0.45167616331E+02 -0.20291537183E+03  0.22291135876E+03  0.80419002446E+02 0. -1.
          1    1    1    2  501    0 -0.14990176905E+02 -0.34346523820E+02 -0.35619673705E+03  0.35816267894E+03  0.00000000000E+00 0. -1.
         -2    1    1    2    0  502  0.17728099887E+02 -0.10821092512E+02 -0.28800981413E+02  0.35508845364E+02  0.00000000000E+00 0.  1.
<mgrwt>
<rscale>  2 0.75260360E+02</rscale>
<asrwt>0</asrwt>
<pdfrwt beam="1">  1       21 0.22053689E-02 0.75260360E+02</pdfrwt>
<pdfrwt beam="2">  1       21 0.92653525E-01 0.75260360E+02</pdfrwt>
<totfact> 0.10314404E+06</totfact>
</mgrwt>
</event>
<event>
 5    1  0.1696945E+000  0.9358801E+02  0.7546771E-02  0.1294388E+00
         21   -1    0    0  503  502  0.00000000000E+00  0.00000000000E+00  0.13728705226E+03  0.13728705226E+03  0.00000000000E+00 0.  1.
         21   -1    0    0  501  503 -0.00000000000E+00 -0.00000000000E+00 -0.14781269446E+03  0.14781269446E+03  0.00000000000E+00 0.  1.
         24    1    1    2    0    0 -0.44862215419E+02 -0.65867813123E+01  0.25255712635E+02  0.95713484084E+02  0.80419002446E+02 0.  1.
          1    1    1    2  501    0 -0.70911428209E+01 -0.30312609884E+02 -0.96481336399E+02  0.10137942048E+03  0.00000000000E+00 0. -1.
         -2    1    1    2    0  502  0.51953358240E+02  0.36899391196E+02  0.60699981564E+02  0.88006842148E+02  0.00000000000E+00 0.  1.
<mgrwt>
<rscale>  2 0.93588015E+02</rscale>
<asrwt>0</asrwt>
<pdfrwt beam="1">  1       21 0.21121085E-01 0.93588015E+02</pdfrwt>
<pdfrwt beam="2">  1       21 0.22740415E-01 0.93588015E+02</pdfrwt>
<totfact> 0.38360168E+05</totfact>
</mgrwt>
</event>
<event>
 5    1  0.1696945E+000  0.1482681E+03  0.7546771E-02  0.1202617E+00
         21   -1    0    0  503  502  0.00000000000E+00  0.00000000000E+00  0.14977882208E+03  0.14977882208E+03  0.00000000000E+00 0.  1.
         21   -1    0    0  501  503 -0.00000000000E+00 -0.00000000000E+00 -0.19162669915E+03  0.19162669915E+03  0.00000000000E+00 0. -1.
         24    1    1    2    0    0  0.41789193354E+02  0.11602626513E+03 -0.12298178666E+02  0.14773927045E+03  0.80419002446E+02 0.  1.
          1    1    1    2  501    0  0.24612399162E+02 -0.16375847010E+02 -0.62781469736E+02  0.69393454302E+02  0.00000000000E+00 0. -1.
         -2    1    1    2    0  502 -0.66401592515E+02 -0.99650418117E+02  0.33231771332E+02  0.12427279648E+03  0.00000000000E+00 0.  1.
<mgrwt>
<rscale>  2 0.14826805E+03</rscale>
<asrwt>0</asrwt>
<pdfrwt beam="1">  1       21 0.23042896E-01 0.14826805E+03</pdfrwt>
<pdfrwt beam="2">  1       21 0.29481030E-01 0.14826805E+03</pdfrwt>
<totfact> 0.19742928E+05</totfact>
</mgrwt>
</event>
<event>
 5    1  0.1696945E+000  0.6797424E+02  0.7546771E-02  0.1367120E+00
         21   -1    0    0  501  502  0.00000000000E+00  0.00000000000E+00  0.14694812614E+03  0.14694812614E+03  0.00000000000E+00 0. -1.
         21   -1    0    0  502  503 -0.00000000000E+00 -0.00000000000E+00 -0.94272953397E+02  0.94272953397E+02  0.00000000000E+00 0.  1.
         24    1    1    2    0    0  0.14735118294E+02 -0.33439694363E+02  0.18481078539E+02  0.90244684545E+02  0.80419002446E+02 0.  0.
          1    1    1    2  501    0 -0.21664069144E+02  0.11333069602E+02  0.88563812936E+02  0.91876652748E+02  0.00000000000E+00 0. -1.
         -2    1    1    2    0  503  0.69289508492E+01  0.22106624761E+02 -0.54369718733E+02  0.59099742244E+02  0.00000000000E+00 0.  1.
<mgrwt>
<rscale>  2 0.67974237E+02</rscale>
<asrwt>0</asrwt>
<pdfrwt beam="1">  1       21 0.22607404E-01 0.67974237E+02</pdfrwt>
<pdfrwt beam="2">  1       21 0.14503531E-01 0.67974237E+02</pdfrwt>
<totfact> 0.76205674E+05</totfact>
</mgrwt>
</event>
<event>
 5    1  0.1696945E+000  0.6192435E+02  0.7546771E-02  0.1389929E+00
         21   -1    0    0  501  502  0.00000000000E+00  0.00000000000E+00  0.23775881087E+03  0.23775881087E+03  0.00000000000E+00 0.  1.
         21   -1    0    0  502  503 -0.00000000000E+00 -0.00000000000E+00 -0.32615199902E+02  0.32615199902E+02  0.00000000000E+00 0.  1.
         24    1    1    2    0    0  0.21803153734E+02 -0.46008517540E+01  0.77596424381E+02  0.11395159666E+03  0.80419002446E+02 0.  1.
          1    1    1    2  501    0 -0.14056964745E+02 -0.14251643872E+02  0.13365448682E+03  0.13514521619E+03  0.00000000000E+00 0. -1.
         -2    1    1    2    0  503 -0.77461889885E+01  0.18852495626E+02 -0.61073002409E+01  0.21277197922E+02  0.00000000000E+00 0.  1.
<mgrwt>
<rscale>  2 0.61924346E+02</rscale>
<asrwt>0</asrwt>
<pdfrwt beam="1">  1       21 0.36578277E-01 0.61924346E+02</pdfrwt>
<pdfrwt beam="2">  1       21 0.50177232E-02 0.61924346E+02</pdfrwt>
<totfact> 0.18681103E+06</totfact>
</mgrwt>
</event>
<event>
 5    1  0.1696945E+000  0.1230467E+03  0.7546771E-02  0.1238154E+00
         21   -1    0    0  501  502  0.00000000000E+00  0.00000000000E+00  0.78945766745E+02  0.78945766745E+02  0.00000000000E+00 0. -1.
         21   -1    0    0  502  503 -0.00000000000E+00 -0.00000000000E+00 -0.10787502142E+04  0.10787502142E+04  0.00000000000E+00 0.  1.
         24    1    1    2    0    0  0.70080638462E+02  0.10076361115E+02 -0.42887825088E+03  0.44205949710E+03  0.80419002446E+02 0.  1.
          1    1    1    2  501    0 -0.73102302292E+02  0.43646399380E+02  0.45724923004E+02  0.96642244195E+02  0.00000000000E+00 0. -1.
         -2    1    1    2    0  503  0.30216638304E+01 -0.53722760494E+02 -0.61665111956E+03  0.61899423963E+03  0.00000000000E+00 0.  1.
<mgrwt>
<rscale>  2 0.12304672E+03</rscale>
<asrwt>0</asrwt>
<pdfrwt beam="1">  1       21 0.12145503E-01 0.12304672E+03</pdfrwt>
<pdfrwt beam="2">  1       21 0.16596157E+00 0.12304672E+03</pdfrwt>
<totfact> 0.13885136E+04</totfact>
</mgrwt>
</event>
<event>
 5    1  0.1696945E+000  0.9950607E+02  0.7546771E-02  0.1281338E+00
         21   -1    0    0  501  502  0.00000000000E+00  0.00000000000E+00  0.19320663948E+03  0.19320663948E+03  0.00000000000E+00 0. -1.
         21   -1    0    0  502  503 -0.00000000000E+00 -0.00000000000E+00 -0.91910706623E+02  0.91910706623E+02  0.00000000000E+00 0. -1.
         24    1    1    2    0    0 -0.27338914859E+02 -0.61059391930E+02 -0.66041464180E+01  0.10481648874E+03  0.80419002446E+02 0. -1.
          1    1    1    2  501    0  0.49225951279E+02  0.48808754419E+02  0.12970377782E+03  0.14706651137E+03  0.00000000000E+00 0. -1.
         -2    1    1    2    0  503 -0.21887036419E+02  0.12250637510E+02 -0.21803698545E+02  0.33234345982E+02  0.00000000000E+00 0.  1.
<mgrwt>
<rscale>  2 0.99506068E+02</rscale>
<asrwt>0</asrwt>
<pdfrwt beam="1">  1       21 0.29724098E-01 0.99506068E+02</pdfrwt>
<pdfrwt beam="2">  1       21 0.14140109E-01 0.99506068E+02</pdfrwt>
<totfact> 0.47881332E+05</totfact>
</mgrwt>
</event>
<event>
 5    1  0.1696945E+000  0.6366174E+02  0.7546771E-02  0.1383077E+00
         21   -1    0    0  501  502  0.00000000000E+00  0.00000000000E+00  0.10560193085E+04  0.10560193085E+04  0.00000000000E+00 0.  1.
         21   -1    0    0  502  503 -0.00000000000E+00 -0.00000000000E+00 -0.46695335948E+01  0.46695335948E+01  0.00000000000E+00 0. -1.
         24    1    1    2    0    0  0.80395402960E+01 -0.23241534906E+01  0.54312843518E+03  0.54911360295E+03  0.80419002446E+02 0. -1.
          1    1    1    2  501    0 -0.19770227934E+02 -0.15507078672E+02  0.42214503196E+03  0.42289213685E+03  0.00000000000E+00 0. -1.
         -2    1    1    2    0  503  0.11730687638E+02  0.17831232162E+02  0.86076307801E+02  0.88683102322E+02  0.00000000000E+00 0.  1.
<mgrwt>
<rscale>  2 0.63661739E+02</rscale>
<asrwt>0</asrwt>
<pdfrwt beam="1">  1       21 0.16246432E+00 0.63661739E+02</pdfrwt>
<pdfrwt beam="2">  1       21 0.71839063E-03 0.63661739E+02</pdfrwt>
<totfact> 0.15444746E+06</totfact>
</mgrwt>
</event>
<event>
 5    1  0.1696945E+000  0.1620033E+03  0.7546771E-02  0.1186453E+00
         21   -1    0    0  501  502  0.00000000000E+00  0.00000000000E+00  0.90236615034E+03  0.90236615034E+03  0.00000000000E+00 0. -1.
         21   -1    0    0  502  503 -0.00000000000E+00 -0.00000000000E+00 -0.44142487221E+02  0.44142487221E+02  0.00000000000E+00 0.  1.
         24    1    1    2    0    0 -0.12232804885E+03  0.13382899984E+02  0.67743524757E+03  0.69320197933E+03  0.80419002446E+02 0. -1.
          1    1    1    2  501    0  0.66901784901E+01 -0.54018850668E+02  0.63841775923E+02  0.83896168379E+02  0.00000000000E+00 0. -1.
         -2    1    1    2    0  503  0.11563787036E+03  0.40635950684E+02  0.11694663962E+03  0.16941048985E+03  0.00000000000E+00 0.  1.
<mgrwt>
<rscale>  2 0.16200326E+03</rscale>
<asrwt>0</asrwt>
<pdfrwt beam="1">  1       21 0.13882555E+00 0.16200326E+03</pdfrwt>
<pdfrwt beam="2">  1       21 0.67911525E-02 0.16200326E+03</pdfrwt>
<totfact> 0.59267604E+04</totfact>
</mgrwt>
</event>
<event>
 5    1  0.1696945E+000  0.9848920E+02  0.7546771E-02  0.1283505E+00
         21   -1    0    0  501  502  0.00000000000E+00  0.00000000000E+00  0.29756303061E+02  0.29756303061E+02  0.00000000000E+00 0.  1.
         21   -1    0    0  502  503 -0.00000000000E+00 -0.00000000000E+00 -0.34660036330E+03  0.34660036330E+03  0.00000000000E+00 0.  1.
         24    1    1    2    0    0  0.74740896776E+02 -0.28046093264E+02 -0.22370303261E+03  0.25076492529E+03  0.80419002446E+02 0.  1.
          1    1    1    2  501    0 -0.17750959893E+02  0.18929112820E+02 -0.22291111136E+02  0.34209670051E+02  0.00000000000E+00 0. -1.
         -2    1    1    2    0  503 -0.56989936883E+02  0.91169804444E+01 -0.70849916485E+02  0.91382071022E+02  0.00000000000E+00 0.  1.
<mgrwt>
<rscale>  2 0.98489204E+02</rscale>
<asrwt>0</asrwt>
<pdfrwt beam="1">  1       21 0.45778926E-02 0.98489204E+02</pdfrwt>
<pdfrwt beam="2">  1       21 0.53323135E-01 0.98489204E+02</pdfrwt>
<totfact> 0.10390025E+06</totfact>
</mgrwt>
</event>
<event>
 5    1  0.1696945E+000  0.7754888E+02  0.7546771E-02  0.1336155E+00
         21   -1    0    0  501  502  0.00000000000E+00  0.00000000000E+00  0.15596019531E+03  0.15596019531E+03  0.00000000000E+00 0. -1.
         21   -1    0    0  502  503 -0.00000000000E+00 -0.00000000000E+00 -0.54770135695E+02  0.54770135695E+02  0.00000000000E+00 0.  1.
         24    1    1    2    0    0 -0.56511446403E+01 -0.70886049047E+01  0.61991605379E+02  0.10194291955E+03  0.80419002446E+02 0. -1.
          1    1    1    2  501    0  0.67182343080E+01  0.40342660364E+02  0.57695026982E+02  0.70720442985E+02  0.00000000000E+00 0. -1.
         -2    1    1    2    0  503 -0.10670896677E+01 -0.33254055459E+02 -0.18496572747E+02  0.38066968467E+02  0.00000000000E+00 0.  1.
<mgrwt>
<rscale>  2 0.77548880E+02</rscale>
<asrwt>0</asrwt>
<pdfrwt beam="1">  1       21 0.23993876E-01 0.77548880E+02</pdfrwt>
<pdfrwt beam="2">  1       21 0.84261748E-02 0.77548880E+02</pdfrwt>
<totfact> 0.17586181E+06</totfact>
</mgrwt>
</event>
<event>
 5    1  0.1696945E+000  0.1313990E+03  0.7546771E-02  0.1225395E+00
         21   -1    0    0  501  502  0.00000000000E+00  0.00000000000E+00  0.29437892918E+03  0.29437892918E+03  0.00000000000E+00 0. -1.
         21   -1    0    0  502  503 -0.00000000000E+00 -0.00000000000E+00 -0.74485925449E+02  0.74485925449E+02  0.00000000000E+00 0. -1.
         24    1    1    2    0    0  0.11276764040E+03  0.29299297508E+01  0.32223432611E+02  0.14223463282E+03  0.80419002446E+02 0. -1.
          1    1    1    2  501    0 -0.82992008661E+02  0.21516765356E+02  0.14985285961E+03  0.17264566090E+03  0.00000000000E+00 0. -1.
         -2    1    1    2    0  503 -0.29775631741E+02 -0.24446695107E+02  0.37816711508E+02  0.53984560909E+02  0.00000000000E+00 0.  1.
<mgrwt>
<rscale>  2 0.13139901E+03</rscale>
<asrwt>0</asrwt>
<pdfrwt beam="1">  1       21 0.45289065E-01 0.13139901E+03</pdfrwt>
<pdfrwt beam="2">  1       21 0.11459373E-01 0.13139901E+03</pdfrwt>
<totfact> 0.30192858E+05</totfact>
</mgrwt>
</event>
<event>
 5    1  0.1696945E+000  0.9056449E+02  0.7546771E-02  0.1301490E+00
         21   -1    0    0  501  502  0.00000000000E+00  0.00000000000E+00  0.19822049673E+03  0.19822049673E+03  0.00000000000E+00 0. -1.
         21   -1    0    0  502  503 -0.00000000000E+00 -0.00000000000E+00 -0.17457500923E+03  0.17457500923E+03  0.00000000000E+00 0.  1.
         24    1    1    2    0    0  0.12494133983E+01  0.25421135135E+02 -0.35697312992E+02  0.91593172533E+02  0.80419002446E+02 0.  0.
          1    1    1    2  501    0  0.41277921511E+02  0.87840322876E+01  0.16066567377E+03  0.16611587749E+03  0.00000000000E+00 0. -1.
         -2    1    1    2    0  503 -0.42527334909E+02 -0.34205167423E+02 -0.10132287328E+03  0.11508645594E+03  0.00000000000E+00 0.  1.
<mgrwt>
<rscale>  2 0.90564493E+02</rscale>
<asrwt>0</asrwt>
<pdfrwt beam="1">  1       21 0.30495461E-01 0.90564493E+02</pdfrwt>
<pdfrwt beam="2">  1       21 0.26857694E-01 0.90564493E+02</pdfrwt>
<totfact> 0.14118650E+05</totfact>
</mgrwt>
</event>
<event>
 5    1  0.1696945E+000  0.8798832E+02  0.7546771E-02  0.1307798E+00
         21   -1    0    0  503  502  0.00000000000E+00  0.00000000000E+00  0.87632237347E+02  0.87632237347E+02  0.00000000000E+00 0.  1.
         21   -1    0    0  501  503 -0.00000000000E+00 -0.00000000000E+00 -0.26329677421E+03  0.26329677421E+03  0.00000000000E+00 0. -1.
         24    1    1    2    0    0 -0.36152895537E+02 -0.42257004515E+02 -0.21632747961E+03  0.23739730554E+03  0.80419002446E+02 0. -1.
          1    1    1    2  501    0  0.26501479872E+01  0.44542514434E+02 -0.16218638277E+02  0.47477395716E+02  0.00000000000E+00 0. -1.
         -2    1    1    2    0  502  0.33502747549E+02 -0.22855099188E+01  0.56881581029E+02  0.66054310301E+02  0.00000000000E+00 0.  1.
<mgrwt>
<rscale>  2 0.87988325E+02</rscale>
<asrwt>0</asrwt>
<pdfrwt beam="1">  1       21 0.13481883E-01 0.87988325E+02</pdfrwt>
<pdfrwt beam="2">  1       21 0.40507195E-01 0.87988325E+02</pdfrwt>
<totfact> 0.28576053E+05</totfact>
</mgrwt>
</event>
<event>
 5    1  0.1696945E+000  0.1419461E+03  0.7546771E-02  0.1210734E+00
         21   -1    0    0  503  502  0.00000000000E+00  0.00000000000E+00  0.14638448632E+03  0.14638448632E+03  0.00000000000E+00 0. -1.
         21   -1    0    0  501  503 -0.00000000000E+00 -0.00000000000E+00 -0.15780312502E+03  0.15780312502E+03  0.00000000000E+00 0.  1.
         24    1    1    2    0    0  0.92701413196E+02 -0.32466749247E+02 -0.45401402688E+02  0.13481893463E+03  0.80419002446E+02 0.  1.
          1    1    1    2  501    0 -0.12307438464E+03  0.23705711005E+02  0.33968307032E+01  0.12538262778E+03  0.00000000000E+00 0. -1.
         -2    1    1    2    0  502  0.30372971447E+02  0.87610382424E+01  0.30585933279E+02  0.43986048926E+02  0.00000000000E+00 0.  1.
<mgrwt>
<rscale>  2 0.14194610E+03</rscale>
<asrwt>0</asrwt>
<pdfrwt beam="1">  1       21 0.22520690E-01 0.14194610E+03</pdfrwt>
<pdfrwt beam="2">  1       21 0.24277404E-01 0.14194610E+03</pdfrwt>
<totfact> 0.29906919E+05</totfact>
</mgrwt>
</event>
<event>
 5    1  0.1696945E+000  0.1237234E+03  0.7546771E-02  0.1237078E+00
         21   -1    0    0  503  502  0.00000000000E+00  0.00000000000E+00  0.31406449047E+03  0.31406449047E+03  0.00000000000E+00 0.  1.
         21   -1    0    0  501  503 -0.00000000000E+00 -0.00000000000E+00 -0.89160355509E+02  0.89160355509E+02  0.00000000000E+00 0. -1.
         24    1    1    2    0    0 -0.68539003048E+02  0.60852840271E+01  0.78823320827E+02  0.13196574359E+03  0.80419002446E+02 0. -1.
          1    1    1    2  501    0  0.10371753659E+03  0.72879003868E+01 -0.15705856859E+02  0.10515281655E+03  0.00000000000E+00 0. -1.
         -2    1    1    2    0  502 -0.35178533546E+02 -0.13373184414E+02  0.16178667099E+03  0.16610628583E+03  0.00000000000E+00 0.  1.
<mgrwt>
<rscale>  2 0.12372337E+03</rscale>
<asrwt>0</asrwt>
<pdfrwt beam="1">  1       21 0.48317613E-01 0.12372337E+03</pdfrwt>
<pdfrwt beam="2">  1       21 0.13716978E-01 0.12372337E+03</pdfrwt>
<totfact> 0.19251188E+05</totfact>
</mgrwt>
</event>
<event>
 5    1  0.1696945E+000  0.7581433E+02  0.7546771E-02  0.1341368E+00
         21   -1    0    0  501  502  0.00000000000E+00  0.00000000000E+00  0.13113866406E+03  0.13113866406E+03  0.00000000000E+00 0. -1.
         21   -1    0    0  502  503 -0.00000000000E+00 -0.00000000000E+00 -0.48993713403E+02  0.48993713403E+02  0.00000000000E+00 0. -1.
         24    1    1    2    0    0  0.22870005983E+02  0.42446364346E+02  0.22586202104E+02  0.96447309448E+02  0.80419002446E+02 0. -1.
          1    1    1    2  501    0 -0.91536388651E+00 -0.34504040467E+02  0.42603239404E+02  0.54830673052E+02  0.00000000000E+00 0. -1.
         -2    1    1    2    0  503 -0.21954642097E+02 -0.79423238793E+01  0.16955509151E+02  0.28854394964E+02  0.00000000000E+00 0.  1.
<mgrwt>
<rscale>  2 0.75814329E+02</rscale>
<asrwt>0</asrwt>
<pdfrwt beam="1">  1       21 0.20175179E-01 0.75814329E+02</pdfrwt>
<pdfrwt beam="2">  1       21 0.75374944E-02 0.75814329E+02</pdfrwt>
<totfact> 0.29202394E+06</totfact>
</mgrwt>
</event>
<event>
 5    1  0.1696945E+000  0.9046282E+02  0.7546771E-02  0.1301735E+00
         21   -1    0    0  503  502  0.00000000000E+00  0.00000000000E+00  0.64942375028E+02  0.64942375028E+02  0.00000000000E+00 0.  1.
         21   -1    0    0  501  503 -0.00000000000E+00 -0.00000000000E+00 -0.60834765542E+03  0.60834765542E+03  0.00000000000E+00 0. -1.
         24    1    1    2    0    0  0.23842924465E+02  0.46253986247E+02 -0.39946066954E+02  0.10378256361E+03  0.80419002446E+02 0.  1.
          1    1    1    2  501    0  0.21380208479E+02 -0.13717755197E+01 -0.50531201152E+03  0.50576597757E+03  0.00000000000E+00 0. -1.
         -2    1    1    2    0  502 -0.45223132945E+02 -0.44882210727E+02  0.18527980777E+01  0.63741489266E+02  0.00000000000E+00 0.  1.
<mgrwt>
<rscale>  2 0.90462818E+02</rscale>
<asrwt>0</asrwt>
<pdfrwt beam="1">  1       21 0.99911344E-02 0.90462818E+02</pdfrwt>
<pdfrwt beam="2">  1       21 0.93591949E-01 0.90462818E+02</pdfrwt>
<totfact> 0.81985296E+04</totfact>
</mgrwt>
</event>
<event>
 5    1  0.1696945E+000  0.8825797E+02  0.7546771E-02  0.1307126E+00
         21   -1    0    0  503  502  0.00000000000E+00  0.00000000000E+00  0.23442222315E+02  0.23442222315E+02  0.00000000000E+00 0. -1.
         21   -1    0    0  501  503 -0.00000000000E+00 -0.00000000000E+00 -0.42117178526E+03  0.42117178526E+03  0.00000000000E+00 0.  1.
         24    1    1    2    0    0  0.63912447897E+02  0.27623698665E+02 -0.32507928358E+03  0.34204038693E+03  0.80419002446E+02 0.  1.
          1    1    1    2  501    0 -0.25075214398E+02 -0.15406502263E+02 -0.43419005404E+02  0.52453185979E+02  0.00000000000E+00 0. -1.
         -2    1    1    2    0  502 -0.38837233499E+02 -0.12217196402E+02 -0.29231273962E+02  0.50120434667E+02  0.00000000000E+00 0.  1.
<mgrwt>
<rscale>  2 0.88257970E+02</rscale>
<asrwt>0</asrwt>
<pdfrwt beam="1">  1       21 0.36064955E-02 0.88257970E+02</pdfrwt>
<pdfrwt beam="2">  1       21 0.64795664E-01 0.88257970E+02</pdfrwt>
<totfact> 0.10216498E+06</totfact>
</mgrwt>
</event>
<event>
 5    1  0.1696945E+000  0.7910536E+02  0.7546771E-02  0.1331610E+00
         21   -1    0    0  501  502  0.00000000000E+00  0.00000000000E+00  0.14102232038E+03  0.14102232038E+03  0.00000000000E+00 0. -1.
         21   -1    0    0  502  503 -0.00000000000E+00 -0.00000000000E+00 -0.46714492456E+02  0.46714492456E+02  0.00000000000E+00 0. -1.
         24    1    1    2    0    0  0.17349927496E+02  0.39539076884E+02  0.38086437377E+02  0.98904758487E+02  0.80419002446E+02 0. -1.
          1    1    1    2  501    0 -0.29038710077E+02 -0.37452589419E+01  0.34919101689E+02  0.45569916724E+02  0.00000000000E+00 0. -1.
         -2    1    1    2    0  503  0.11688782581E+02 -0.35793817942E+02  0.21302288856E+02  0.43262137622E+02  0.00000000000E+00 0.  1.
<mgrwt>
<rscale>  2 0.79105356E+02</rscale>
<asrwt>0</asrwt>
<pdfrwt beam="1">  1       21 0.21695741E-01 0.79105356E+02</pdfrwt>
<pdfrwt beam="2">  1       21 0.71868450E-02 0.79105356E+02</pdfrwt>
<totfact> 0.27774095E+06</totfact>
</mgrwt>
</event>
<event>
 5    1  0.1696945E+000  0.9892459E+02  0.7546771E-02  0.1282574E+00
         21   -1    0    0  503  502  0.00000000000E+00  0.00000000000E+00  0.14088295644E+03  0.14088295644E+03  0.00000000000E+00 0. -1.
         21   -1    0    0  501  503 -0.00000000000E+00 -0.00000000000E+00 -0.74795785161E+02  0.74795785161E+02  0.00000000000E+00 0.  1.
         24    1    1    2    0    0 -0.68517443109E+02  0.20100021304E+02  0.47958787747E+02  0.11775360777E+03  0.80419002446E+02 0. -1.
          1    1    1    2  501    0  0.19253486885E+02 -0.34038627168E+02 -0.87896780648E+01  0.40082207239E+02  0.00000000000E+00 0. -1.
         -2    1    1    2    0  502  0.49263956224E+02  0.13938605864E+02  0.26918061595E+02  0.57842926588E+02  0.00000000000E+00 0.  1.
<mgrwt>
<rscale>  2 0.98924588E+02</rscale>
<asrwt>0</asrwt>
<pdfrwt beam="1">  1       21 0.21674301E-01 0.98924588E+02</pdfrwt>
<pdfrwt beam="2">  1       21 0.11507044E-01 0.98924588E+02</pdfrwt>
<totfact> 0.12478926E+06</totfact>
</mgrwt>
</event>
<event>
 5    1  0.1696945E+000  0.7370825E+02  0.7546771E-02  0.1347918E+00
         21   -1    0    0  503  502  0.00000000000E+00  0.00000000000E+00  0.53199539500E+02  0.53199539500E+02  0.00000000000E+00 0.  1.
         21   -1    0    0  501  503 -0.00000000000E+00 -0.00000000000E+00 -0.15004324620E+03  0.15004324620E+03  0.00000000000E+00 0.  1.
         24    1    1    2    0    0  0.41803560881E+02  0.64498213326E+01 -0.29703449752E+02  0.95596280153E+02  0.80419002446E+02 0.  1.
          1    1    1    2  501    0 -0.13076860894E+02  0.15587325350E+02 -0.68457188323E+02  0.71416774189E+02  0.00000000000E+00 0. -1.
         -2    1    1    2    0  502 -0.28726699986E+02 -0.22037146683E+02  0.13169313749E+01  0.36229731358E+02  0.00000000000E+00 0.  1.
<mgrwt>
<rscale>  2 0.73708249E+02</rscale>
<asrwt>0</asrwt>
<pdfrwt beam="1">  1       21 0.81845446E-02 0.73708249E+02</pdfrwt>
<pdfrwt beam="2">  1       21 0.23083576E-01 0.73708249E+02</pdfrwt>
<totfact> 0.19806444E+06</totfact>
</mgrwt>
</event>
<event>
 5    1  0.1696945E+000  0.6911161E+02  0.7546771E-02  0.1363140E+00
         21   -1    0    0  503  502  0.00000000000E+00  0.00000000000E+00  0.59182143632E+03  0.59182143632E+03  0.00000000000E+00 0.  1.
         21   -1    0    0  501  503 -0.00000000000E+00 -0.00000000000E+00 -0.85845840122E+01  0.85845840122E+01  0.00000000000E+00 0.  1.
         24    1    1    2    0    0 -0.36488116758E+02  0.27241513886E+02  0.33561302091E+03  0.34810457984E+03  0.80419002446E+02 0.  1.
          1    1    1    2  501    0  0.16383948850E+02 -0.15340466098E+02  0.81166744968E+02  0.84212850378E+02  0.00000000000E+00 0. -1.
         -2    1    1    2    0  502  0.20104167908E+02 -0.11901047789E+02  0.16645708643E+03  0.16808859012E+03  0.00000000000E+00 0.  1.
<mgrwt>
<rscale>  2 0.69111606E+02</rscale>
<asrwt>0</asrwt>
<pdfrwt beam="1">  1       21 0.91049420E-01 0.69111606E+02</pdfrwt>
<pdfrwt beam="2">  1       21 0.13207057E-02 0.69111606E+02</pdfrwt>
<totfact> 0.24077196E+06</totfact>
</mgrwt>
</event>
<event>
 5    1  0.1696945E+000  0.8535063E+02  0.7546771E-02  0.1314518E+00
         21   -1    0    0  503  502  0.00000000000E+00  0.00000000000E+00  0.18470531527E+03  0.18470531527E+03  0.00000000000E+00 0.  1.
         21   -1    0    0  501  503 -0.00000000000E+00 -0.00000000000E+00 -0.49092081095E+02  0.49092081095E+02  0.00000000000E+00 0.  1.
         24    1    1    2    0    0 -0.43155780880E+02 -0.36625950646E+02  0.24838227786E+02  0.10142995217E+03  0.80419002446E+02 0.  1.
          1    1    1    2  501    0  0.26118089684E+02 -0.57002450456E+01  0.44279880148E+02  0.51723835785E+02  0.00000000000E+00 0. -1.
         -2    1    1    2    0  502  0.17037691197E+02  0.42326195692E+02  0.66495126244E+02  0.80643608409E+02  0.00000000000E+00 0.  1.
<mgrwt>
<rscale>  2 0.85350632E+02</rscale>
<asrwt>0</asrwt>
<pdfrwt beam="1">  1       21 0.28416202E-01 0.85350632E+02</pdfrwt>
<pdfrwt beam="2">  1       21 0.75526280E-02 0.85350632E+02</pdfrwt>
<totfact> 0.15485393E+06</totfact>
</mgrwt>
</event>
<event>
 5    1  0.1696945E+000  0.7383090E+02  0.7546771E-02  0.1347530E+00
         21   -1    0    0  501  502  0.00000000000E+00  0.00000000000E+00  0.98793904806E+02  0.98793904806E+02  0.00000000000E+00 0. -1.
         21   -1    0    0  502  503 -0.00000000000E+00 -0.00000000000E+00 -0.87272680679E+02  0.87272680679E+02  0.00000000000E+00 0.  1.
         24    1    1    2    0    0  0.10719438367E+02 -0.17759468053E+02  0.31239816777E+02  0.88732447115E+02  0.80419002446E+02 0.  0.
          1    1    1    2  501    0  0.20158351241E+02 -0.10521213535E+02  0.26533719204E+02  0.34944145630E+02  0.00000000000E+00 0. -1.
         -2    1    1    2    0  503 -0.30877789608E+02  0.28280681588E+02 -0.46252311854E+02  0.62389992739E+02  0.00000000000E+00 0.  1.
<mgrwt>
<rscale>  2 0.73830904E+02</rscale>
<asrwt>0</asrwt>
<pdfrwt beam="1">  1       21 0.15199062E-01 0.73830904E+02</pdfrwt>
<pdfrwt beam="2">  1       21 0.13426566E-01 0.73830904E+02</pdfrwt>
<totfact> 0.17930412E+06</totfact>
</mgrwt>
</event>
<event>
 5    1  0.1696945E+000  0.6686253E+02  0.7546771E-02  0.1371099E+00
         21   -1    0    0  501  502  0.00000000000E+00  0.00000000000E+00  0.44329409331E+01  0.44329409331E+01  0.00000000000E+00 0.  1.
         21   -1    0    0  502  503 -0.00000000000E+00 -0.00000000000E+00 -0.21342101196E+04  0.21342101196E+04  0.00000000000E+00 0.  1.
         24    1    1    2    0    0  0.13159715025E+02  0.19941654158E+02 -0.50230599299E+03  0.50926356066E+03  0.80419002446E+02 0.  1.
          1    1    1    2  501    0 -0.24235598715E+02  0.29373164319E+01 -0.17592888515E+03  0.17761465228E+03  0.00000000000E+00 0. -1.
         -2    1    1    2    0  503  0.11075883691E+02 -0.22878970589E+02 -0.14515423005E+04  0.14517648476E+04  0.00000000000E+00 0.  1.
<mgrwt>
<rscale>  2 0.66862528E+02</rscale>
<asrwt>0</asrwt>
<pdfrwt beam="1">  1       21 0.68198974E-03 0.66862528E+02</pdfrwt>
<pdfrwt beam="2">  1       21 0.32834058E+00 0.66862528E+02</pdfrwt>
<totfact> 0.18809563E+05</totfact>
</mgrwt>
</event>
<event>
 5    1  0.1696945E+000  0.7099580E+02  0.7546771E-02  0.1356739E+00
         21   -1    0    0  501  502  0.00000000000E+00  0.00000000000E+00  0.27140308775E+02  0.27140308775E+02  0.00000000000E+00 0.  1.
         21   -1    0    0  502  503 -0.00000000000E+00 -0.00000000000E+00 -0.21245612105E+03  0.21245612105E+03  0.00000000000E+00 0. -1.
         24    1    1    2    0    0 -0.18573239886E+01  0.14116366918E+02 -0.85940194412E+02  0.11855654532E+03  0.80419002446E+02 0.  0.
          1    1    1    2  501    0 -0.22690650746E+02  0.10987179690E+02 -0.14254325656E+02  0.28961518412E+02  0.00000000000E+00 0. -1.
         -2    1    1    2    0  503  0.24547974735E+02 -0.25103546608E+02 -0.85121292203E+02  0.92078366092E+02  0.00000000000E+00 0.  1.
<mgrwt>
<rscale>  2 0.70995798E+02</rscale>
<asrwt>0</asrwt>
<pdfrwt beam="1">  1       21 0.41754321E-02 0.70995798E+02</pdfrwt>
<pdfrwt beam="2">  1       21 0.32685557E-01 0.70995798E+02</pdfrwt>
<totfact> 0.31606546E+06</totfact>
</mgrwt>
</event>
<event>
 5    1  0.1696945E+000  0.9223033E+02  0.7546771E-02  0.1297539E+00
         21   -1    0    0  501  502  0.00000000000E+00  0.00000000000E+00  0.53782094333E+03  0.53782094333E+03  0.00000000000E+00 0.  1.
         21   -1    0    0  502  503 -0.00000000000E+00 -0.00000000000E+00 -0.18972024912E+02  0.18972024912E+02  0.00000000000E+00 0. -1.
         24    1    1    2    0    0 -0.40877782303E+02 -0.24580297744E+02  0.22513433803E+03  0.24377832192E+03  0.80419002446E+02 0. -1.
          1    1    1    2  501    0 -0.13438489541E+02 -0.17631988430E+02  0.17018316486E+03  0.17162106403E+03  0.00000000000E+00 0. -1.
         -2    1    1    2    0  503  0.54316271844E+02  0.42212286174E+02  0.12353141553E+03  0.14139358229E+03  0.00000000000E+00 0.  1.
<mgrwt>
<rscale>  2 0.92230331E+02</rscale>
<asrwt>0</asrwt>
<pdfrwt beam="1">  1       21 0.82741672E-01 0.92230331E+02</pdfrwt>
<pdfrwt beam="2">  1       21 0.29187735E-02 0.92230331E+02</pdfrwt>
<totfact> 0.84816715E+05</totfact>
</mgrwt>
</event>
<event>
 5    1  0.1696945E+000  0.7911970E+02  0.7546771E-02  0.1331568E+00
         21   -1    0    0  501  502  0.00000000000E+00  0.00000000000E+00  0.23362073632E+02  0.23362073632E+02  0.00000000000E+00 0.  1.
         21   -1    0    0  502  503 -0.00000000000E+00 -0.00000000000E+00 -0.28252562529E+03  0.28252562529E+03  0.00000000000E+00 0. -1.
         24    1    1    2    0    0  0.28695423624E+02  0.34544796013E+02 -0.13120329272E+03  0.16030686275E+03  0.80419002446E+02 0.  0.
          1    1    1    2  501    0 -0.14043565553E+01 -0.38525415575E+02 -0.51730649987E+02  0.64515424595E+02  0.00000000000E+00 0. -1.
         -2    1    1    2    0  503 -0.27291067069E+02  0.39806195616E+01 -0.76229608945E+02  0.81065411575E+02  0.00000000000E+00 0.  1.
<mgrwt>
<rscale>  2 0.79119701E+02</rscale>
<asrwt>0</asrwt>
<pdfrwt beam="1">  1       21 0.35941654E-02 0.79119701E+02</pdfrwt>
<pdfrwt beam="2">  1       21 0.43465478E-01 0.79119701E+02</pdfrwt>
<totfact> 0.23281405E+06</totfact>
</mgrwt>
</event>
<event>
 5    1  0.1696945E+000  0.8398175E+02  0.7546771E-02  0.1318117E+00
         21   -1    0    0  503  502  0.00000000000E+00  0.00000000000E+00  0.42396348165E+03  0.42396348165E+03  0.00000000000E+00 0.  1.
         21   -1    0    0  501  503 -0.00000000000E+00 -0.00000000000E+00 -0.37916929257E+02  0.37916929257E+02  0.00000000000E+00 0. -1.
         24    1    1    2    0    0 -0.53489893610E+02  0.35234244579E+02  0.23100751124E+03  0.25285234212E+03  0.80419002446E+02 0. -1.
          1    1    1    2  501    0  0.20256370305E+02 -0.66542633313E+01 -0.19606654547E+02  0.28965853362E+02  0.00000000000E+00 0. -1.
         -2    1    1    2    0  502  0.33233523305E+02 -0.28579981247E+02  0.17464569570E+03  0.18006221543E+03  0.00000000000E+00 0.  1.
<mgrwt>
<rscale>  2 0.83981746E+02</rscale>
<asrwt>0</asrwt>
<pdfrwt beam="1">  1       21 0.65225148E-01 0.83981746E+02</pdfrwt>
<pdfrwt beam="2">  1       21 0.58333740E-02 0.83981746E+02</pdfrwt>
<totfact> 0.45433746E+05</totfact>
</mgrwt>
</event>
<event>
 5    1  0.1696945E+000  0.7584829E+02  0.7546771E-02  0.1341264E+00
         21   -1    0    0  503  502  0.00000000000E+00  0.00000000000E+00  0.21325875390E+03  0.21325875390E+03  0.00000000000E+00 0. -1.
         21   -1    0    0  501  503 -0.00000000000E+00 -0.00000000000E+00 -0.32067018448E+02  0.32067018448E+02  0.00000000000E+00 0.  1.
         24    1    1    2    0    0 -0.10853491464E+02 -0.26855044848E+01  0.14144149431E+03  0.16308869513E+03  0.80419002446E+02 0. -1.
          1    1    1    2  501    0  0.19450272404E+02  0.33377287482E+02  0.13422225075E+02  0.40896363435E+02  0.00000000000E+00 0. -1.
         -2    1    1    2    0  502 -0.85967809399E+01 -0.30691782998E+02  0.26328016062E+02  0.41340713780E+02  0.00000000000E+00 0.  1.
<mgrwt>
<rscale>  2 0.75848293E+02</rscale>
<asrwt>0</asrwt>
<pdfrwt beam="1">  1       21 0.32809038E-01 0.75848293E+02</pdfrwt>
<pdfrwt beam="2">  1       21 0.49333876E-02 0.75848293E+02</pdfrwt>
<totfact> 0.23929772E+06</totfact>
</mgrwt>
</event>
<event>
 5    1  0.1696945E+000  0.2014840E+03  0.7546771E-02  0.1148493E+00
         21   -1    0    0  501  502  0.00000000000E+00  0.00000000000E+00  0.48063238068E+02  0.48063238068E+02  0.00000000000E+00 0. -1.
         21   -1    0    0  502  503 -0.00000000000E+00 -0.00000000000E+00 -0.13079209947E+04  0.13079209947E+04  0.00000000000E+00 0. -1.
         24    1    1    2    0    0 -0.17911420793E+03  0.38996589356E+02 -0.55363612395E+03  0.58871283930E+03  0.80419002446E+02 0. -1.
          1    1    1    2  501    0  0.16632587773E+03 -0.49227135782E+01 -0.20187941765E+03  0.26161771726E+03  0.00000000000E+00 0. -1.
         -2    1    1    2    0  503  0.12788330194E+02 -0.34073875778E+02 -0.50434221502E+03  0.50565367619E+03  0.00000000000E+00 0.  1.
<mgrwt>
<rscale>  2 0.20148395E+03</rscale>
<asrwt>0</asrwt>
<pdfrwt beam="1">  1       21 0.73943460E-02 0.20148395E+03</pdfrwt>
<pdfrwt beam="2">  1       21 0.20121857E+00 0.20148395E+03</pdfrwt>
<totfact> 0.18020618E+04</totfact>
</mgrwt>
</event>
<event>
 5    1  0.1696945E+000  0.8623990E+02  0.7546771E-02  0.1312222E+00
         21   -1    0    0  501  502  0.00000000000E+00  0.00000000000E+00  0.73934640849E+03  0.73934640849E+03  0.00000000000E+00 0. -1.
         21   -1    0    0  502  503 -0.00000000000E+00 -0.00000000000E+00 -0.10787185367E+02  0.10787185367E+02  0.00000000000E+00 0. -1.
         24    1    1    2    0    0  0.45935223745E+01  0.59944170665E+02  0.32628113779E+03  0.34138102009E+03  0.80419002446E+02 0. -1.
          1    1    1    2  501    0 -0.21867300030E+02 -0.40775624780E+02  0.27798665678E+03  0.28181095034E+03  0.00000000000E+00 0. -1.
         -2    1    1    2    0  503  0.17273777656E+02 -0.19168545885E+02  0.12429142856E+03  0.12694162343E+03  0.00000000000E+00 0.  1.
<mgrwt>
<rscale>  2 0.86239900E+02</rscale>
<asrwt>0</asrwt>
<pdfrwt beam="1">  1       21 0.11374556E+00 0.86239900E+02</pdfrwt>
<pdfrwt beam="2">  1       21 0.16595676E-02 0.86239900E+02</pdfrwt>
<totfact> 0.10101739E+06</totfact>
</mgrwt>
</event>
<event>
 5    1  0.1696945E+000  0.7418596E+02  0.7546771E-02  0.1346411E+00
         21   -1    0    0  503  502  0.00000000000E+00  0.00000000000E+00  0.34105512931E+03  0.34105512931E+03  0.00000000000E+00 0. -1.
         21   -1    0    0  501  503 -0.00000000000E+00 -0.00000000000E+00 -0.39560147956E+02  0.39560147956E+02  0.00000000000E+00 0.  1.
         24    1    1    2    0    0  0.31520990967E+02 -0.49913336528E+01  0.30178561824E+03  0.31394308658E+03  0.80419002446E+02 0. -1.
          1    1    1    2  501    0 -0.23137138338E+02 -0.23004824538E+02 -0.12580275558E+02  0.34968735402E+02  0.00000000000E+00 0. -1.
         -2    1    1    2    0  502 -0.83838526289E+01  0.27996158190E+02  0.12289638680E+02  0.31703455288E+02  0.00000000000E+00 0.  1.
<mgrwt>
<rscale>  2 0.74185962E+02</rscale>
<asrwt>0</asrwt>
<pdfrwt beam="1">  1       21 0.52470018E-01 0.74185962E+02</pdfrwt>
<pdfrwt beam="2">  1       21 0.60861768E-02 0.74185962E+02</pdfrwt>
<totfact> 0.66586137E+05</totfact>
</mgrwt>
</event>
<event>
 5    1  0.1696945E+000  0.1342983E+03  0.7546771E-02  0.1221214E+00
         21   -1    0    0  503  502  0.00000000000E+00  0.00000000000E+00  0.14959134887E+04  0.14959134887E+04  0.00000000000E+00 0. -1.
         21   -1    0    0  501  503 -0.00000000000E+00 -0.00000000000E+00 -0.19115778158E+02  0.19115778158E+02  0.00000000000E+00 0. -1.
         24    1    1    2    0    0  0.97536300290E+02  0.62017021726E+02  0.12131465091E+04  0.12212907555E+04  0.80419002446E+02 0. -1.
          1    1    1    2  501    0 -0.52254539388E+02 -0.63805607824E+02  0.14635340164E+03  0.16799110288E+03  0.00000000000E+00 0. -1.
         -2    1    1    2    0  502 -0.45281760902E+02  0.17885860985E+01  0.11729779976E+03  0.12574740848E+03  0.00000000000E+00 0.  1.
<mgrwt>
<rscale>  2 0.13429830E+03</rscale>
<asrwt>0</asrwt>
<pdfrwt beam="1">  1       21 0.23014044E+00 0.13429830E+03</pdfrwt>
<pdfrwt beam="2">  1       21 0.29408901E-02 0.13429830E+03</pdfrwt>
<totfact> 0.59694598E+04</totfact>
</mgrwt>
</event>
<event>
 5    1  0.1696945E+000  0.8869386E+02  0.7546771E-02  0.1306046E+00
         21   -1    0    0  501  502  0.00000000000E+00  0.00000000000E+00  0.28204383217E+03  0.28204383217E+03  0.00000000000E+00 0. -1.
         21   -1    0    0  502  503 -0.00000000000E+00 -0.00000000000E+00 -0.38667949204E+02  0.38667949204E+02  0.00000000000E+00 0. -1.
         24    1    1    2    0    0  0.35643506912E+02  0.73694240485E+01  0.19415150410E+03  0.21327632427E+03  0.80419002446E+02 0. -1.
          1    1    1    2  501    0 -0.60313298159E+02 -0.16951417096E+02  0.51180406286E+02  0.80897950926E+02  0.00000000000E+00 0. -1.
         -2    1    1    2    0  503  0.24669791247E+02  0.95819930477E+01 -0.19560274174E+01  0.26537506179E+02  0.00000000000E+00 0.  1.
<mgrwt>
<rscale>  2 0.88693855E+02</rscale>
<asrwt>0</asrwt>
<pdfrwt beam="1">  1       21 0.43391358E-01 0.88693855E+02</pdfrwt>
<pdfrwt beam="2">  1       21 0.59489154E-02 0.88693855E+02</pdfrwt>
<totfact> 0.10184306E+06</totfact>
</mgrwt>
</event>
<event>
 5    1  0.1696945E+000  0.6666738E+02  0.7546771E-02  0.1371807E+00
         21   -1    0    0  503  502  0.00000000000E+00  0.00000000000E+00  0.86213982895E+02  0.86213982895E+02  0.00000000000E+00 0. -1.
         21   -1    0    0  501  503 -0.00000000000E+00 -0.00000000000E+00 -0.78250912682E+02  0.78250912682E+02  0.00000000000E+00 0. -1.
         24    1    1    2    0    0 -0.26941021156E+01 -0.74440705314E+01  0.26821557130E+02  0.85142728718E+02  0.80419002446E+02 0. -1.
          1    1    1    2  501    0  0.26252241918E+02  0.11432610527E+02 -0.38785382660E+02  0.48209860996E+02  0.00000000000E+00 0. -1.
         -2    1    1    2    0  502 -0.23558139802E+02 -0.39885399956E+01  0.19926895742E+02  0.31112305864E+02  0.00000000000E+00 0.  1.
<mgrwt>
<rscale>  2 0.66667376E+02</rscale>
<asrwt>0</asrwt>
<pdfrwt beam="1">  1       21 0.13263690E-01 0.66667376E+02</pdfrwt>
<pdfrwt beam="2">  1       21 0.12038602E-01 0.66667376E+02</pdfrwt>
<totfact> 0.27446168E+06</totfact>
</mgrwt>
</event>
<event>
 5    1  0.1696945E+000  0.6519204E+02  0.7546771E-02  0.1377251E+00
         21   -1    0    0  503  502  0.00000000000E+00  0.00000000000E+00  0.52472105230E+03  0.52472105230E+03  0.00000000000E+00 0. -1.
         21   -1    0    0  501  503 -0.00000000000E+00 -0.00000000000E+00 -0.92706335277E+01  0.92706335277E+01  0.00000000000E+00 0. -1.
         24    1    1    2    0    0 -0.19657245222E+02 -0.16649576638E+01  0.37920503890E+03  0.38814025410E+03  0.80419002446E+02 0. -1.
          1    1    1    2  501    0  0.12767457671E+02  0.22371332856E+02  0.43332550115E+02  0.50410260946E+02  0.00000000000E+00 0. -1.
         -2    1    1    2    0  502  0.68897875504E+01 -0.20706375192E+02  0.92912829757E+02  0.95441170779E+02  0.00000000000E+00 0.  1.
<mgrwt>
<rscale>  2 0.65192042E+02</rscale>
<asrwt>0</asrwt>
<pdfrwt beam="1">  1       21 0.80726293E-01 0.65192042E+02</pdfrwt>
<pdfrwt beam="2">  1       21 0.14262517E-02 0.65192042E+02</pdfrwt>
<totfact> 0.27793250E+06</totfact>
</mgrwt>
</event>
<event>
 5    1  0.1696945E+000  0.1018483E+03  0.7546771E-02  0.1276457E+00
         21   -1    0    0  503  502  0.00000000000E+00  0.00000000000E+00  0.44746382096E+03  0.44746382096E+03  0.00000000000E+00 0.  1.
         21   -1    0    0  501  503 -0.00000000000E+00 -0.00000000000E+00 -0.37847863154E+02  0.37847863154E+02  0.00000000000E+00 0.  1.
         24    1    1    2    0    0  0.43014523355E+02 -0.21692943166E+02  0.29181473098E+03  0.30650266912E+03  0.80419002446E+02 0.  1.
          1    1    1    2  501    0  0.31511938444E+02  0.15641239252E+02 -0.44948628055E+01  0.35466243408E+02  0.00000000000E+00 0. -1.
         -2    1    1    2    0  502 -0.74526461799E+02  0.60517039142E+01  0.12229608963E+03  0.14334277159E+03  0.00000000000E+00 0.  1.
<mgrwt>
<rscale>  2 0.10184831E+03</rscale>
<asrwt>0</asrwt>
<pdfrwt beam="1">  1       21 0.68840584E-01 0.10184831E+03</pdfrwt>
<pdfrwt beam="2">  1       21 0.58227485E-02 0.10184831E+03</pdfrwt>
<totfact> 0.40526145E+05</totfact>
</mgrwt>
</event>
<event>
 5    1  0.1696945E+000  0.2107939E+03  0.7546771E-02  0.1140939E+00
         21   -1    0    0  503  502  0.00000000000E+00  0.00000000000E+00  0.88545752604E+02  0.88545752604E+02  0.00000000000E+00 0.  1.
         21   -1    0    0  501  503 -0.00000000000E+00 -0.00000000000E+00 -0.68095493308E+03  0.68095493308E+03  0.00000000000E+00 0. -1.
         24    1    1    2    0    0  0.37183118698E+02  0.12587002053E+03 -0.99786594814E+02  0.18344052672E+03  0.80419002446E+02 0.  1.
          1    1    1    2  501    0  0.90050370388E+02 -0.10567024345E+03 -0.41035803241E+03  0.43320778423E+03  0.00000000000E+00 0. -1.
         -2    1    1    2    0  502 -0.12723348909E+03 -0.20199777083E+02 -0.82264553255E+02  0.15285237473E+03  0.00000000000E+00 0.  1.
<mgrwt>
<rscale>  2 0.21079395E+03</rscale>
<asrwt>0</asrwt>
<pdfrwt beam="1">  1       21 0.13622424E-01 0.21079395E+03</pdfrwt>
<pdfrwt beam="2">  1       21 0.10476229E+00 0.21079395E+03</pdfrwt>
<totfact> 0.33975135E+04</totfact>
</mgrwt>
</event>
<event>
 5    1  0.1696945E+000  0.7298478E+02  0.7546771E-02  0.1350228E+00
         21   -1    0    0  503  502  0.00000000000E+00  0.00000000000E+00  0.24215620603E+02  0.24215620603E+02  0.00000000000E+00 0.  1.
         21   -1    0    0  501  503 -0.00000000000E+00 -0.00000000000E+00 -0.39405828553E+03  0.39405828553E+03  0.00000000000E+00 0. -1.
         24    1    1    2    0    0  0.23844778420E+02  0.32796285203E+01 -0.29794653590E+03  0.30954593137E+03  0.80419002446E+02 0. -1.
          1    1    1    2  501    0 -0.27756971018E+02  0.22635920554E+02 -0.74225829034E+02  0.82415459928E+02  0.00000000000E+00 0. -1.
         -2    1    1    2    0  502  0.39121925975E+01 -0.25915549075E+02  0.23297000047E+01  0.26312514834E+02  0.00000000000E+00 0.  1.
<mgrwt>
<rscale>  2 0.72984778E+02</rscale>
<asrwt>0</asrwt>
<pdfrwt beam="1">  1       21 0.37254806E-02 0.72984778E+02</pdfrwt>
<pdfrwt beam="2">  1       21 0.60624343E-01 0.72984778E+02</pdfrwt>
<totfact> 0.11105510E+06</totfact>
</mgrwt>
</event>
<event>
 5    1  0.1696945E+000  0.1091795E+03  0.7546771E-02  0.1262097E+00
         21   -1    0    0  501  502  0.00000000000E+00  0.00000000000E+00  0.86399087275E+03  0.86399087275E+03  0.00000000000E+00 0. -1.
         21   -1    0    0  502  503 -0.00000000000E+00 -0.00000000000E+00 -0.20282486764E+02  0.20282486764E+02  0.00000000000E+00 0.  1.
         24    1    1    2    0    0  0.15210251404E+01 -0.92803166775E+02  0.67761792461E+03  0.68865666989E+03  0.80419002446E+02 0. -1.
          1    1    1    2  501    0  0.91658211660E+01  0.20423504022E+02  0.77770435696E+02  0.80928193249E+02  0.00000000000E+00 0. -1.
         -2    1    1    2    0  503 -0.10686846306E+02  0.72379662753E+02  0.88320025682E+02  0.11468849637E+03  0.00000000000E+00 0.  1.
<mgrwt>
<rscale>  2 0.10917948E+03</rscale>
<asrwt>0</asrwt>
<pdfrwt beam="1">  1       21 0.13292164E+00 0.10917948E+03</pdfrwt>
<pdfrwt beam="2">  1       21 0.31203833E-02 0.10917948E+03</pdfrwt>
<totfact> 0.24925400E+05</totfact>
</mgrwt>
</event>
<event>
 5    1  0.1696945E+000  0.8280369E+02  0.7546771E-02  0.1321278E+00
         21   -1    0    0  503  502  0.00000000000E+00  0.00000000000E+00  0.59983772898E+01  0.59983772898E+01  0.00000000000E+00 0.  1.
         21   -1    0    0  501  503 -0.00000000000E+00 -0.00000000000E+00 -0.13649363494E+04  0.13649363494E+04  0.00000000000E+00 0. -1.
         24    1    1    2    0    0 -0.50186676946E+01 -0.17580659623E+02 -0.56450105220E+03  0.57049357622E+03  0.80419002446E+02 0.  0.
          1    1    1    2  501    0 -0.36796881266E+02 -0.22318879565E+01 -0.57490734551E+03  0.57608805552E+03  0.00000000000E+00 0. -1.
         -2    1    1    2    0  502  0.41815548960E+02  0.19812547579E+02 -0.21952957442E+03  0.22435309497E+03  0.00000000000E+00 0.  1.
<mgrwt>
<rscale>  2 0.82803691E+02</rscale>
<asrwt>0</asrwt>
<pdfrwt beam="1">  1       21 0.92282663E-03 0.82803691E+02</pdfrwt>
<pdfrwt beam="2">  1       21 0.20999035E+00 0.82803691E+02</pdfrwt>
<totfact> 0.52018202E+05</totfact>
</mgrwt>
</event>
<event>
 5    1  0.1696945E+000  0.7902987E+02  0.7546771E-02  0.1331827E+00
         21   -1    0    0  503  502  0.00000000000E+00  0.00000000000E+00  0.27879682771E+03  0.27879682771E+03  0.00000000000E+00 0. -1.
         21   -1    0    0  501  503 -0.00000000000E+00 -0.00000000000E+00 -0.41423948278E+02  0.41423948278E+02  0.00000000000E+00 0.  1.
         24    1    1    2    0    0  0.16617769520E+02 -0.34179800586E+02  0.82809582472E+02  0.12152798828E+03  0.80419002446E+02 0.  0.
          1    1    1    2  501    0 -0.38323967025E+02  0.20622815305E+02  0.15436235405E+01  0.43547786778E+02  0.00000000000E+00 0. -1.
         -2    1    1    2    0  502  0.21706197505E+02  0.13556985281E+02  0.15301967342E+03  0.15514500093E+03  0.00000000000E+00 0.  1.
<mgrwt>
<rscale>  2 0.79029872E+02</rscale>
<asrwt>0</asrwt>
<pdfrwt beam="1">  1       21 0.42891818E-01 0.79029872E+02</pdfrwt>
<pdfrwt beam="2">  1       21 0.63729153E-02 0.79029872E+02</pdfrwt>
<totfact> 0.92639464E+05</totfact>
</mgrwt>
</event>
<event>
 5    1  0.1696945E+000  0.8506466E+02  0.7546771E-02  0.1315264E+00
         21   -1    0    0  503  502  0.00000000000E+00  0.00000000000E+00  0.19209156030E+03  0.19209156030E+03  0.00000000000E+00 0.  1.
         21   -1    0    0  501  503 -0.00000000000E+00 -0.00000000000E+00 -0.26804405126E+03  0.26804405126E+03  0.00000000000E+00 0. -1.
         24    1    1    2    0    0 -0.49057889569E+02  0.14957728259E+02 -0.31414471388E+02  0.10042158697E+03  0.80419002446E+02 0. -1.
          1    1    1    2  501    0  0.33182321296E+02 -0.35626430498E+02 -0.19808020735E+03  0.20397567879E+03  0.00000000000E+00 0. -1.
         -2    1    1    2    0  502  0.15875568272E+02  0.20668702239E+02  0.15354218778E+03  0.15573834579E+03  0.00000000000E+00 0.  1.
<mgrwt>
<rscale>  2 0.85064658E+02</rscale>
<asrwt>0</asrwt>
<pdfrwt beam="1">  1       21 0.29552548E-01 0.85064658E+02</pdfrwt>
<pdfrwt beam="2">  1       21 0.41237546E-01 0.85064658E+02</pdfrwt>
<totfact> 0.65648756E+04</totfact>
</mgrwt>
</event>
<event>
 5    1  0.1696945E+000  0.6569673E+02  0.7546771E-02  0.1375370E+00
         21   -1    0    0  501  502  0.00000000000E+00  0.00000000000E+00  0.15006549518E+03  0.15006549518E+03  0.00000000000E+00 0.  1.
         21   -1    0    0  502  503 -0.00000000000E+00 -0.00000000000E+00 -0.14188625674E+03  0.14188625674E+03  0.00000000000E+00 0.  1.
         24    1    1    2    0    0 -0.23788320806E+02 -0.13871924697E+02  0.11785206697E+03  0.14530877518E+03  0.80419002446E+02 0.  1.
          1    1    1    2  501    0  0.50746651632E+01  0.24397508803E+02  0.86573487620E+01  0.26380681377E+02  0.00000000000E+00 0. -1.
         -2    1    1    2    0  503  0.18713655643E+02 -0.10525584107E+02 -0.11833017729E+03  0.12026229536E+03  0.00000000000E+00 0.  1.
<mgrwt>
<rscale>  2 0.65696727E+02</rscale>
<asrwt>0</asrwt>
<pdfrwt beam="1">  1       21 0.23086999E-01 0.65696727E+02</pdfrwt>
<pdfrwt beam="2">  1       21 0.21828655E-01 0.65696727E+02</pdfrwt>
<totfact> 0.35178519E+05</totfact>
</mgrwt>
</event>
<event>
 5    1  0.1696945E+000  0.8196846E+02  0.7546771E-02  0.1323556E+00
         21   -1    0    0  503  502  0.00000000000E+00  0.00000000000E+00  0.44580639817E+02  0.44580639817E+02  0.00000000000E+00 0.  1.
         21   -1    0    0  501  503 -0.00000000000E+00 -0.00000000000E+00 -0.34226179205E+03  0.34226179205E+03  0.00000000000E+00 0.  1.
         24    1    1    2    0    0  0.99024483855E+01 -0.29667566665E+02 -0.29150780141E+03  0.30401025843E+03  0.80419002446E+02 0.  1.
          1    1    1    2  501    0 -0.38778598157E+02  0.39454294067E+01 -0.17221588632E+02  0.42613720833E+02  0.00000000000E+00 0. -1.
         -2    1    1    2    0  502  0.28876149771E+02  0.25722137258E+02  0.11048237810E+02  0.40218452599E+02  0.00000000000E+00 0.  1.
<mgrwt>
<rscale>  2 0.81968465E+02</rscale>
<asrwt>0</asrwt>
<pdfrwt beam="1">  1       21 0.68585601E-02 0.81968465E+02</pdfrwt>
<pdfrwt beam="2">  1       21 0.52655659E-01 0.81968465E+02</pdfrwt>
<totfact> 0.54114229E+05</totfact>
</mgrwt>
</event>
<event>
 5    1  0.1696945E+000  0.1068064E+03  0.7546771E-02  0.1266601E+00
         21   -1    0    0  501  502  0.00000000000E+00  0.00000000000E+00  0.17601856456E+03  0.17601856456E+03  0.00000000000E+00 0. -1.
         21   -1    0    0  502  503 -0.00000000000E+00 -0.00000000000E+00 -0.13716193440E+03  0.13716193440E+03  0.00000000000E+00 0. -1.
         24    1    1    2    0    0  0.62175380939E+02  0.24382512001E+02 -0.83047048555E+02  0.13350772680E+03  0.80419002446E+02 0. -1.
          1    1    1    2  501    0 -0.79640950455E+02 -0.36715826248E+02  0.12999632797E+03  0.15681128203E+03  0.00000000000E+00 0. -1.
         -2    1    1    2    0  503  0.17465569516E+02  0.12333314248E+02 -0.80926492603E+01  0.22861490129E+02  0.00000000000E+00 0.  1.
<mgrwt>
<rscale>  2 0.10680637E+03</rscale>
<asrwt>0</asrwt>
<pdfrwt beam="1">  1       21 0.27079779E-01 0.10680637E+03</pdfrwt>
<pdfrwt beam="2">  1       21 0.21101836E-01 0.10680637E+03</pdfrwt>
<totfact> 0.27637549E+05</totfact>
</mgrwt>
</event>
<event>
 5    1  0.1696945E+000  0.7112272E+02  0.7546771E-02  0.1356316E+00
         21   -1    0    0  503  502  0.00000000000E+00  0.00000000000E+00  0.36332049889E+03  0.36332049889E+03  0.00000000000E+00 0.  1.
         21   -1    0    0  501  503 -0.00000000000E+00 -0.00000000000E+00 -0.20589200531E+02  0.20589200531E+02  0.00000000000E+00 0. -1.
         24    1    1    2    0    0 -0.10423078576E+02  0.21521976274E+01  0.79293997240E+02  0.11343732399E+03  0.80419002446E+02 0. -1.
          1    1    1    2  501    0  0.23743630673E+02 -0.25125456925E+02  0.13916156284E+03  0.14339103583E+03  0.00000000000E+00 0. -1.
         -2    1    1    2    0  502 -0.13320552097E+02  0.22973259297E+02  0.12427573827E+03  0.12708133960E+03  0.00000000000E+00 0.  1.
<mgrwt>
<rscale>  2 0.71122716E+02</rscale>
<asrwt>0</asrwt>
<pdfrwt beam="1">  1       21 0.55895456E-01 0.71122716E+02</pdfrwt>
<pdfrwt beam="2">  1       21 0.31675696E-02 0.71122716E+02</pdfrwt>
<totfact> 0.17096501E+06</totfact>
</mgrwt>
</event>
<event>
 5    1  0.1696945E+000  0.6832429E+02  0.7546771E-02  0.1365886E+00
         21   -1    0    0  503  502  0.00000000000E+00  0.00000000000E+00  0.12295767724E+03  0.12295767724E+03  0.00000000000E+00 0.  1.
         21   -1    0    0  501  503 -0.00000000000E+00 -0.00000000000E+00 -0.94574783932E+02  0.94574783932E+02  0.00000000000E+00 0. -1.
         24    1    1    2    0    0 -0.13429726492E+02 -0.26042240402E+02  0.58556390132E+02  0.10370449662E+03  0.80419002446E+02 0.  1.
          1    1    1    2  501    0  0.27170528402E+02  0.78930174526E+01 -0.65757098128E+02  0.71585845615E+02  0.00000000000E+00 0. -1.
         -2    1    1    2    0  502 -0.13740801910E+02  0.18149222949E+02  0.35583601306E+02  0.42242118942E+02  0.00000000000E+00 0.  1.
<mgrwt>
<rscale>  2 0.68324292E+02</rscale>
<asrwt>0</asrwt>
<pdfrwt beam="1">  1       21 0.18916566E-01 0.68324292E+02</pdfrwt>
<pdfrwt beam="2">  1       21 0.14549967E-01 0.68324292E+02</pdfrwt>
<totfact> 0.10485141E+06</totfact>
</mgrwt>
</event>
<event>
 5    1  0.1696945E+000  0.6760916E+02  0.7546771E-02  0.1368417E+00
         21   -1    0    0  501  502  0.00000000000E+00  0.00000000000E+00  0.12763927117E+03  0.12763927117E+03  0.00000000000E+00 0.  1.
         21   -1    0    0  502  503 -0.00000000000E+00 -0.00000000000E+00 -0.39151181333E+02  0.39151181333E+02  0.00000000000E+00 0. -1.
         24    1    1    2    0    0 -0.45998427193E+01 -0.15611964336E+02  0.30821927308E+02  0.87647584912E+02  0.80419002446E+02 0.  0.
          1    1    1    2  501    0  0.25216592983E+02  0.19885344128E+02  0.42142051516E+02  0.52983544415E+02  0.00000000000E+00 0. -1.
         -2    1    1    2    0  503 -0.20616750263E+02 -0.42733797916E+01  0.15524111011E+02  0.26159323174E+02  0.00000000000E+00 0.  1.
<mgrwt>
<rscale>  2 0.67609159E+02</rscale>
<asrwt>0</asrwt>
<pdfrwt beam="1">  1       21 0.19636811E-01 0.67609159E+02</pdfrwt>
<pdfrwt beam="2">  1       21 0.60232587E-02 0.67609159E+02</pdfrwt>
<totfact> 0.44368476E+06</totfact>
</mgrwt>
</event>
<event>
 5    1  0.1696945E+000  0.9615409E+02  0.7546771E-02  0.1288598E+00
         21   -1    0    0  501  502  0.00000000000E+00  0.00000000000E+00  0.82152094703E+02  0.82152094703E+02  0.00000000000E+00 0.  1.
         21   -1    0    0  502  503 -0.00000000000E+00 -0.00000000000E+00 -0.19274986351E+03  0.19274986351E+03  0.00000000000E+00 0.  1.
         24    1    1    2    0    0  0.29910379884E+02 -0.62799459276E+02 -0.64054162584E+02  0.12413119918E+03  0.80419002446E+02 0.  1.
          1    1    1    2  501    0 -0.22808549738E+02  0.28192449387E-01  0.38549671085E+02  0.44791828236E+02  0.00000000000E+00 0. -1.
         -2    1    1    2    0  503 -0.71018301457E+01  0.62771266827E+02 -0.85093277306E+02  0.10597893080E+03  0.00000000000E+00 0.  1.
<mgrwt>
<rscale>  2 0.96154092E+02</rscale>
<asrwt>0</asrwt>
<pdfrwt beam="1">  1       21 0.12638784E-01 0.96154092E+02</pdfrwt>
<pdfrwt beam="2">  1       21 0.29653825E-01 0.96154092E+02</pdfrwt>
<totfact> 0.58695095E+05</totfact>
</mgrwt>
</event>
<event>
 5    1  0.1696945E+000  0.7624655E+02  0.7546771E-02  0.1340054E+00
         21   -1    0    0  503  502  0.00000000000E+00  0.00000000000E+00  0.12067509993E+03  0.12067509993E+03  0.00000000000E+00 0. -1.
         21   -1    0    0  501  503 -0.00000000000E+00 -0.00000000000E+00 -0.62324733227E+02  0.62324733227E+02  0.00000000000E+00 0.  1.
         24    1    1    2    0    0  0.33417776580E+01  0.22306325156E+02  0.80299275712E+01  0.83907301893E+02  0.80419002446E+02 0.  0.
          1    1    1    2  501    0  0.30816233694E+02 -0.73418037464E+01 -0.53083187033E+01  0.32120407669E+02  0.00000000000E+00 0. -1.
         -2    1    1    2    0  502 -0.34158011352E+02 -0.14964521409E+02  0.55628757837E+02  0.66972123597E+02  0.00000000000E+00 0.  1.
<mgrwt>
<rscale>  2 0.76246551E+02</rscale>
<asrwt>0</asrwt>
<pdfrwt beam="1">  1       21 0.18565400E-01 0.76246551E+02</pdfrwt>
<pdfrwt beam="2">  1       21 0.95884205E-02 0.76246551E+02</pdfrwt>
<totfact> 0.22530851E+06</totfact>
</mgrwt>
</event>
<event>
 5    1  0.1696945E+000  0.7592527E+02  0.7546771E-02  0.1341029E+00
         21   -1    0    0  501  502  0.00000000000E+00  0.00000000000E+00  0.72478473639E+03  0.72478473639E+03  0.00000000000E+00 0.  1.
         21   -1    0    0  502  503 -0.00000000000E+00 -0.00000000000E+00 -0.18793378944E+02  0.18793378944E+02  0.00000000000E+00 0. -1.
         24    1    1    2    0    0  0.43397645775E+01 -0.14474736012E+02  0.33082984936E+03  0.34079899754E+03  0.80419002446E+02 0.  0.
          1    1    1    2  501    0  0.10581142417E+02 -0.25364125290E+02  0.35436045844E+03  0.35542458263E+03  0.00000000000E+00 0. -1.
         -2    1    1    2    0  503 -0.14920906994E+02  0.39838861302E+02  0.20801049647E+02  0.47354535177E+02  0.00000000000E+00 0.  1.
<mgrwt>
<rscale>  2 0.75925265E+02</rscale>
<asrwt>0</asrwt>
<pdfrwt beam="1">  1       21 0.11150532E+00 0.75925265E+02</pdfrwt>
<pdfrwt beam="2">  1       21 0.28912896E-02 0.75925265E+02</pdfrwt>
<totfact> 0.43545886E+05</totfact>
</mgrwt>
</event>
<event>
 5    1  0.1696945E+000  0.9595911E+02  0.7546771E-02  0.1289030E+00
         21   -1    0    0  503  502  0.00000000000E+00  0.00000000000E+00  0.71078945976E+02  0.71078945976E+02  0.00000000000E+00 0.  1.
         21   -1    0    0  501  503 -0.00000000000E+00 -0.00000000000E+00 -0.27260497964E+03  0.27260497964E+03  0.00000000000E+00 0. -1.
         24    1    1    2    0    0  0.24969573917E+01 -0.38813403912E+02 -0.75680343458E+02  0.11707880021E+03  0.80419002446E+02 0. -1.
          1    1    1    2  501    0 -0.43274193017E+02  0.43721678411E+02 -0.16112052600E+03  0.17246467709E+03  0.00000000000E+00 0. -1.
         -2    1    1    2    0  502  0.40777235625E+02 -0.49082744990E+01  0.35274835792E+02  0.54140448316E+02  0.00000000000E+00 0.  1.
<mgrwt>
<rscale>  2 0.95959109E+02</rscale>
<asrwt>0</asrwt>
<pdfrwt beam="1">  1       21 0.10935223E-01 0.95959109E+02</pdfrwt>
<pdfrwt beam="2">  1       21 0.41939227E-01 0.95959109E+02</pdfrwt>
<totfact> 0.38481868E+05</totfact>
</mgrwt>
</event>
<event>
 5    1  0.1696945E+000  0.7102504E+02  0.7546771E-02  0.1356642E+00
         21   -1    0    0  503  502  0.00000000000E+00  0.00000000000E+00  0.24353857935E+02  0.24353857935E+02  0.00000000000E+00 0. -1.
         21   -1    0    0  501  503 -0.00000000000E+00 -0.00000000000E+00 -0.31875158866E+03  0.31875158866E+03  0.00000000000E+00 0. -1.
         24    1    1    2    0    0 -0.75501826716E+01  0.41365169042E+02 -0.76023058715E+02  0.11838413694E+03  0.80419002446E+02 0. -1.
          1    1    1    2  501    0 -0.11139199298E+02 -0.20184374699E+02 -0.12715829868E+03  0.12923127975E+03  0.00000000000E+00 0. -1.
         -2    1    1    2    0  502  0.18689381970E+02 -0.21180794343E+02 -0.91216373328E+02  0.95490029901E+02  0.00000000000E+00 0.  1.
<mgrwt>
<rscale>  2 0.71025044E+02</rscale>
<asrwt>0</asrwt>
<pdfrwt beam="1">  1       21 0.37467476E-02 0.71025044E+02</pdfrwt>
<pdfrwt beam="2">  1       21 0.49038703E-01 0.71025044E+02</pdfrwt>
<totfact> 0.16997424E+06</totfact>
</mgrwt>
</event>
<event>
 5    1  0.1696945E+000  0.8221717E+02  0.7546771E-02  0.1322875E+00
         21   -1    0    0  501  502  0.00000000000E+00  0.00000000000E+00  0.98401694761E+03  0.98401694761E+03  0.00000000000E+00 0.  1.
         21   -1    0    0  502  503 -0.00000000000E+00 -0.00000000000E+00 -0.79318126152E+01  0.79318126152E+01  0.00000000000E+00 0. -1.
         24    1    1    2    0    0  0.18371965712E+02 -0.56764303939E+02  0.40485164282E+03  0.41705129657E+03  0.80419002446E+02 0.  0.
          1    1    1    2  501    0  0.39702783855E+01  0.25871916372E+02  0.26848493204E+03  0.26975781341E+03  0.00000000000E+00 0. -1.
         -2    1    1    2    0  503 -0.22342244098E+02  0.30892387567E+02  0.30274856014E+03  0.30513965024E+03  0.00000000000E+00 0.  1.
<mgrwt>
<rscale>  2 0.82217173E+02</rscale>
<asrwt>0</asrwt>
<pdfrwt beam="1">  1       21 0.15138713E+00 0.82217173E+02</pdfrwt>
<pdfrwt beam="2">  1       21 0.12202796E-02 0.82217173E+02</pdfrwt>
<totfact> 0.81355451E+05</totfact>
</mgrwt>
</event>
<event>
 5    1  0.1696945E+000  0.1365500E+03  0.7546771E-02  0.1218048E+00
         21   -1    0    0  503  502  0.00000000000E+00  0.00000000000E+00  0.63056662593E+03  0.63056662593E+03  0.00000000000E+00 0.  1.
         21   -1    0    0  501  503 -0.00000000000E+00 -0.00000000000E+00 -0.42050999150E+02  0.42050999150E+02  0.00000000000E+00 0. -1.
         24    1    1    2    0    0 -0.44401612326E+01 -0.45197308744E+02  0.21915734688E+03  0.23782277098E+03  0.80419002446E+02 0.  1.
          1    1    1    2  501    0  0.15089132545E+02 -0.66677243670E+02  0.25377072796E+02  0.72921413646E+02  0.00000000000E+00 0. -1.
         -2    1    1    2    0  502 -0.10648971313E+02  0.11187455241E+03  0.34398120710E+03  0.36187344045E+03  0.00000000000E+00 0.  1.
<mgrwt>
<rscale>  2 0.13655001E+03</rscale>
<asrwt>0</asrwt>
<pdfrwt beam="1">  1       21 0.97010243E-01 0.13655001E+03</pdfrwt>
<pdfrwt beam="2">  1       21 0.64693850E-02 0.13655001E+03</pdfrwt>
<totfact> 0.15588161E+05</totfact>
</mgrwt>
</event>
<event>
 5    1  0.1696945E+000  0.7171709E+02  0.7546771E-02  0.1354349E+00
         21   -1    0    0  503  502  0.00000000000E+00  0.00000000000E+00  0.19825236546E+03  0.19825236546E+03  0.00000000000E+00 0. -1.
         21   -1    0    0  501  503 -0.00000000000E+00 -0.00000000000E+00 -0.58765917962E+02  0.58765917962E+02  0.00000000000E+00 0.  1.
         24    1    1    2    0    0  0.22799221313E+02  0.21358086390E+02  0.12728545936E+03  0.15376858088E+03  0.80419002446E+02 0.  0.
          1    1    1    2  501    0 -0.34705770916E+02 -0.24197020210E+01 -0.36029016705E+02  0.50084284336E+02  0.00000000000E+00 0. -1.
         -2    1    1    2    0  502  0.11906549603E+02 -0.18938384369E+02  0.48230004843E+02  0.53165418207E+02  0.00000000000E+00 0.  1.
<mgrwt>
<rscale>  2 0.71717095E+02</rscale>
<asrwt>0</asrwt>
<pdfrwt beam="1">  1       21 0.30500364E-01 0.71717095E+02</pdfrwt>
<pdfrwt beam="2">  1       21 0.90409105E-02 0.71717095E+02</pdfrwt>
<totfact> 0.99127369E+05</totfact>
</mgrwt>
</event>
<event>
 5    1  0.1696945E+000  0.9095862E+02  0.7546771E-02  0.1300547E+00
         21   -1    0    0  501  502  0.00000000000E+00  0.00000000000E+00  0.59872450663E+03  0.59872450663E+03  0.00000000000E+00 0.  1.
         21   -1    0    0  502  503 -0.00000000000E+00 -0.00000000000E+00 -0.27264237435E+02  0.27264237435E+02  0.00000000000E+00 0. -1.
         24    1    1    2    0    0  0.48059278500E+02  0.73317794147E+01  0.34725778681E+03  0.35974801695E+03  0.80419002446E+02 0. -1.
          1    1    1    2  501    0  0.93509412061E+01 -0.25956821782E+02  0.19888572472E+03  0.20079025922E+03  0.00000000000E+00 0. -1.
         -2    1    1    2    0  503 -0.57410219706E+02  0.18625042367E+02  0.25316757655E+02  0.65450467898E+02  0.00000000000E+00 0.  1.
<mgrwt>
<rscale>  2 0.90958618E+02</rscale>
<asrwt>0</asrwt>
<pdfrwt beam="1">  1       21 0.92111453E-01 0.90958618E+02</pdfrwt>
<pdfrwt beam="2">  1       21 0.41944985E-02 0.90958618E+02</pdfrwt>
<totfact> 0.36810684E+05</totfact>
</mgrwt>
</event>
<event>
 5    1  0.1696945E+000  0.9337336E+02  0.7546771E-02  0.1294882E+00
         21   -1    0    0  501  502  0.00000000000E+00  0.00000000000E+00  0.38160966959E+03  0.38160966959E+03  0.00000000000E+00 0.  1.
         21   -1    0    0  502  503 -0.00000000000E+00 -0.00000000000E+00 -0.22877934660E+02  0.22877934660E+02  0.00000000000E+00 0. -1.
         24    1    1    2    0    0 -0.44199700786E+02 -0.45625152188E+02  0.19916313467E+03  0.22398312041E+03  0.80419002446E+02 0.  0.
          1    1    1    2  501    0  0.54384717223E+02  0.22236598468E+02  0.10687790311E+03  0.12196331396E+03  0.00000000000E+00 0. -1.
         -2    1    1    2    0  503 -0.10185016437E+02  0.23388553720E+02  0.52690697147E+02  0.58541169879E+02  0.00000000000E+00 0.  1.
<mgrwt>
<rscale>  2 0.93373362E+02</rscale>
<asrwt>0</asrwt>
<pdfrwt beam="1">  1       21 0.58709175E-01 0.93373362E+02</pdfrwt>
<pdfrwt beam="2">  1       21 0.35196825E-02 0.93373362E+02</pdfrwt>
<totfact> 0.13108315E+06</totfact>
</mgrwt>
</event>
<event>
 5    1  0.1696945E+000  0.7441023E+02  0.7546771E-02  0.1345707E+00
         21   -1    0    0  503  502  0.00000000000E+00  0.00000000000E+00  0.88380454947E+01  0.88380454947E+01  0.00000000000E+00 0. -1.
         21   -1    0    0  501  503 -0.00000000000E+00 -0.00000000000E+00 -0.90918717789E+03  0.90918717789E+03  0.00000000000E+00 0. -1.
         24    1    1    2    0    0 -0.95578548781E+01 -0.20467578391E+02 -0.23408387398E+03  0.24854124480E+03  0.80419002446E+02 0. -1.
          1    1    1    2  501    0  0.35240317159E+02  0.58033574926E+01 -0.39500555494E+03  0.39661687728E+03  0.00000000000E+00 0. -1.
         -2    1    1    2    0  502 -0.25682462281E+02  0.14664220898E+02 -0.27125970348E+03  0.27286710131E+03  0.00000000000E+00 0.  1.
<mgrwt>
<rscale>  2 0.74410228E+02</rscale>
<asrwt>0</asrwt>
<pdfrwt beam="1">  1       21 0.13597004E-02 0.74410228E+02</pdfrwt>
<pdfrwt beam="2">  1       21 0.13987484E+00 0.74410228E+02</pdfrwt>
<totfact> 0.83794532E+05</totfact>
</mgrwt>
</event>
<event>
 5    1  0.1696945E+000  0.9976690E+02  0.7546771E-02  0.1280787E+00
         21   -1    0    0  503  502  0.00000000000E+00  0.00000000000E+00  0.42696646198E+02  0.42696646198E+02  0.00000000000E+00 0. -1.
         21   -1    0    0  501  503 -0.00000000000E+00 -0.00000000000E+00 -0.32418732480E+03  0.32418732480E+03  0.00000000000E+00 0. -1.
         24    1    1    2    0    0  0.17766629402E+02  0.81108400231E+02 -0.64136909435E+02  0.13219298323E+03  0.80419002446E+02 0. -1.
          1    1    1    2  501    0 -0.94628613569E+01 -0.18443296557E+02 -0.91930628948E+02  0.94238747189E+02  0.00000000000E+00 0. -1.
         -2    1    1    2    0  502 -0.83037680451E+01 -0.62665103674E+02 -0.12542314022E+03  0.14045224058E+03  0.00000000000E+00 0.  1.
<mgrwt>
<rscale>  2 0.99766904E+02</rscale>
<asrwt>0</asrwt>
<pdfrwt beam="1">  1       21 0.65687145E-02 0.99766904E+02</pdfrwt>
<pdfrwt beam="2">  1       21 0.49874975E-01 0.99766904E+02</pdfrwt>
<totfact> 0.65084702E+05</totfact>
</mgrwt>
</event>
<event>
 5    1  0.1696945E+000  0.8513658E+02  0.7546771E-02  0.1315076E+00
         21   -1    0    0  503  502  0.00000000000E+00  0.00000000000E+00  0.17135577339E+04  0.17135577339E+04  0.00000000000E+00 0. -1.
         21   -1    0    0  501  503 -0.00000000000E+00 -0.00000000000E+00 -0.63795919269E+01  0.63795919269E+01  0.00000000000E+00 0.  1.
         24    1    1    2    0    0  0.24360575966E+00  0.55201371331E+02  0.45525403429E+03  0.46558640705E+03  0.80419002446E+02 0.  1.
          1    1    1    2  501    0 -0.23788740989E+02 -0.28859703535E+02  0.41515097773E+03  0.41683224563E+03  0.00000000000E+00 0. -1.
         -2    1    1    2    0  502  0.23545135229E+02 -0.26341667795E+02  0.83677312992E+03  0.83751867311E+03  0.00000000000E+00 0.  1.
<mgrwt>
<rscale>  2 0.85136582E+02</rscale>
<asrwt>0</asrwt>
<pdfrwt beam="1">  1       21 0.26362390E+00 0.85136582E+02</pdfrwt>
<pdfrwt beam="2">  1       21 0.98147705E-03 0.85136582E+02</pdfrwt>
<totfact> 0.23344619E+05</totfact>
</mgrwt>
</event>
<event>
 5    1  0.1696945E+000  0.1010342E+03  0.7546771E-02  0.1278136E+00
         21   -1    0    0  503  502  0.00000000000E+00  0.00000000000E+00  0.19988712575E+03  0.19988712575E+03  0.00000000000E+00 0.  1.
         21   -1    0    0  501  503 -0.00000000000E+00 -0.00000000000E+00 -0.72697810849E+02  0.72697810849E+02  0.00000000000E+00 0. -1.
         24    1    1    2    0    0 -0.63769160680E+01 -0.46275716188E+02  0.13090433544E+03  0.16057791865E+03  0.80419002446E+02 0.  1.
          1    1    1    2  501    0 -0.44061550248E+02  0.58927142372E+01 -0.13943946778E+02  0.46589461717E+02  0.00000000000E+00 0. -1.
         -2    1    1    2    0  502  0.50438466316E+02  0.40383001951E+02  0.10228926236E+02  0.65417556228E+02  0.00000000000E+00 0.  1.
<mgrwt>
<rscale>  2 0.10103424E+03</rscale>
<asrwt>0</asrwt>
<pdfrwt beam="1">  1       21 0.30751865E-01 0.10103424E+03</pdfrwt>
<pdfrwt beam="2">  1       21 0.11184279E-01 0.10103424E+03</pdfrwt>
<totfact> 0.67879444E+05</totfact>
</mgrwt>
</event>
<event>
 5    1  0.1696945E+000  0.7117868E+02  0.7546771E-02  0.1356130E+00
         21   -1    0    0  501  502  0.00000000000E+00  0.00000000000E+00  0.50303062502E+03  0.50303062502E+03  0.00000000000E+00 0.  1.
         21   -1    0    0  502  503 -0.00000000000E+00 -0.00000000000E+00 -0.14650211750E+02  0.14650211750E+02  0.00000000000E+00 0. -1.
         24    1    1    2    0    0 -0.13927717973E+02 -0.57209371372E+01  0.14257087176E+03  0.16437876955E+03  0.80419002446E+02 0. -1.
          1    1    1    2  501    0  0.28493155266E+01  0.31945536801E+02  0.27678750871E+03  0.27863948194E+03  0.00000000000E+00 0. -1.
         -2    1    1    2    0  503  0.11078402447E+02 -0.26224599664E+02  0.69022032799E+02  0.74662585275E+02  0.00000000000E+00 0.  1.
<mgrwt>
<rscale>  2 0.71178682E+02</rscale>
<asrwt>0</asrwt>
<pdfrwt beam="1">  1       21 0.77389314E-01 0.71178682E+02</pdfrwt>
<pdfrwt beam="2">  1       21 0.22538791E-02 0.71178682E+02</pdfrwt>
<totfact> 0.14830442E+06</totfact>
</mgrwt>
</event>
<event>
 5    1  0.1696945E+000  0.9272443E+02  0.7546771E-02  0.1296385E+00
         21   -1    0    0  503  502  0.00000000000E+00  0.00000000000E+00  0.32319876349E+02  0.32319876349E+02  0.00000000000E+00 0.  1.
         21   -1    0    0  501  503 -0.00000000000E+00 -0.00000000000E+00 -0.40894719135E+03  0.40894719135E+03  0.00000000000E+00 0.  1.
         24    1    1    2    0    0  0.42295455418E+02  0.27666466687E+02 -0.62345780276E+02  0.11361580524E+03  0.80419002446E+02 0.  1.
          1    1    1    2  501    0  0.15403399696E+02 -0.28906967173E+02 -0.14978406302E+03  0.15332365443E+03  0.00000000000E+00 0. -1.
         -2    1    1    2    0  502 -0.57698855114E+02  0.12405004855E+01 -0.16449747171E+03  0.17432760803E+03  0.00000000000E+00 0.  1.
<mgrwt>
<rscale>  2 0.92724432E+02</rscale>
<asrwt>0</asrwt>
<pdfrwt beam="1">  1       21 0.49722888E-02 0.92724432E+02</pdfrwt>
<pdfrwt beam="2">  1       21 0.62914951E-01 0.92724432E+02</pdfrwt>
<totfact> 0.64031125E+05</totfact>
</mgrwt>
</event>
<event>
 5    1  0.1696945E+000  0.9232302E+02  0.7546771E-02  0.1297322E+00
         21   -1    0    0  501  502  0.00000000000E+00  0.00000000000E+00  0.42054854689E+02  0.42054854689E+02  0.00000000000E+00 0.  1.
         21   -1    0    0  502  503 -0.00000000000E+00 -0.00000000000E+00 -0.31260918941E+03  0.31260918941E+03  0.00000000000E+00 0. -1.
         24    1    1    2    0    0  0.33314877861E+02  0.20761362222E+02 -0.10699260034E+03  0.13948314497E+03  0.80419002446E+02 0. -1.
          1    1    1    2  501    0 -0.17764084995E+02 -0.54868723486E+02 -0.11811944820E+02  0.58869869825E+02  0.00000000000E+00 0. -1.
         -2    1    1    2    0  503 -0.15550792866E+02  0.34107361265E+02 -0.15174978956E+03  0.15631102931E+03  0.00000000000E+00 0.  1.
<mgrwt>
<rscale>  2 0.92323021E+02</rscale>
<asrwt>0</asrwt>
<pdfrwt beam="1">  1       21 0.64699777E-02 0.92323021E+02</pdfrwt>
<pdfrwt beam="2">  1       21 0.48093721E-01 0.92323021E+02</pdfrwt>
<totfact> 0.71895326E+05</totfact>
</mgrwt>
</event>
<event>
 5    1  0.1696945E+000  0.8357732E+02  0.7546771E-02  0.1319195E+00
         21   -1    0    0  501  502  0.00000000000E+00  0.00000000000E+00  0.48680512153E+02  0.48680512153E+02  0.00000000000E+00 0. -1.
         21   -1    0    0  502  503 -0.00000000000E+00 -0.00000000000E+00 -0.68096925117E+03  0.68096925117E+03  0.00000000000E+00 0.  1.
         24    1    1    2    0    0  0.10508625131E+02 -0.18051289780E+02 -0.23566346084E+03  0.24988149790E+03  0.80419002446E+02 0. -1.
          1    1    1    2  501    0 -0.32443383225E+02  0.41025391494E+02  0.24281287254E+02  0.57664866020E+02  0.00000000000E+00 0. -1.
         -2    1    1    2    0  503  0.21934758094E+02 -0.22974101714E+02 -0.42090656543E+03  0.42210339940E+03  0.00000000000E+00 0.  1.
<mgrwt>
<rscale>  2 0.83577320E+02</rscale>
<asrwt>0</asrwt>
<pdfrwt beam="1">  1       21 0.74893095E-02 0.83577320E+02</pdfrwt>
<pdfrwt beam="2">  1       21 0.10476450E+00 0.83577320E+02</pdfrwt>
<totfact> 0.10406952E+05</totfact>
</mgrwt>
</event>
<event>
 5    1  0.1696945E+000  0.8432675E+02  0.7546771E-02  0.1317203E+00
         21   -1    0    0  501  502  0.00000000000E+00  0.00000000000E+00  0.51227675470E+02  0.51227675470E+02  0.00000000000E+00 0.  1.
         21   -1    0    0  502  503 -0.00000000000E+00 -0.00000000000E+00 -0.29955691455E+03  0.29955691455E+03  0.00000000000E+00 0.  1.
         24    1    1    2    0    0 -0.13050827514E+02 -0.32987848359E+02 -0.77187140333E+01  0.88234441908E+02  0.80419002446E+02 0.  1.
          1    1    1    2  501    0 -0.30315816853E+02  0.12438583791E+02 -0.23818767405E+02  0.40510502328E+02  0.00000000000E+00 0. -1.
         -2    1    1    2    0  503  0.43366644368E+02  0.20549264568E+02 -0.21679175764E+03  0.22203964578E+03  0.00000000000E+00 0.  1.
<mgrwt>
<rscale>  2 0.84326751E+02</rscale>
<asrwt>0</asrwt>
<pdfrwt beam="1">  1       21 0.78811810E-02 0.84326751E+02</pdfrwt>
<pdfrwt beam="2">  1       21 0.46085678E-01 0.84326751E+02</pdfrwt>
<totfact> 0.56057277E+05</totfact>
</mgrwt>
</event>
<event>
 5    1  0.1696945E+000  0.1025691E+03  0.7546771E-02  0.1274984E+00
         21   -1    0    0  503  502  0.00000000000E+00  0.00000000000E+00  0.11190468210E+03  0.11190468210E+03  0.00000000000E+00 0.  1.
         21   -1    0    0  501  503 -0.00000000000E+00 -0.00000000000E+00 -0.15108376751E+03  0.15108376751E+03  0.00000000000E+00 0. -1.
         24    1    1    2    0    0 -0.16270724044E+02 -0.44781057173E+02 -0.72576607919E+02  0.11834128406E+03  0.80419002446E+02 0. -1.
          1    1    1    2  501    0  0.59064901548E+02  0.31003586580E+02 -0.24746473239E+02  0.71149651535E+02  0.00000000000E+00 0. -1.
         -2    1    1    2    0  502 -0.42794177504E+02  0.13777470593E+02  0.58143995746E+02  0.73497514009E+02  0.00000000000E+00 0.  1.
<mgrwt>
<rscale>  2 0.10256914E+03</rscale>
<asrwt>0</asrwt>
<pdfrwt beam="1">  1       21 0.17216105E-01 0.10256914E+03</pdfrwt>
<pdfrwt beam="2">  1       21 0.23243657E-01 0.10256914E+03</pdfrwt>
<totfact> 0.53475350E+05</totfact>
</mgrwt>
</event>
<event>
 5    1  0.1696945E+000  0.6388840E+02  0.7546771E-02  0.1382202E+00
         21   -1    0    0  501  502  0.00000000000E+00  0.00000000000E+00  0.43702014214E+03  0.43702014214E+03  0.00000000000E+00 0.  1.
         21   -1    0    0  502  503 -0.00000000000E+00 -0.00000000000E+00 -0.29464334488E+02  0.29464334488E+02  0.00000000000E+00 0. -1.
         24    1    1    2    0    0 -0.66622758668E+01 -0.16323098402E+02  0.55131703073E+02  0.99083551103E+02  0.80419002446E+02 0.  0.
          1    1    1    2  501    0  0.22996191083E+02  0.94754937644E+00  0.34181057113E+03  0.34258457232E+03  0.00000000000E+00 0. -1.
         -2    1    1    2    0  503 -0.16333915217E+02  0.15375549026E+02  0.10613533448E+02  0.24816353205E+02  0.00000000000E+00 0.  1.
<mgrwt>
<rscale>  2 0.63888403E+02</rscale>
<asrwt>0</asrwt>
<pdfrwt beam="1">  1       21 0.67233863E-01 0.63888403E+02</pdfrwt>
<pdfrwt beam="2">  1       21 0.45329748E-02 0.63888403E+02</pdfrwt>
<totfact> 0.64631943E+05</totfact>
</mgrwt>
</event>
<event>
 5    1  0.1696945E+000  0.6706624E+02  0.7546771E-02  0.1370363E+00
         21   -1    0    0  501  502  0.00000000000E+00  0.00000000000E+00  0.10933610702E+03  0.10933610702E+03  0.00000000000E+00 0.  1.
         21   -1    0    0  502  503 -0.00000000000E+00 -0.00000000000E+00 -0.78182570930E+03  0.78182570930E+03  0.00000000000E+00 0.  1.
         24    1    1    2    0    0 -0.41871601792E+01 -0.26700789215E+02 -0.25188056626E+02  0.88499257658E+02  0.80419002446E+02 0.  1.
          1    1    1    2  501    0 -0.17909960126E+02  0.18430630667E+02  0.75357147905E+02  0.79618807821E+02  0.00000000000E+00 0. -1.
         -2    1    1    2    0  503  0.22097120305E+02  0.82701585478E+01 -0.72265869356E+03  0.72304375083E+03  0.00000000000E+00 0.  1.
<mgrwt>
<rscale>  2 0.67066245E+02</rscale>
<asrwt>0</asrwt>
<pdfrwt beam="1">  1       21 0.16820940E-01 0.67066245E+02</pdfrwt>
<pdfrwt beam="2">  1       21 0.12028087E+00 0.67066245E+02</pdfrwt>
<totfact> 0.18727908E+04</totfact>
</mgrwt>
</event>
<event>
 5    1  0.1696945E+000  0.7870943E+02  0.7546771E-02  0.1332754E+00
         21   -1    0    0  501  502  0.00000000000E+00  0.00000000000E+00  0.12162712204E+02  0.12162712204E+02  0.00000000000E+00 0. -1.
         21   -1    0    0  502  503 -0.00000000000E+00 -0.00000000000E+00 -0.11873323613E+04  0.11873323613E+04  0.00000000000E+00 0.  1.
         24    1    1    2    0    0 -0.32203318367E+02 -0.47981502788E+02 -0.10849614854E+04  0.10894713944E+04  0.80419002446E+02 0.  1.
          1    1    1    2  501    0  0.18692800180E+02  0.20342791350E+02 -0.22413855185E+02  0.35575705794E+02  0.00000000000E+00 0. -1.
         -2    1    1    2    0  503  0.13510518187E+02  0.27638711439E+02 -0.67794308429E+02  0.74447973291E+02  0.00000000000E+00 0.  1.
<mgrwt>
<rscale>  2 0.78709433E+02</rscale>
<asrwt>0</asrwt>
<pdfrwt beam="1">  1       21 0.18711864E-02 0.78709433E+02</pdfrwt>
<pdfrwt beam="2">  1       21 0.18266653E+00 0.78709433E+02</pdfrwt>
<totfact> 0.25329473E+05</totfact>
</mgrwt>
</event>
<event>
 5    1  0.1696945E+000  0.9401658E+02  0.7546771E-02  0.1293406E+00
         21   -1    0    0  503  502  0.00000000000E+00  0.00000000000E+00  0.10356960186E+04  0.10356960186E+04  0.00000000000E+00 0.  1.
         21   -1    0    0  501  503 -0.00000000000E+00 -0.00000000000E+00 -0.97583155910E+02  0.97583155910E+02  0.00000000000E+00 0. -1.
         24    1    1    2    0    0  0.36689364976E+02 -0.31658564703E+02  0.17601937503E+03  0.19949538983E+03  0.80419002446E+02 0.  1.
          1    1    1    2  501    0  0.22683689117E+02 -0.64599023686E+01 -0.82726314888E+02  0.86022806659E+02  0.00000000000E+00 0. -1.
         -2    1    1    2    0  502 -0.59373054093E+02  0.38118467072E+02  0.84481980259E+03  0.84776097807E+03  0.00000000000E+00 0.  1.
<mgrwt>
<rscale>  2 0.94016582E+02</rscale>
<asrwt>0</asrwt>
<pdfrwt beam="1">  1       21 0.15933784E+00 0.94016582E+02</pdfrwt>
<pdfrwt beam="2">  1       21 0.15012794E-01 0.94016582E+02</pdfrwt>
<totfact> 0.10974886E+04</totfact>
</mgrwt>
</event>
<event>
 5    1  0.1696945E+000  0.7793381E+02  0.7546771E-02  0.1335019E+00
         21   -1    0    0  503  502  0.00000000000E+00  0.00000000000E+00  0.12308143664E+03  0.12308143664E+03  0.00000000000E+00 0.  1.
         21   -1    0    0  501  503 -0.00000000000E+00 -0.00000000000E+00 -0.13206893654E+03  0.13206893654E+03  0.00000000000E+00 0. -1.
         24    1    1    2    0    0 -0.29810931176E+02  0.74095585339E+01  0.96684902190E+01  0.86627298427E+02  0.80419002446E+02 0.  1.
          1    1    1    2  501    0 -0.19420451950E+02 -0.67043470005E+01 -0.84129794014E+02  0.86602104267E+02  0.00000000000E+00 0. -1.
         -2    1    1    2    0  502  0.49231383126E+02 -0.70521153343E+00  0.65473803895E+02  0.81920970479E+02  0.00000000000E+00 0.  1.
<mgrwt>
<rscale>  2 0.77933808E+02</rscale>
<asrwt>0</asrwt>
<pdfrwt beam="1">  1       21 0.18935606E-01 0.77933808E+02</pdfrwt>
<pdfrwt beam="2">  1       21 0.20318298E-01 0.77933808E+02</pdfrwt>
<totfact> 0.57628865E+05</totfact>
</mgrwt>
</event>
<event>
 5    1  0.1696945E+000  0.7795148E+02  0.7546771E-02  0.1334967E+00
         21   -1    0    0  501  502  0.00000000000E+00  0.00000000000E+00  0.15499342464E+02  0.15499342464E+02  0.00000000000E+00 0. -1.
         21   -1    0    0  502  503 -0.00000000000E+00 -0.00000000000E+00 -0.41845860114E+03  0.41845860114E+03  0.00000000000E+00 0.  1.
         24    1    1    2    0    0  0.27941233336E+02  0.10889258378E+02 -0.16655849190E+03  0.18737191798E+03  0.80419002446E+02 0. -1.
          1    1    1    2  501    0  0.19825241103E+02  0.36202148222E+01 -0.63331540393E+02  0.66460741410E+02  0.00000000000E+00 0. -1.
         -2    1    1    2    0  503 -0.47766474439E+02 -0.14509473200E+02 -0.17306922639E+03  0.18012528422E+03  0.00000000000E+00 0.  1.
<mgrwt>
<rscale>  2 0.77951479E+02</rscale>
<asrwt>0</asrwt>
<pdfrwt beam="1">  1       21 0.23845143E-02 0.77951479E+02</pdfrwt>
<pdfrwt beam="2">  1       21 0.64378244E-01 0.77951479E+02</pdfrwt>
<totfact> 0.20184396E+06</totfact>
</mgrwt>
</event>
<event>
 5    1  0.1696945E+000  0.1224713E+03  0.7546771E-02  0.1239075E+00
         21   -1    0    0  503  502  0.00000000000E+00  0.00000000000E+00  0.63757163490E+03  0.63757163490E+03  0.00000000000E+00 0.  1.
         21   -1    0    0  501  503 -0.00000000000E+00 -0.00000000000E+00 -0.18844418103E+03  0.18844418103E+03  0.00000000000E+00 0.  1.
         24    1    1    2    0    0 -0.25657990792E+02 -0.95266145283E+02 -0.11476714160E+03  0.17138460746E+03  0.80419002446E+02 0.  1.
          1    1    1    2  501    0  0.46155454345E+02  0.50451802414E+02 -0.17956039135E+02  0.70697451680E+02  0.00000000000E+00 0. -1.
         -2    1    1    2    0  502 -0.20497463553E+02  0.44814342869E+02  0.58185063460E+03  0.58393375679E+03  0.00000000000E+00 0.  1.
<mgrwt>
<rscale>  2 0.12247129E+03</rscale>
<asrwt>0</asrwt>
<pdfrwt beam="1">  1       21 0.98087943E-01 0.12247129E+03</pdfrwt>
<pdfrwt beam="2">  1       21 0.28991413E-01 0.12247129E+03</pdfrwt>
<totfact> 0.10349801E+04</totfact>
</mgrwt>
</event>
<event>
 5    1  0.1696945E+000  0.6983901E+02  0.7546771E-02  0.1360641E+00
         21   -1    0    0  501  502  0.00000000000E+00  0.00000000000E+00  0.45095804524E+03  0.45095804524E+03  0.00000000000E+00 0.  1.
         21   -1    0    0  502  503 -0.00000000000E+00 -0.00000000000E+00 -0.11418244487E+02  0.11418244487E+02  0.00000000000E+00 0.  1.
         24    1    1    2    0    0  0.11472344763E+02 -0.23360063064E+01  0.26625120889E+03  0.27837743049E+03  0.80419002446E+02 0.  1.
          1    1    1    2  501    0  0.18681139982E+02 -0.14706081202E+02  0.10209783154E+03  0.10482948546E+03  0.00000000000E+00 0. -1.
         -2    1    1    2    0  503 -0.30153484745E+02  0.17042087508E+02  0.71190760326E+02  0.79169373780E+02  0.00000000000E+00 0.  1.
<mgrwt>
<rscale>  2 0.69839011E+02</rscale>
<asrwt>0</asrwt>
<pdfrwt beam="1">  1       21 0.69378147E-01 0.69839011E+02</pdfrwt>
<pdfrwt beam="2">  1       21 0.17566533E-02 0.69839011E+02</pdfrwt>
<totfact> 0.27874859E+06</totfact>
</mgrwt>
</event>
<event>
 5    1  0.1696945E+000  0.8210395E+02  0.7546771E-02  0.1323185E+00
         21   -1    0    0  503  502  0.00000000000E+00  0.00000000000E+00  0.27508333535E+02  0.27508333535E+02  0.00000000000E+00 0. -1.
         21   -1    0    0  501  503 -0.00000000000E+00 -0.00000000000E+00 -0.24768550830E+03  0.24768550830E+03  0.00000000000E+00 0.  1.
         24    1    1    2    0    0  0.39900803629E+02  0.37420596112E+02 -0.13197185530E+03  0.16393950619E+03  0.80419002446E+02 0.  0.
          1    1    1    2  501    0  0.18397051504E+01 -0.22568504187E+02 -0.38542285252E+02  0.44701562039E+02  0.00000000000E+00 0. -1.
         -2    1    1    2    0  502 -0.41740508780E+02 -0.14852091924E+02 -0.49663034211E+02  0.66552773607E+02  0.00000000000E+00 0.  1.
<mgrwt>
<rscale>  2 0.82103954E+02</rscale>
<asrwt>0</asrwt>
<pdfrwt beam="1">  1       21 0.42320514E-02 0.82103954E+02</pdfrwt>
<pdfrwt beam="2">  1       21 0.38105462E-01 0.82103954E+02</pdfrwt>
<totfact> 0.23141110E+06</totfact>
</mgrwt>
</event>
<event>
 5    1  0.1696945E+000  0.8973608E+02  0.7546771E-02  0.1303492E+00
         21   -1    0    0  503  502  0.00000000000E+00  0.00000000000E+00  0.33266434395E+02  0.33266434395E+02  0.00000000000E+00 0. -1.
         21   -1    0    0  501  503 -0.00000000000E+00 -0.00000000000E+00 -0.28772398723E+03  0.28772398723E+03  0.00000000000E+00 0.  1.
         24    1    1    2    0    0 -0.39344437726E+02 -0.17296034659E+02 -0.89843909891E+02  0.12800891256E+03  0.80419002446E+02 0.  0.
          1    1    1    2  501    0  0.49994073707E+02  0.39465710067E+02 -0.15310837842E+03  0.16582860193E+03  0.00000000000E+00 0. -1.
         -2    1    1    2    0  502 -0.10649635981E+02 -0.22169675408E+02 -0.11505264527E+02  0.27152907138E+02  0.00000000000E+00 0.  1.
<mgrwt>
<rscale>  2 0.89736084E+02</rscale>
<asrwt>0</asrwt>
<pdfrwt beam="1">  1       21 0.51179130E-02 0.89736084E+02</pdfrwt>
<pdfrwt beam="2">  1       21 0.44265229E-01 0.89736084E+02</pdfrwt>
<totfact> 0.12588151E+06</totfact>
</mgrwt>
</event>
<event>
 5    1  0.1696945E+000  0.9506689E+02  0.7546771E-02  0.1291026E+00
         21   -1    0    0  501  502  0.00000000000E+00  0.00000000000E+00  0.41221594630E+03  0.41221594630E+03  0.00000000000E+00 0. -1.
         21   -1    0    0  502  503 -0.00000000000E+00 -0.00000000000E+00 -0.33421872898E+02  0.33421872898E+02  0.00000000000E+00 0. -1.
         24    1    1    2    0    0  0.27934436274E+02 -0.55916943183E+02  0.70072635975E+02  0.12363020477E+03  0.80419002446E+02 0. -1.
          1    1    1    2  501    0  0.12602776484E+02  0.44377074249E+02  0.20339943955E+03  0.20856530561E+03  0.00000000000E+00 0. -1.
         -2    1    1    2    0  503 -0.40537212758E+02  0.11539868934E+02  0.10532199788E+03  0.11344230882E+03  0.00000000000E+00 0.  1.
<mgrwt>
<rscale>  2 0.95066886E+02</rscale>
<asrwt>0</asrwt>
<pdfrwt beam="1">  1       21 0.63417834E-01 0.95066886E+02</pdfrwt>
<pdfrwt beam="2">  1       21 0.51418269E-02 0.95066886E+02</pdfrwt>
<totfact> 0.59534897E+05</totfact>
</mgrwt>
</event>
<event>
 5    1  0.1696945E+000  0.7463263E+02  0.7546771E-02  0.1345012E+00
         21   -1    0    0  503  502  0.00000000000E+00  0.00000000000E+00  0.45594062098E+03  0.45594062098E+03  0.00000000000E+00 0. -1.
         21   -1    0    0  501  503 -0.00000000000E+00 -0.00000000000E+00 -0.12750995781E+02  0.12750995781E+02  0.00000000000E+00 0.  1.
         24    1    1    2    0    0 -0.36156171037E+02  0.29980493723E+02  0.31251667444E+03  0.32609812398E+03  0.80419002446E+02 0.  1.
          1    1    1    2  501    0  0.62073262976E+01 -0.25019057427E+02  0.47337210715E+02  0.53900794545E+02  0.00000000000E+00 0. -1.
         -2    1    1    2    0  502  0.29948844739E+02 -0.49614362955E+01  0.83335740046E+02  0.88692698236E+02  0.00000000000E+00 0.  1.
<mgrwt>
<rscale>  2 0.74632625E+02</rscale>
<asrwt>0</asrwt>
<pdfrwt beam="1">  1       21 0.70144698E-01 0.74632625E+02</pdfrwt>
<pdfrwt beam="2">  1       21 0.19616920E-02 0.74632625E+02</pdfrwt>
<totfact> 0.22925830E+06</totfact>
</mgrwt>
</event>
<event>
 5    1  0.1696945E+000  0.9309966E+02  0.7546771E-02  0.1295514E+00
         21   -1    0    0  501  502  0.00000000000E+00  0.00000000000E+00  0.16513884402E+03  0.16513884402E+03  0.00000000000E+00 0. -1.
         21   -1    0    0  502  503 -0.00000000000E+00 -0.00000000000E+00 -0.22811965936E+03  0.22811965936E+03  0.00000000000E+00 0.  1.
         24    1    1    2    0    0  0.28063682147E+02 -0.62975134775E+02 -0.46232932027E+02  0.11557741048E+03  0.80419002446E+02 0.  0.
          1    1    1    2  501    0 -0.31586091368E+02  0.20510270377E+02  0.12453883913E+03  0.13010870383E+03  0.00000000000E+00 0. -1.
         -2    1    1    2    0  503  0.35224092212E+01  0.42464864398E+02 -0.14128672245E+03  0.14757238907E+03  0.00000000000E+00 0.  1.
<mgrwt>
<rscale>  2 0.93099655E+02</rscale>
<asrwt>0</asrwt>
<pdfrwt beam="1">  1       21 0.25405976E-01 0.93099655E+02</pdfrwt>
<pdfrwt beam="2">  1       21 0.35095332E-01 0.93099655E+02</pdfrwt>
<totfact> 0.11937895E+05</totfact>
</mgrwt>
</event>
<event>
 5    1  0.1696945E+000  0.1200449E+03  0.7546771E-02  0.1243023E+00
         21   -1    0    0  501  502  0.00000000000E+00  0.00000000000E+00  0.30782792414E+03  0.30782792414E+03  0.00000000000E+00 0. -1.
         21   -1    0    0  502  503 -0.00000000000E+00 -0.00000000000E+00 -0.49376030502E+02  0.49376030502E+02  0.00000000000E+00 0. -1.
         24    1    1    2    0    0  0.88139738789E+02  0.25237469307E+02  0.13286870155E+03  0.18035202027E+03  0.80419002446E+02 0. -1.
          1    1    1    2  501    0 -0.74466859845E+02  0.14716478467E+02  0.10581416563E+03  0.13022490392E+03  0.00000000000E+00 0. -1.
         -2    1    1    2    0  503 -0.13672878945E+02 -0.39953947774E+02  0.19769026465E+02  0.46627030452E+02  0.00000000000E+00 0.  1.
<mgrwt>
<rscale>  2 0.12004488E+03</rscale>
<asrwt>0</asrwt>
<pdfrwt beam="1">  1       21 0.47358141E-01 0.12004488E+03</pdfrwt>
<pdfrwt beam="2">  1       21 0.75963125E-02 0.12004488E+03</pdfrwt>
<totfact> 0.56452293E+05</totfact>
</mgrwt>
</event>
<event>
 5    1  0.1696945E+000  0.6482878E+02  0.7546771E-02  0.1378617E+00
         21   -1    0    0  503  502  0.00000000000E+00  0.00000000000E+00  0.50888667063E+03  0.50888667063E+03  0.00000000000E+00 0.  1.
         21   -1    0    0  501  503 -0.00000000000E+00 -0.00000000000E+00 -0.30034212246E+02  0.30034212246E+02  0.00000000000E+00 0. -1.
         24    1    1    2    0    0 -0.19817191020E+02  0.23653011045E+02  0.38520411290E+03  0.39471712724E+03  0.80419002446E+02 0. -1.
          1    1    1    2  501    0 -0.17392900594E+01 -0.21817952950E+02 -0.19312766909E+02  0.29189572907E+02  0.00000000000E+00 0. -1.
         -2    1    1    2    0  502  0.21556481079E+02 -0.18350580946E+01  0.11296111240E+03  0.11501418273E+03  0.00000000000E+00 0.  1.
<mgrwt>
<rscale>  2 0.64828784E+02</rscale>
<asrwt>0</asrwt>
<pdfrwt beam="1">  1       21 0.78290251E-01 0.64828784E+02</pdfrwt>
<pdfrwt beam="2">  1       21 0.46206484E-02 0.64828784E+02</pdfrwt>
<totfact> 0.45172629E+05</totfact>
</mgrwt>
</event>
<event>
 5    1  0.1696945E+000  0.9637037E+02  0.7546771E-02  0.1288119E+00
         21   -1    0    0  501  502  0.00000000000E+00  0.00000000000E+00  0.55608264204E+03  0.55608264204E+03  0.00000000000E+00 0. -1.
         21   -1    0    0  502  503 -0.00000000000E+00 -0.00000000000E+00 -0.18060316310E+03  0.18060316310E+03  0.00000000000E+00 0. -1.
         24    1    1    2    0    0 -0.21968505235E+02  0.70636764601E+02 -0.14858011217E+03  0.18443273414E+03  0.80419002446E+02 0. -1.
          1    1    1    2  501    0 -0.11254118224E+02 -0.17688560676E+02  0.46745327632E+03  0.46792318376E+03  0.00000000000E+00 0. -1.
         -2    1    1    2    0  503  0.33222623458E+02 -0.52948203926E+02  0.56606314794E+02  0.84329887246E+02  0.00000000000E+00 0.  1.
<mgrwt>
<rscale>  2 0.96370372E+02</rscale>
<asrwt>0</asrwt>
<pdfrwt beam="1">  1       21 0.85551175E-01 0.96370372E+02</pdfrwt>
<pdfrwt beam="2">  1       21 0.27785102E-01 0.96370372E+02</pdfrwt>
<totfact> 0.15748901E+04</totfact>
</mgrwt>
</event>
<event>
 5    1  0.1696945E+000  0.9724623E+02  0.7546771E-02  0.1286196E+00
         21   -1    0    0  501  502  0.00000000000E+00  0.00000000000E+00  0.19587325072E+04  0.19587325072E+04  0.00000000000E+00 0. -1.
         21   -1    0    0  502  503 -0.00000000000E+00 -0.00000000000E+00 -0.67441093314E+01  0.67441093314E+01  0.00000000000E+00 0. -1.
         24    1    1    2    0    0 -0.64172587274E+02  0.34153521482E+02  0.15244604157E+04  0.15283099683E+04  0.80419002446E+02 0. -1.
          1    1    1    2  501    0  0.45870691709E+02  0.16243884868E+01  0.29899715725E+03  0.30249968436E+03  0.00000000000E+00 0. -1.
         -2    1    1    2    0  503  0.18301895564E+02 -0.35777909969E+02  0.12853082488E+03  0.13466696391E+03  0.00000000000E+00 0.  1.
<mgrwt>
<rscale>  2 0.97246226E+02</rscale>
<asrwt>0</asrwt>
<pdfrwt beam="1">  1       21 0.30134301E+00 0.97246226E+02</pdfrwt>
<pdfrwt beam="2">  1       21 0.10375568E-02 0.97246226E+02</pdfrwt>
<totfact> 0.13070446E+05</totfact>
</mgrwt>
</event>
<event>
 5    1  0.1696945E+000  0.9601415E+02  0.7546771E-02  0.1288908E+00
         21   -1    0    0  501  502  0.00000000000E+00  0.00000000000E+00  0.22514082725E+03  0.22514082725E+03  0.00000000000E+00 0. -1.
         21   -1    0    0  502  503 -0.00000000000E+00 -0.00000000000E+00 -0.10336081049E+04  0.10336081049E+04  0.00000000000E+00 0.  1.
         24    1    1    2    0    0  0.32144638095E+02 -0.19603156911E+02 -0.84317636914E+02  0.12245097537E+03  0.80419002446E+02 0. -1.
          1    1    1    2  501    0 -0.60329447716E+02  0.36362806358E+02  0.19975523200E+03  0.21181135158E+03  0.00000000000E+00 0. -1.
         -2    1    1    2    0  503  0.28184809622E+02 -0.16759649447E+02 -0.92390487274E+03  0.92448660521E+03  0.00000000000E+00 0.  1.
<mgrwt>
<rscale>  2 0.96014148E+02</rscale>
<asrwt>0</asrwt>
<pdfrwt beam="1">  1       21 0.34637051E-01 0.96014148E+02</pdfrwt>
<pdfrwt beam="2">  1       21 0.15901663E+00 0.96014148E+02</pdfrwt>
<totfact> 0.23227957E+03</totfact>
</mgrwt>
</event>
<event>
 5    1  0.1696945E+000  0.7985761E+02  0.7546771E-02  0.1329456E+00
         21   -1    0    0  503  502  0.00000000000E+00  0.00000000000E+00  0.17433005093E+03  0.17433005093E+03  0.00000000000E+00 0. -1.
         21   -1    0    0  501  503 -0.00000000000E+00 -0.00000000000E+00 -0.54320126929E+02  0.54320126929E+02  0.00000000000E+00 0. -1.
         24    1    1    2    0    0  0.32605909102E+02  0.82211183647E+01 -0.14260582251E+01  0.87177873867E+02  0.80419002446E+02 0. -1.
          1    1    1    2  501    0 -0.51251195150E+02  0.19917971179E+01  0.83978752866E+02  0.98402658466E+02  0.00000000000E+00 0. -1.
         -2    1    1    2    0  502  0.18645286049E+02 -0.10212915483E+02  0.37457229359E+02  0.43069645526E+02  0.00000000000E+00 0.  1.
<mgrwt>
<rscale>  2 0.79857609E+02</rscale>
<asrwt>0</asrwt>
<pdfrwt beam="1">  1       21 0.26820008E-01 0.79857609E+02</pdfrwt>
<pdfrwt beam="2">  1       21 0.83569427E-02 0.79857609E+02</pdfrwt>
<totfact> 0.14503865E+06</totfact>
</mgrwt>
</event>
<event>
 5    1  0.1696945E+000  0.1057024E+03  0.7546771E-02  0.1268742E+00
         21   -1    0    0  501  502  0.00000000000E+00  0.00000000000E+00  0.53733508374E+02  0.53733508374E+02  0.00000000000E+00 0.  1.
         21   -1    0    0  502  503 -0.00000000000E+00 -0.00000000000E+00 -0.24450210012E+03  0.24450210012E+03  0.00000000000E+00 0. -1.
         24    1    1    2    0    0  0.54884159657E+02 -0.13714046834E+01 -0.65872536416E+02  0.11756087249E+03  0.80419002446E+02 0.  1.
          1    1    1    2  501    0 -0.83108185095E+02  0.11803440820E+02 -0.44877307707E+02  0.95185421111E+02  0.00000000000E+00 0. -1.
         -2    1    1    2    0  503  0.28224025438E+02 -0.10432036136E+02 -0.80018747621E+02  0.85489314892E+02  0.00000000000E+00 0.  1.
<mgrwt>
<rscale>  2 0.10570238E+03</rscale>
<asrwt>0</asrwt>
<pdfrwt beam="1">  1       21 0.82666939E-02 0.10570238E+03</pdfrwt>
<pdfrwt beam="2">  1       21 0.37615707E-01 0.10570238E+03</pdfrwt>
<totfact> 0.77507642E+05</totfact>
</mgrwt>
</event>
<event>
 5    1  0.1696945E+000  0.9168276E+02  0.7546771E-02  0.1298827E+00
         21   -1    0    0  503  502  0.00000000000E+00  0.00000000000E+00  0.46044524905E+02  0.46044524905E+02  0.00000000000E+00 0.  1.
         21   -1    0    0  501  503 -0.00000000000E+00 -0.00000000000E+00 -0.27284427645E+03  0.27284427645E+03  0.00000000000E+00 0. -1.
         24    1    1    2    0    0 -0.49436712439E+02 -0.23424142917E+02 -0.16473422497E+03  0.19130410304E+03  0.80419002446E+02 0. -1.
          1    1    1    2  501    0  0.30741818017E+02 -0.21453619061E+02 -0.68951692568E+02  0.78483457199E+02  0.00000000000E+00 0. -1.
         -2    1    1    2    0  502  0.18694894421E+02  0.44877761978E+02  0.68861659920E+01  0.49101241121E+02  0.00000000000E+00 0.  1.
<mgrwt>
<rscale>  2 0.91682761E+02</rscale>
<asrwt>0</asrwt>
<pdfrwt beam="1">  1       21 0.70837730E-02 0.91682761E+02</pdfrwt>
<pdfrwt beam="2">  1       21 0.41976043E-01 0.91682761E+02</pdfrwt>
<totfact> 0.81086859E+05</totfact>
</mgrwt>
</event>
<event>
 5    1  0.1696945E+000  0.8042295E+02  0.7546771E-02  0.1327855E+00
         21   -1    0    0  501  502  0.00000000000E+00  0.00000000000E+00  0.15551135494E+03  0.15551135494E+03  0.00000000000E+00 0. -1.
         21   -1    0    0  502  503 -0.00000000000E+00 -0.00000000000E+00 -0.44089401883E+02  0.44089401883E+02  0.00000000000E+00 0.  1.
         24    1    1    2    0    0 -0.99613510463E+00 -0.23715717005E+02  0.74288390266E+02  0.11202414205E+03  0.80419002446E+02 0.  0.
          1    1    1    2  501    0 -0.34698506951E+02  0.22355218537E+02  0.30311005632E+02  0.51210343124E+02  0.00000000000E+00 0. -1.
         -2    1    1    2    0  503  0.35694642056E+02  0.13604984677E+01  0.68225571539E+01  0.36366271650E+02  0.00000000000E+00 0.  1.
<mgrwt>
<rscale>  2 0.80422952E+02</rscale>
<asrwt>0</asrwt>
<pdfrwt beam="1">  1       21 0.23924823E-01 0.80422952E+02</pdfrwt>
<pdfrwt beam="2">  1       21 0.67829850E-02 0.80422952E+02</pdfrwt>
<totfact> 0.25583967E+06</totfact>
</mgrwt>
</event>
<event>
 5    1  0.1696945E+000  0.8826388E+02  0.7546771E-02  0.1307111E+00
         21   -1    0    0  501  502  0.00000000000E+00  0.00000000000E+00  0.72308439168E+03  0.72308439168E+03  0.00000000000E+00 0. -1.
         21   -1    0    0  502  503 -0.00000000000E+00 -0.00000000000E+00 -0.23715237096E+02  0.23715237096E+02  0.00000000000E+00 0. -1.
         24    1    1    2    0    0 -0.51489584575E+02  0.37375768231E+02  0.38244093282E+03  0.39595000748E+03  0.80419002446E+02 0.  0.
          1    1    1    2  501    0  0.45053759644E+02 -0.10383911136E+02  0.31964216747E+03  0.32296870142E+03  0.00000000000E+00 0. -1.
         -2    1    1    2    0  503  0.64358249310E+01 -0.26991857095E+02 -0.27139457111E+01  0.27880919879E+02  0.00000000000E+00 0.  1.
<mgrwt>
<rscale>  2 0.88263882E+02</rscale>
<asrwt>0</asrwt>
<pdfrwt beam="1">  1       21 0.11124374E+00 0.88263882E+02</pdfrwt>
<pdfrwt beam="2">  1       21 0.36484986E-02 0.88263882E+02</pdfrwt>
<totfact> 0.29906217E+05</totfact>
</mgrwt>
</event>
<event>
 5    1  0.1696945E+000  0.7670798E+02  0.7546771E-02  0.1338662E+00
         21   -1    0    0  503  502  0.00000000000E+00  0.00000000000E+00  0.12776894740E+03  0.12776894740E+03  0.00000000000E+00 0. -1.
         21   -1    0    0  501  503 -0.00000000000E+00 -0.00000000000E+00 -0.62787263168E+02  0.62787263168E+02  0.00000000000E+00 0. -1.
         24    1    1    2    0    0 -0.30174080115E+02  0.46122426699E+02  0.13019318064E+02  0.98358893612E+02  0.80419002446E+02 0. -1.
          1    1    1    2  501    0  0.14431588034E+02 -0.30510227440E+02 -0.20480640897E+01  0.33813300314E+02  0.00000000000E+00 0. -1.
         -2    1    1    2    0  502  0.15742492081E+02 -0.15612199259E+02  0.54010430260E+02  0.58384016645E+02  0.00000000000E+00 0.  1.
<mgrwt>
<rscale>  2 0.76707978E+02</rscale>
<asrwt>0</asrwt>
<pdfrwt beam="1">  1       21 0.19656761E-01 0.76707978E+02</pdfrwt>
<pdfrwt beam="2">  1       21 0.96595790E-02 0.76707978E+02</pdfrwt>
<totfact> 0.20061534E+06</totfact>
</mgrwt>
</event>
<event>
 5    1  0.1696945E+000  0.7312648E+02  0.7546771E-02  0.1349773E+00
         21   -1    0    0  501  502  0.00000000000E+00  0.00000000000E+00  0.60473883198E+02  0.60473883198E+02  0.00000000000E+00 0. -1.
         21   -1    0    0  502  503 -0.00000000000E+00 -0.00000000000E+00 -0.11023003330E+03  0.11023003330E+03  0.00000000000E+00 0.  1.
         24    1    1    2    0    0 -0.80261431882E+01 -0.33063085439E+02 -0.17999927814E+02  0.89156042694E+02  0.80419002446E+02 0. -1.
          1    1    1    2  501    0  0.28395846394E+02  0.18443328732E+02  0.77701188503E+01  0.34739821734E+02  0.00000000000E+00 0. -1.
         -2    1    1    2    0  503 -0.20369703206E+02  0.14619756707E+02 -0.39526341139E+02  0.46808052072E+02  0.00000000000E+00 0.  1.
<mgrwt>
<rscale>  2 0.73126484E+02</rscale>
<asrwt>0</asrwt>
<pdfrwt beam="1">  1       21 0.93036745E-02 0.73126484E+02</pdfrwt>
<pdfrwt beam="2">  1       21 0.16958466E-01 0.73126484E+02</pdfrwt>
<totfact> 0.27864061E+06</totfact>
</mgrwt>
</event>
<event>
 5    1  0.1696945E+000  0.1307352E+03  0.7546771E-02  0.1226369E+00
         21   -1    0    0  503  502  0.00000000000E+00  0.00000000000E+00  0.10071410068E+03  0.10071410068E+03  0.00000000000E+00 0.  1.
         21   -1    0    0  501  503 -0.00000000000E+00 -0.00000000000E+00 -0.33551261940E+03  0.33551261940E+03  0.00000000000E+00 0. -1.
         24    1    1    2    0    0  0.39428915071E+02  0.23406205585E+02  0.11323186987E+02  0.93262641618E+02  0.80419002446E+02 0.  1.
          1    1    1    2  501    0 -0.57634227238E+02  0.60194775731E+02 -0.24349722175E+03  0.25736357973E+03  0.00000000000E+00 0. -1.
         -2    1    1    2    0  502  0.18205312166E+02 -0.83600981316E+02 -0.26244839624E+01  0.85600498738E+02  0.00000000000E+00 0.  1.
<mgrwt>
<rscale>  2 0.13073516E+03</rscale>
<asrwt>0</asrwt>
<pdfrwt beam="1">  1       21 0.15494477E-01 0.13073516E+03</pdfrwt>
<pdfrwt beam="2">  1       21 0.51617325E-01 0.13073516E+03</pdfrwt>
<totfact> 0.13464922E+05</totfact>
</mgrwt>
</event>
<event>
 5    1  0.1696945E+000  0.8037753E+02  0.7546771E-02  0.1327983E+00
         21   -1    0    0  503  502  0.00000000000E+00  0.00000000000E+00  0.60908153746E+02  0.60908153746E+02  0.00000000000E+00 0. -1.
         21   -1    0    0  501  503 -0.00000000000E+00 -0.00000000000E+00 -0.28772245266E+03  0.28772245266E+03  0.00000000000E+00 0. -1.
         24    1    1    2    0    0  0.46185699578E+02 -0.38039375049E+02 -0.73066184240E+00  0.10023902793E+03  0.80419002446E+02 0.  0.
          1    1    1    2  501    0 -0.15711716025E+02  0.18707715108E+02 -0.20529544948E+03  0.20674394357E+03  0.00000000000E+00 0. -1.
         -2    1    1    2    0  502 -0.30473983553E+02  0.19331659940E+02 -0.20788187586E+02  0.41647634899E+02  0.00000000000E+00 0.  1.
<mgrwt>
<rscale>  2 0.80377531E+02</rscale>
<asrwt>0</asrwt>
<pdfrwt beam="1">  1       21 0.93704853E-02 0.80377531E+02</pdfrwt>
<pdfrwt beam="2">  1       21 0.44264992E-01 0.80377531E+02</pdfrwt>
<totfact> 0.45197011E+05</totfact>
</mgrwt>
</event>
<event>
 5    1  0.1696945E+000  0.7419404E+02  0.7546771E-02  0.1346385E+00
         21   -1    0    0  501  502  0.00000000000E+00  0.00000000000E+00  0.63857316988E+02  0.63857316988E+02  0.00000000000E+00 0. -1.
         21   -1    0    0  502  503 -0.00000000000E+00 -0.00000000000E+00 -0.13716631069E+04  0.13716631069E+04  0.00000000000E+00 0.  1.
         24    1    1    2    0    0 -0.66334208392E+01  0.54602576031E+01 -0.11010652855E+03  0.13661800858E+03  0.80419002446E+02 0.  1.
          1    1    1    2  501    0  0.36256934947E+02  0.38464351921E+01  0.43814381538E+02  0.57000530041E+02  0.00000000000E+00 0. -1.
         -2    1    1    2    0  503 -0.29623514108E+02 -0.93066927952E+01 -0.12415136429E+04  0.12419018853E+04  0.00000000000E+00 0.  1.
<mgrwt>
<rscale>  2 0.74194043E+02</rscale>
<asrwt>0</asrwt>
<pdfrwt beam="1">  1       21 0.98242025E-02 0.74194043E+02</pdfrwt>
<pdfrwt beam="2">  1       21 0.21102510E+00 0.74194043E+02</pdfrwt>
<totfact> 0.11080185E+04</totfact>
</mgrwt>
</event>
<event>
 5    1  0.1696945E+000  0.8366601E+02  0.7546771E-02  0.1318958E+00
         21   -1    0    0  501  502  0.00000000000E+00  0.00000000000E+00  0.40666376427E+02  0.40666376427E+02  0.00000000000E+00 0. -1.
         21   -1    0    0  502  503 -0.00000000000E+00 -0.00000000000E+00 -0.67458088756E+03  0.67458088756E+03  0.00000000000E+00 0. -1.
         24    1    1    2    0    0 -0.63782642324E+02  0.77844886718E+01 -0.48096350764E+03  0.49185560418E+03  0.80419002446E+02 0. -1.
          1    1    1    2  501    0  0.23856877311E+02 -0.85420094919E+00  0.28668509072E+02  0.37306348879E+02  0.00000000000E+00 0. -1.
         -2    1    1    2    0  503  0.39925765013E+02 -0.69302877226E+01 -0.18161951257E+03  0.18608531093E+03  0.00000000000E+00 0.  1.
<mgrwt>
<rscale>  2 0.83666005E+02</rscale>
<asrwt>0</asrwt>
<pdfrwt beam="1">  1       21 0.62563657E-02 0.83666005E+02</pdfrwt>
<pdfrwt beam="2">  1       21 0.10378167E+00 0.83666005E+02</pdfrwt>
<totfact> 0.14414570E+05</totfact>
</mgrwt>
</event>
<event>
 5    1  0.1696945E+000  0.8628435E+02  0.7546771E-02  0.1312108E+00
         21   -1    0    0  501  502  0.00000000000E+00  0.00000000000E+00  0.20459800673E+02  0.20459800673E+02  0.00000000000E+00 0. -1.
         21   -1    0    0  502  503 -0.00000000000E+00 -0.00000000000E+00 -0.67404299755E+03  0.67404299755E+03  0.00000000000E+00 0. -1.
         24    1    1    2    0    0 -0.49351350752E+01  0.60174121209E+02 -0.20457533135E+03  0.22795517668E+03  0.80419002446E+02 0. -1.
          1    1    1    2  501    0  0.21353227158E+02 -0.44264710559E+02 -0.63184539418E+02  0.80047554194E+02  0.00000000000E+00 0. -1.
         -2    1    1    2    0  503 -0.16418092082E+02 -0.15909410650E+02 -0.38582332611E+03  0.38650006735E+03  0.00000000000E+00 0.  1.
<mgrwt>
<rscale>  2 0.86284345E+02</rscale>
<asrwt>0</asrwt>
<pdfrwt beam="1">  1       21 0.31476617E-02 0.86284345E+02</pdfrwt>
<pdfrwt beam="2">  1       21 0.10369892E+00 0.86284345E+02</pdfrwt>
<totfact> 0.44897274E+05</totfact>
</mgrwt>
</event>
<event>
 5    1  0.1696945E+000  0.1811681E+03  0.7546771E-02  0.1166677E+00
         21   -1    0    0  501  502  0.00000000000E+00  0.00000000000E+00  0.20899711471E+03  0.20899711471E+03  0.00000000000E+00 0.  1.
         21   -1    0    0  502  503 -0.00000000000E+00 -0.00000000000E+00 -0.19115664141E+03  0.19115664141E+03  0.00000000000E+00 0.  1.
         24    1    1    2    0    0  0.48644292013E+01  0.16904483082E+03  0.13558306856E+02  0.18775212686E+03  0.80419002446E+02 0.  1.
          1    1    1    2  501    0  0.14030481681E+02 -0.17853597145E+02  0.48664948294E+02  0.53701792705E+02  0.00000000000E+00 0. -1.
         -2    1    1    2    0  503 -0.18894910882E+02 -0.15119123368E+03 -0.44382781848E+02  0.15869983656E+03  0.00000000000E+00 0.  1.
<mgrwt>
<rscale>  2 0.18116811E+03</rscale>
<asrwt>0</asrwt>
<pdfrwt beam="1">  1       21 0.32153402E-01 0.18116811E+03</pdfrwt>
<pdfrwt beam="2">  1       21 0.29408714E-01 0.18116811E+03</pdfrwt>
<totfact> 0.10350691E+05</totfact>
</mgrwt>
</event>
<event>
 5    1  0.1696945E+000  0.9085400E+02  0.7546771E-02  0.1300797E+00
         21   -1    0    0  501  502  0.00000000000E+00  0.00000000000E+00  0.52449519565E+02  0.52449519565E+02  0.00000000000E+00 0. -1.
         21   -1    0    0  502  503 -0.00000000000E+00 -0.00000000000E+00 -0.16586170242E+03  0.16586170242E+03  0.00000000000E+00 0.  1.
         24    1    1    2    0    0  0.22410351336E+02 -0.11433990898E+02 -0.77207396613E+02  0.11428542357E+03  0.80419002446E+02 0.  1.
          1    1    1    2  501    0 -0.33192580348E+02 -0.35903289426E+02 -0.16103460027E+02  0.51479267736E+02  0.00000000000E+00 0. -1.
         -2    1    1    2    0  503  0.10782229012E+02  0.47337280324E+02 -0.20101326218E+02  0.52546530681E+02  0.00000000000E+00 0.  1.
<mgrwt>
<rscale>  2 0.90853998E+02</rscale>
<asrwt>0</asrwt>
<pdfrwt beam="1">  1       21 0.80691569E-02 0.90853998E+02</pdfrwt>
<pdfrwt beam="2">  1       21 0.25517185E-01 0.90853998E+02</pdfrwt>
<totfact> 0.16982606E+06</totfact>
</mgrwt>
</event>
<event>
 5    1  0.1696945E+000  0.8580183E+02  0.7546771E-02  0.1313349E+00
         21   -1    0    0  501  502  0.00000000000E+00  0.00000000000E+00  0.34040245059E+03  0.34040245059E+03  0.00000000000E+00 0. -1.
         21   -1    0    0  502  503 -0.00000000000E+00 -0.00000000000E+00 -0.35231381095E+03  0.35231381095E+03  0.00000000000E+00 0.  1.
         24    1    1    2    0    0  0.37055631357E+02  0.18903524040E+01 -0.10886876300E+03  0.14034356686E+03  0.80419002446E+02 0.  0.
          1    1    1    2  501    0  0.17250583934E+02  0.18254232516E+02  0.32048234909E+03  0.32146498367E+03  0.00000000000E+00 0. -1.
         -2    1    1    2    0  503 -0.54306215291E+02 -0.20144584920E+02 -0.22352494645E+03  0.23090771101E+03  0.00000000000E+00 0.  1.
<mgrwt>
<rscale>  2 0.85801834E+02</rscale>
<asrwt>0</asrwt>
<pdfrwt beam="1">  1       21 0.52369608E-01 0.85801834E+02</pdfrwt>
<pdfrwt beam="2">  1       21 0.54202125E-01 0.85801834E+02</pdfrwt>
<totfact> 0.12202170E+04</totfact>
</mgrwt>
</event>
<event>
 5    1  0.2776996E+000  0.9916211E+02  0.7546771E-02  0.1282068E+00
         21   -1    0    0  503  502  0.00000000000E+00  0.00000000000E+00  0.15188557040E+03  0.15188557040E+03  0.00000000000E+00 0.  1.
         21   -1    0    0  501  503 -0.00000000000E+00 -0.00000000000E+00 -0.27499472690E+03  0.27499472690E+03  0.00000000000E+00 0. -1.
         24    1    1    2    0    0  0.22861707901E+02  0.34393869142E+02  0.10722044511E+03  0.14024633944E+03  0.80419002446E+02 0.  1.
          1    1    1    2  501    0 -0.53634723306E+02  0.93432525977E+01 -0.22657510627E+03  0.23302415903E+03  0.00000000000E+00 0. -1.
         -2    1    1    2    0  502  0.30773015405E+02 -0.43737121740E+02 -0.37544953406E+01  0.53609798829E+02  0.00000000000E+00 0.  1.
<mgrwt>
<rscale>  2 0.99162109E+02</rscale>
<asrwt>0</asrwt>
<pdfrwt beam="1">  1       21 0.23367011E-01 0.99162109E+02</pdfrwt>
<pdfrwt beam="2">  1       21 0.42306881E-01 0.99162109E+02</pdfrwt>
<totfact> 0.96262807E+04</totfact>
</mgrwt>
</event>
<event>
 5    1  0.1696945E+000  0.7150476E+02  0.7546771E-02  0.1355050E+00
         21   -1    0    0  503  502  0.00000000000E+00  0.00000000000E+00  0.39332289865E+03  0.39332289865E+03  0.00000000000E+00 0.  1.
         21   -1    0    0  501  503 -0.00000000000E+00 -0.00000000000E+00 -0.28835337975E+03  0.28835337975E+03  0.00000000000E+00 0. -1.
         24    1    1    2    0    0 -0.10501513621E+02 -0.64427986044E+01 -0.11754007425E+03  0.14294990889E+03  0.80419002446E+02 0.  1.
          1    1    1    2  501    0  0.93141921720E+01 -0.26808134873E+02 -0.15609936090E+03  0.15865825142E+03  0.00000000000E+00 0. -1.
         -2    1    1    2    0  502  0.11873214485E+01  0.33250933477E+02  0.37860895404E+03  0.38006811809E+03  0.00000000000E+00 0.  1.
<mgrwt>
<rscale>  2 0.71504755E+02</rscale>
<asrwt>0</asrwt>
<pdfrwt beam="1">  1       21 0.60511215E-01 0.71504755E+02</pdfrwt>
<pdfrwt beam="2">  1       21 0.44362058E-01 0.71504755E+02</pdfrwt>
<totfact> 0.13848414E+04</totfact>
</mgrwt>
</event>
<event>
 5    1  0.1696945E+000  0.1486363E+03  0.7546771E-02  0.1202159E+00
         21   -1    0    0  503  502  0.00000000000E+00  0.00000000000E+00  0.45553207869E+02  0.45553207869E+02  0.00000000000E+00 0.  1.
         21   -1    0    0  501  503 -0.00000000000E+00 -0.00000000000E+00 -0.57131322792E+03  0.57131322792E+03  0.00000000000E+00 0. -1.
         24    1    1    2    0    0 -0.43623437879E+02 -0.81962858943E+02 -0.34248977270E+03  0.36385075915E+03  0.80419002446E+02 0. -1.
          1    1    1    2  501    0  0.45057818615E+02 -0.35255587558E+02 -0.60271585745E+02  0.83101308778E+02  0.00000000000E+00 0. -1.
         -2    1    1    2    0  502 -0.14343807365E+01  0.11721844650E+03 -0.12299866161E+03  0.16991436787E+03  0.00000000000E+00 0.  1.
<mgrwt>
<rscale>  2 0.14863627E+03</rscale>
<asrwt>0</asrwt>
<pdfrwt beam="1">  1       21 0.70081859E-02 0.14863627E+03</pdfrwt>
<pdfrwt beam="2">  1       21 0.87894342E-01 0.14863627E+03</pdfrwt>
<totfact> 0.16999769E+05</totfact>
</mgrwt>
</event>
<event>
 5    1  0.1696945E+000  0.7370326E+02  0.7546771E-02  0.1347934E+00
         21   -1    0    0  501  502  0.00000000000E+00  0.00000000000E+00  0.13257278216E+03  0.13257278216E+03  0.00000000000E+00 0. -1.
         21   -1    0    0  502  503 -0.00000000000E+00 -0.00000000000E+00 -0.21012592751E+03  0.21012592751E+03  0.00000000000E+00 0.  1.
         24    1    1    2    0    0 -0.36983250290E+02 -0.30569893386E+02  0.34910335073E+02  0.99941115828E+02  0.80419002446E+02 0.  1.
          1    1    1    2  501    0  0.13684633183E+02  0.26892240514E+02  0.60810783408E+02  0.67885294165E+02  0.00000000000E+00 0. -1.
         -2    1    1    2    0  503  0.23298617107E+02  0.36776528725E+01 -0.17327426383E+03  0.17487229968E+03  0.00000000000E+00 0.  1.
<mgrwt>
<rscale>  2 0.73703265E+02</rscale>
<asrwt>0</asrwt>
<pdfrwt beam="1">  1       21 0.20395813E-01 0.73703265E+02</pdfrwt>
<pdfrwt beam="2">  1       21 0.32327066E-01 0.73703265E+02</pdfrwt>
<totfact> 0.21156231E+05</totfact>
</mgrwt>
</event>
<event>
 5    1  0.1696945E+000  0.9081646E+02  0.7546771E-02  0.1300886E+00
         21   -1    0    0  503  502  0.00000000000E+00  0.00000000000E+00  0.11968970293E+04  0.11968970293E+04  0.00000000000E+00 0.  1.
         21   -1    0    0  501  503 -0.00000000000E+00 -0.00000000000E+00 -0.14301003705E+02  0.14301003705E+02  0.00000000000E+00 0. -1.
         24    1    1    2    0    0  0.44726042834E+02 -0.12650771074E+02  0.79225584144E+03  0.79768226454E+03  0.80419002446E+02 0.  1.
          1    1    1    2  501    0  0.52537094126E+01  0.33996794474E+02  0.21225546721E+02  0.40421619595E+02  0.00000000000E+00 0. -1.
         -2    1    1    2    0  502 -0.49979752247E+02 -0.21346023400E+02  0.36911463740E+03  0.37309414883E+03  0.00000000000E+00 0.  1.
<mgrwt>
<rscale>  2 0.90816462E+02</rscale>
<asrwt>0</asrwt>
<pdfrwt beam="1">  1       21 0.18413793E+00 0.90816462E+02</pdfrwt>
<pdfrwt beam="2">  1       21 0.22001554E-02 0.90816462E+02</pdfrwt>
<totfact> 0.18975218E+05</totfact>
</mgrwt>
</event>
<event>
 5    1  0.1696945E+000  0.9081690E+02  0.7546771E-02  0.1300885E+00
         21   -1    0    0  503  502  0.00000000000E+00  0.00000000000E+00  0.59725817077E+03  0.59725817077E+03  0.00000000000E+00 0.  1.
         21   -1    0    0  501  503 -0.00000000000E+00 -0.00000000000E+00 -0.32056876318E+02  0.32056876318E+02  0.00000000000E+00 0.  1.
         24    1    1    2    0    0 -0.50499205002E+02 -0.42700169997E+02  0.64968319461E+02  0.12272559925E+03  0.80419002446E+02 0.  1.
          1    1    1    2  501    0  0.13590327218E+02  0.37939961074E+02  0.19688487507E+03  0.20096714077E+03  0.00000000000E+00 0. -1.
         -2    1    1    2    0  502  0.36908877784E+02  0.47602089229E+01  0.30334809993E+03  0.30562230707E+03  0.00000000000E+00 0.  1.
<mgrwt>
<rscale>  2 0.90816902E+02</rscale>
<asrwt>0</asrwt>
<pdfrwt beam="1">  1       21 0.91885864E-01 0.90816902E+02</pdfrwt>
<pdfrwt beam="2">  1       21 0.49318276E-02 0.90816902E+02</pdfrwt>
<totfact> 0.28305802E+05</totfact>
</mgrwt>
</event>
<event>
 5    1  0.1696945E+000  0.7486014E+02  0.7546771E-02  0.1344305E+00
         21   -1    0    0  501  502  0.00000000000E+00  0.00000000000E+00  0.50027899280E+02  0.50027899280E+02  0.00000000000E+00 0.  1.
         21   -1    0    0  502  503 -0.00000000000E+00 -0.00000000000E+00 -0.16672715750E+03  0.16672715750E+03  0.00000000000E+00 0. -1.
         24    1    1    2    0    0 -0.42390263064E+02 -0.94643144218E+01 -0.11664453338E+03  0.14818795758E+03  0.80419002446E+02 0. -1.
          1    1    1    2  501    0  0.18335606424E+02  0.24010388442E+02  0.17991495067E+02  0.35162296723E+02  0.00000000000E+00 0. -1.
         -2    1    1    2    0  503  0.24054656640E+02 -0.14546074020E+02 -0.18046219902E+02  0.33404802472E+02  0.00000000000E+00 0.  1.
<mgrwt>
<rscale>  2 0.74860139E+02</rscale>
<asrwt>0</asrwt>
<pdfrwt beam="1">  1       21 0.76966000E-02 0.74860139E+02</pdfrwt>
<pdfrwt beam="2">  1       21 0.25650332E-01 0.74860139E+02</pdfrwt>
<totfact> 0.18092791E+06</totfact>
</mgrwt>
</event>
<event>
 5    1  0.1696945E+000  0.9454737E+02  0.7546771E-02  0.1292199E+00
         21   -1    0    0  503  502  0.00000000000E+00  0.00000000000E+00  0.96786024006E+03  0.96786024006E+03  0.00000000000E+00 0. -1.
         21   -1    0    0  501  503 -0.00000000000E+00 -0.00000000000E+00 -0.98111863275E+01  0.98111863275E+01  0.00000000000E+00 0. -1.
         24    1    1    2    0    0  0.56423495356E+02  0.44608609134E+02  0.55108036022E+03  0.56154280177E+03  0.80419002446E+02 0. -1.
          1    1    1    2  501    0 -0.48847274612E+02 -0.15686145201E+02  0.17898269128E+03  0.18619053458E+03  0.00000000000E+00 0. -1.
         -2    1    1    2    0  502 -0.75762207437E+01 -0.28922463934E+02  0.22798600223E+03  0.22993809004E+03  0.00000000000E+00 0.  1.
<mgrwt>
<rscale>  2 0.94547366E+02</rscale>
<asrwt>0</asrwt>
<pdfrwt beam="1">  1       21 0.14890150E+00 0.94547366E+02</pdfrwt>
<pdfrwt beam="2">  1       21 0.15094140E-02 0.94547366E+02</pdfrwt>
<totfact> 0.60549876E+05</totfact>
</mgrwt>
</event>
<event>
 5    1  0.1696945E+000  0.7075974E+02  0.7546771E-02  0.1357528E+00
         21   -1    0    0  503  502  0.00000000000E+00  0.00000000000E+00  0.11862144158E+02  0.11862144158E+02  0.00000000000E+00 0. -1.
         21   -1    0    0  501  503 -0.00000000000E+00 -0.00000000000E+00 -0.11009352550E+04  0.11009352550E+04  0.00000000000E+00 0.  1.
         24    1    1    2    0    0  0.87985333971E+01 -0.31341714442E+02 -0.43438444830E+03  0.44296363523E+03  0.80419002446E+02 0.  0.
          1    1    1    2  501    0  0.14253622098E+02  0.28065772683E+02 -0.64301950835E+03  0.64378951643E+03  0.00000000000E+00 0. -1.
         -2    1    1    2    0  502 -0.23052155496E+02  0.32759417588E+01 -0.11669154147E+02  0.26044247463E+02  0.00000000000E+00 0.  1.
<mgrwt>
<rscale>  2 0.70759743E+02</rscale>
<asrwt>0</asrwt>
<pdfrwt beam="1">  1       21 0.18249455E-02 0.70759743E+02</pdfrwt>
<pdfrwt beam="2">  1       21 0.16937463E+00 0.70759743E+02</pdfrwt>
<totfact> 0.32384243E+05</totfact>
</mgrwt>
</event>
<event>
 5    1  0.1696945E+000  0.8966286E+02  0.7546771E-02  0.1303670E+00
         21   -1    0    0  503  502  0.00000000000E+00  0.00000000000E+00  0.54479194932E+02  0.54479194932E+02  0.00000000000E+00 0.  1.
         21   -1    0    0  501  503 -0.00000000000E+00 -0.00000000000E+00 -0.23495557235E+03  0.23495557235E+03  0.00000000000E+00 0. -1.
         24    1    1    2    0    0  0.37340666593E+02  0.11928748871E+02 -0.39633605977E+02  0.97850187063E+02  0.80419002446E+02 0.  1.
          1    1    1    2  501    0  0.23501516364E+02  0.95099605623E+01 -0.12167504975E+03  0.12428828727E+03  0.00000000000E+00 0. -1.
         -2    1    1    2    0  502 -0.60842182957E+02 -0.21438709433E+02 -0.19167721687E+02  0.67296292943E+02  0.00000000000E+00 0.  1.
<mgrwt>
<rscale>  2 0.89662860E+02</rscale>
<asrwt>0</asrwt>
<pdfrwt beam="1">  1       21 0.83814148E-02 0.89662860E+02</pdfrwt>
<pdfrwt beam="2">  1       21 0.36147010E-01 0.89662860E+02</pdfrwt>
<totfact> 0.81725583E+05</totfact>
</mgrwt>
</event>
<event>
 5    1  0.1696945E+000  0.9428171E+02  0.7546771E-02  0.1292802E+00
         21   -1    0    0  501  502  0.00000000000E+00  0.00000000000E+00  0.52452238527E+02  0.52452238527E+02  0.00000000000E+00 0. -1.
         21   -1    0    0  502  503 -0.00000000000E+00 -0.00000000000E+00 -0.26426745594E+03  0.26426745594E+03  0.00000000000E+00 0. -1.
         24    1    1    2    0    0  0.45548098341E+02 -0.34332492357E+02 -0.13839349733E+03  0.16992152704E+03  0.80419002446E+02 0. -1.
          1    1    1    2  501    0 -0.14837903623E+02 -0.21574311580E+02  0.20506647747E+02  0.33258636561E+02  0.00000000000E+00 0. -1.
         -2    1    1    2    0  503 -0.30710194718E+02  0.55906803938E+02 -0.93928367829E+02  0.11353953087E+03  0.00000000000E+00 0.  1.
<mgrwt>
<rscale>  2 0.94281712E+02</rscale>
<asrwt>0</asrwt>
<pdfrwt beam="1">  1       21 0.80695753E-02 0.94281712E+02</pdfrwt>
<pdfrwt beam="2">  1       21 0.40656531E-01 0.94281712E+02</pdfrwt>
<totfact> 0.69218708E+05</totfact>
</mgrwt>
</event>
<event>
 5    1  0.1696945E+000  0.6660731E+02  0.7546771E-02  0.1372025E+00
         21   -1    0    0  503  502  0.00000000000E+00  0.00000000000E+00  0.31644868758E+02  0.31644868758E+02  0.00000000000E+00 0. -1.
         21   -1    0    0  501  503 -0.00000000000E+00 -0.00000000000E+00 -0.16041077476E+03  0.16041077476E+03  0.00000000000E+00 0.  1.
         24    1    1    2    0    0  0.18033650231E+02 -0.83977481635E+00 -0.71065138740E+02  0.10882732957E+03  0.80419002446E+02 0.  0.
          1    1    1    2  501    0  0.23727016442E+01 -0.20867010136E+02 -0.47161801697E+02  0.51626518035E+02  0.00000000000E+00 0. -1.
         -2    1    1    2    0  502 -0.20406351875E+02  0.21706784953E+02 -0.10538965566E+02  0.31601795915E+02  0.00000000000E+00 0.  1.
<mgrwt>
<rscale>  2 0.66607310E+02</rscale>
<asrwt>0</asrwt>
<pdfrwt beam="1">  1       21 0.48684413E-02 0.66607310E+02</pdfrwt>
<pdfrwt beam="2">  1       21 0.24678581E-01 0.66607310E+02</pdfrwt>
<totfact> 0.41500078E+06</totfact>
</mgrwt>
</event>
<event>
 5    1  0.1696945E+000  0.1234383E+03  0.7546771E-02  0.1237530E+00
         21   -1    0    0  501  502  0.00000000000E+00  0.00000000000E+00  0.12043760938E+03  0.12043760938E+03  0.00000000000E+00 0.  1.
         21   -1    0    0  502  503 -0.00000000000E+00 -0.00000000000E+00 -0.13485397046E+03  0.13485397046E+03  0.00000000000E+00 0. -1.
         24    1    1    2    0    0  0.48588952564E+02 -0.88915131900E+02 -0.34097917127E+02  0.13377843959E+03  0.80419002446E+02 0.  0.
          1    1    1    2  501    0 -0.52924509466E+02  0.35052334427E+02  0.22637622740E+02  0.67395339708E+02  0.00000000000E+00 0. -1.
         -2    1    1    2    0  503  0.43355569016E+01  0.53862797473E+02 -0.29560666954E+01  0.54117800542E+02  0.00000000000E+00 0.  1.
<mgrwt>
<rscale>  2 0.12343833E+03</rscale>
<asrwt>0</asrwt>
<pdfrwt beam="1">  1       21 0.18528863E-01 0.12343833E+03</pdfrwt>
<pdfrwt beam="2">  1       21 0.20746765E-01 0.12343833E+03</pdfrwt>
<totfact> 0.57736197E+05</totfact>
</mgrwt>
</event>
<event>
 5    1  0.1696945E+000  0.9181330E+02  0.7546771E-02  0.1298519E+00
         21   -1    0    0  503  502  0.00000000000E+00  0.00000000000E+00  0.92010274155E+02  0.92010274155E+02  0.00000000000E+00 0.  1.
         21   -1    0    0  501  503 -0.00000000000E+00 -0.00000000000E+00 -0.11649596741E+03  0.11649596741E+03  0.00000000000E+00 0.  1.
         24    1    1    2    0    0 -0.29878238192E+02  0.51944451954E+02  0.26803136832E+02  0.10381020809E+03  0.80419002446E+02 0.  1.
          1    1    1    2  501    0  0.40158050804E+02 -0.11740775817E+02 -0.47082439868E+02  0.62986276324E+02  0.00000000000E+00 0. -1.
         -2    1    1    2    0  502 -0.10279812612E+02 -0.40203676137E+02 -0.42063902155E+01  0.41709757143E+02  0.00000000000E+00 0.  1.
<mgrwt>
<rscale>  2 0.91813299E+02</rscale>
<asrwt>0</asrwt>
<pdfrwt beam="1">  1       21 0.14155427E-01 0.91813299E+02</pdfrwt>
<pdfrwt beam="2">  1       21 0.17922457E-01 0.91813299E+02</pdfrwt>
<totfact> 0.12240118E+06</totfact>
</mgrwt>
</event>
<event>
 5    1  0.1696945E+000  0.7834027E+02  0.7546771E-02  0.1333829E+00
         21   -1    0    0  501  502  0.00000000000E+00  0.00000000000E+00  0.17412305817E+02  0.17412305817E+02  0.00000000000E+00 0.  1.
         21   -1    0    0  502  503 -0.00000000000E+00 -0.00000000000E+00 -0.51079894425E+03  0.51079894425E+03  0.00000000000E+00 0.  1.
         24    1    1    2    0    0  0.14643137342E+01 -0.26785937522E+02 -0.11397830304E+03  0.14204893587E+03  0.80419002446E+02 0.  1.
          1    1    1    2  501    0 -0.91700842152E+01 -0.21308252945E+02 -0.12107817482E+03  0.12328039790E+03  0.00000000000E+00 0. -1.
         -2    1    1    2    0  503  0.77057704810E+01  0.48094190467E+02 -0.25833016057E+03  0.26288191630E+03  0.00000000000E+00 0.  1.
<mgrwt>
<rscale>  2 0.78340271E+02</rscale>
<asrwt>0</asrwt>
<pdfrwt beam="1">  1       21 0.26788167E-02 0.78340271E+02</pdfrwt>
<pdfrwt beam="2">  1       21 0.78584441E-01 0.78340271E+02</pdfrwt>
<totfact> 0.10897137E+06</totfact>
</mgrwt>
</event>
<event>
 5    1  0.1696945E+000  0.1031896E+03  0.7546771E-02  0.1273728E+00
         21   -1    0    0  503  502  0.00000000000E+00  0.00000000000E+00  0.24940094683E+04  0.24940094683E+04  0.00000000000E+00 0. -1.
         21   -1    0    0  501  503 -0.00000000000E+00 -0.00000000000E+00 -0.20746118905E+02  0.20746118905E+02  0.00000000000E+00 0. -1.
         24    1    1    2    0    0 -0.65770969980E+02  0.47610393486E+02  0.23104665712E+04  0.23132910675E+04  0.80419002446E+02 0. -1.
          1    1    1    2  501    0 -0.44509148832E+00 -0.20570659201E+02 -0.30985313781E+01  0.20807475173E+02  0.00000000000E+00 0. -1.
         -2    1    1    2    0  502  0.66216061469E+02 -0.27039734285E+02  0.16589530958E+03  0.18065704461E+03  0.00000000000E+00 0.  1.
<mgrwt>
<rscale>  2 0.10318956E+03</rscale>
<asrwt>0</asrwt>
<pdfrwt beam="1">  1       21 0.38369353E+00 0.10318956E+03</pdfrwt>
<pdfrwt beam="2">  1       21 0.31917126E-02 0.10318956E+03</pdfrwt>
<totfact> 0.73150589E+03</totfact>
</mgrwt>
</event>
<event>
 5    1  0.1696945E+000  0.7930662E+02  0.7546771E-02  0.1331031E+00
         21   -1    0    0  501  502  0.00000000000E+00  0.00000000000E+00  0.76803877163E+02  0.76803877163E+02  0.00000000000E+00 0. -1.
         21   -1    0    0  502  503 -0.00000000000E+00 -0.00000000000E+00 -0.10611924544E+03  0.10611924544E+03  0.00000000000E+00 0.  1.
         24    1    1    2    0    0  0.60525236625E+01  0.67571250414E+01 -0.39024910631E+02  0.89846821789E+02  0.80419002446E+02 0.  1.
          1    1    1    2  501    0  0.25894694192E+02  0.22545141043E+02  0.29645532074E+02  0.45361615314E+02  0.00000000000E+00 0. -1.
         -2    1    1    2    0  503 -0.31947217854E+02 -0.29302266084E+02 -0.19935989721E+02  0.47714685501E+02  0.00000000000E+00 0.  1.
<mgrwt>
<rscale>  2 0.79306623E+02</rscale>
<asrwt>0</asrwt>
<pdfrwt beam="1">  1       21 0.11815981E-01 0.79306623E+02</pdfrwt>
<pdfrwt beam="2">  1       21 0.16326038E-01 0.79306623E+02</pdfrwt>
<totfact> 0.19805733E+06</totfact>
</mgrwt>
</event>
<event>
 5    1  0.1696945E+000  0.6198934E+02  0.7546771E-02  0.1389668E+00
         21   -1    0    0  503  502  0.00000000000E+00  0.00000000000E+00  0.22791638789E+03  0.22791638789E+03  0.00000000000E+00 0. -1.
         21   -1    0    0  501  503 -0.00000000000E+00 -0.00000000000E+00 -0.28538705804E+02  0.28538705804E+02  0.00000000000E+00 0. -1.
         24    1    1    2    0    0 -0.34983988261E+01 -0.33074745953E+00  0.43650236078E+02  0.91569139191E+02  0.80419002446E+02 0.  1.
          1    1    1    2  501    0 -0.13048166027E+02  0.16033165570E+02  0.26239179192E+02  0.33403765648E+02  0.00000000000E+00 0. -1.
         -2    1    1    2    0  502  0.16546564853E+02 -0.15702418110E+02  0.12948826681E+03  0.13148218885E+03  0.00000000000E+00 0.  1.
<mgrwt>
<rscale>  2 0.61989337E+02</rscale>
<asrwt>0</asrwt>
<pdfrwt beam="1">  1       21 0.35064059E-01 0.61989337E+02</pdfrwt>
<pdfrwt beam="2">  1       21 0.43905703E-02 0.61989337E+02</pdfrwt>
<totfact> 0.25236345E+06</totfact>
</mgrwt>
</event>
<event>
 5    1  0.1696945E+000  0.7686247E+02  0.7546771E-02  0.1338199E+00
         21   -1    0    0  501  502  0.00000000000E+00  0.00000000000E+00  0.17086714697E+03  0.17086714697E+03  0.00000000000E+00 0.  1.
         21   -1    0    0  502  503 -0.00000000000E+00 -0.00000000000E+00 -0.44244727295E+02  0.44244727295E+02  0.00000000000E+00 0.  1.
         24    1    1    2    0    0  0.39335129035E+02 -0.59913261247E+01  0.10955251249E+03  0.14160549888E+03  0.80419002446E+02 0.  1.
          1    1    1    2  501    0 -0.41454361614E+01  0.24080211993E+02  0.22929386380E+02  0.33508178260E+02  0.00000000000E+00 0. -1.
         -2    1    1    2    0  503 -0.35189692874E+02 -0.18088885868E+02 -0.58594792009E+01  0.39998197122E+02  0.00000000000E+00 0.  1.
<mgrwt>
<rscale>  2 0.76862466E+02</rscale>
<asrwt>0</asrwt>
<pdfrwt beam="1">  1       21 0.26287253E-01 0.76862466E+02</pdfrwt>
<pdfrwt beam="2">  1       21 0.68068812E-02 0.76862466E+02</pdfrwt>
<totfact> 0.21293681E+06</totfact>
</mgrwt>
</event>
<event>
 5    1  0.1696945E+000  0.8367212E+02  0.7546771E-02  0.1318942E+00
         21   -1    0    0  501  502  0.00000000000E+00  0.00000000000E+00  0.86747848116E+03  0.86747848116E+03  0.00000000000E+00 0.  1.
         21   -1    0    0  502  503 -0.00000000000E+00 -0.00000000000E+00 -0.17469288187E+02  0.17469288187E+02  0.00000000000E+00 0.  1.
         24    1    1    2    0    0  0.56584021704E+02  0.54104985260E+01  0.14588451225E+03  0.17601287418E+03  0.80419002446E+02 0.  1.
          1    1    1    2  501    0 -0.17500037837E+02 -0.20513549219E+02  0.49045334459E+03  0.49119399451E+03  0.00000000000E+00 0. -1.
         -2    1    1    2    0  503 -0.39083983867E+02  0.15103050693E+02  0.21367133613E+03  0.21774090065E+03  0.00000000000E+00 0.  1.
<mgrwt>
<rscale>  2 0.83672119E+02</rscale>
<asrwt>0</asrwt>
<pdfrwt beam="1">  1       21 0.13345819E+00 0.83672119E+02</pdfrwt>
<pdfrwt beam="2">  1       21 0.26875835E-02 0.83672119E+02</pdfrwt>
<totfact> 0.31748836E+05</totfact>
</mgrwt>
</event>
<event>
 5    1  0.1696945E+000  0.7570752E+02  0.7546771E-02  0.1341694E+00
         21   -1    0    0  501  502  0.00000000000E+00  0.00000000000E+00  0.33089872561E+01  0.33089872561E+01  0.00000000000E+00 0.  1.
         21   -1    0    0  502  503 -0.00000000000E+00 -0.00000000000E+00 -0.18044207676E+04  0.18044207676E+04  0.00000000000E+00 0. -1.
         24    1    1    2    0    0 -0.13467999512E+02  0.10292122491E+02 -0.83194203039E+03  0.83599167022E+03  0.80419002446E+02 0.  0.
          1    1    1    2  501    0 -0.26229164847E+02  0.49759612959E+01 -0.28503573331E+03  0.28628324880E+03  0.00000000000E+00 0. -1.
         -2    1    1    2    0  503  0.39697164359E+02 -0.15268083787E+02 -0.68413401660E+03  0.68545483579E+03  0.00000000000E+00 0.  1.
<mgrwt>
<rscale>  2 0.75707519E+02</rscale>
<asrwt>0</asrwt>
<pdfrwt beam="1">  1       21 0.50907562E-03 0.75707519E+02</pdfrwt>
<pdfrwt beam="2">  1       21 0.27760284E+00 0.75707519E+02</pdfrwt>
<totfact> 0.54478472E+05</totfact>
</mgrwt>
</event>
<event>
 5    1  0.1696945E+000  0.7489749E+02  0.7546771E-02  0.1344189E+00
         21   -1    0    0  503  502  0.00000000000E+00  0.00000000000E+00  0.63910750556E+03  0.63910750556E+03  0.00000000000E+00 0. -1.
         21   -1    0    0  501  503 -0.00000000000E+00 -0.00000000000E+00 -0.17689002576E+02  0.17689002576E+02  0.00000000000E+00 0. -1.
         24    1    1    2    0    0 -0.47019963047E+02 -0.14666145852E+02  0.13130627985E+03  0.16166176989E+03  0.80419002446E+02 0. -1.
          1    1    1    2  501    0  0.20749378823E+02  0.19848861354E+02  0.98284931440E+02  0.10239356311E+03  0.00000000000E+00 0. -1.
         -2    1    1    2    0  502  0.26270584224E+02 -0.51827155021E+01  0.39182729169E+03  0.39274117514E+03  0.00000000000E+00 0.  1.
<mgrwt>
<rscale>  2 0.74897495E+02</rscale>
<asrwt>0</asrwt>
<pdfrwt beam="1">  1       21 0.98324214E-01 0.74897495E+02</pdfrwt>
<pdfrwt beam="2">  1       21 0.27213855E-02 0.74897495E+02</pdfrwt>
<totfact> 0.64311180E+05</totfact>
</mgrwt>
</event>
<event>
 5    1  0.1710552E+000  0.8297407E+02  0.7546771E-02  0.1320817E+00
         21   -1    0    0  501  502  0.00000000000E+00  0.00000000000E+00  0.39787903115E+03  0.39787903115E+03  0.00000000000E+00 0. -1.
         21   -1    0    0  502  503 -0.00000000000E+00 -0.00000000000E+00 -0.13513845860E+03  0.13513845860E+03  0.00000000000E+00 0.  1.
         24    1    1    2    0    0 -0.17337727459E+02  0.28016480776E+02  0.10519924859E+03  0.13645372053E+03  0.80419002446E+02 0. -1.
          1    1    1    2  501    0 -0.21353598491E+02 -0.33739801264E+02  0.27235732955E+03  0.27526871475E+03  0.00000000000E+00 0. -1.
         -2    1    1    2    0  503  0.38691325950E+02  0.57233204882E+01 -0.11481600559E+03  0.12129505448E+03  0.00000000000E+00 0.  1.
<mgrwt>
<rscale>  2 0.82974067E+02</rscale>
<asrwt>0</asrwt>
<pdfrwt beam="1">  1       21 0.61212158E-01 0.82974067E+02</pdfrwt>
<pdfrwt beam="2">  1       21 0.20790532E-01 0.82974067E+02</pdfrwt>
<totfact> 0.56613699E+04</totfact>
</mgrwt>
</event>
<event>
 5    1  0.1696945E+000  0.8852272E+02  0.7546771E-02  0.1306469E+00
         21   -1    0    0  503  502  0.00000000000E+00  0.00000000000E+00  0.18119749086E+03  0.18119749086E+03  0.00000000000E+00 0. -1.
         21   -1    0    0  501  503 -0.00000000000E+00 -0.00000000000E+00 -0.47709614524E+02  0.47709614524E+02  0.00000000000E+00 0.  1.
         24    1    1    2    0    0  0.58507339632E+02 -0.13246634000E+02  0.92211622297E+02  0.13626731576E+03  0.80419002446E+02 0. -1.
          1    1    1    2  501    0 -0.36386683403E+01  0.20991396330E+02 -0.32544432675E+01  0.21551566721E+02  0.00000000000E+00 0. -1.
         -2    1    1    2    0  502 -0.54868671292E+02 -0.77447623301E+01  0.44530697306E+02  0.71088222902E+02  0.00000000000E+00 0.  1.
<mgrwt>
<rscale>  2 0.88522722E+02</rscale>
<asrwt>0</asrwt>
<pdfrwt beam="1">  1       21 0.27876537E-01 0.88522722E+02</pdfrwt>
<pdfrwt beam="2">  1       21 0.73399408E-02 0.88522722E+02</pdfrwt>
<totfact> 0.16878260E+06</totfact>
</mgrwt>
</event>
<event>
 5    1  0.1696945E+000  0.1056023E+03  0.7546771E-02  0.1268937E+00
         21   -1    0    0  501  502  0.00000000000E+00  0.00000000000E+00  0.89008455580E+02  0.89008455580E+02  0.00000000000E+00 0. -1.
         21   -1    0    0  502  503 -0.00000000000E+00 -0.00000000000E+00 -0.21050223209E+03  0.21050223209E+03  0.00000000000E+00 0. -1.
         24    1    1    2    0    0  0.64063430483E+02  0.58312337337E+02 -0.64543469915E+02  0.13467563727E+03  0.80419002446E+02 0. -1.
          1    1    1    2  501    0 -0.12420815753E+02 -0.33460852242E+02  0.39128351309E+02  0.52961619810E+02  0.00000000000E+00 0. -1.
         -2    1    1    2    0  503 -0.51642614730E+02 -0.24851485095E+02 -0.96078657902E+02  0.11187343059E+03  0.00000000000E+00 0.  1.
<mgrwt>
<rscale>  2 0.10560233E+03</rscale>
<asrwt>0</asrwt>
<pdfrwt beam="1">  1       21 0.13693609E-01 0.10560233E+03</pdfrwt>
<pdfrwt beam="2">  1       21 0.32384958E-01 0.10560233E+03</pdfrwt>
<totfact> 0.42971260E+05</totfact>
</mgrwt>
</event>
<event>
 5    1  0.1696945E+000  0.1116469E+03  0.7546771E-02  0.1257550E+00
         21   -1    0    0  503  502  0.00000000000E+00  0.00000000000E+00  0.61569065419E+03  0.61569065419E+03  0.00000000000E+00 0.  1.
         21   -1    0    0  501  503 -0.00000000000E+00 -0.00000000000E+00 -0.20758788530E+02  0.20758788530E+02  0.00000000000E+00 0. -1.
         24    1    1    2    0    0  0.33909264806E+02  0.23096345241E+01  0.19625564603E+03  0.21479913222E+03  0.80419002446E+02 0.  1.
          1    1    1    2  501    0 -0.48263719752E+02  0.57159602568E+02  0.24768401494E+03  0.25873534367E+03  0.00000000000E+00 0. -1.
         -2    1    1    2    0  502  0.14354454945E+02 -0.59469237092E+02  0.15099220469E+03  0.16291496683E+03  0.00000000000E+00 0.  1.
<mgrwt>
<rscale>  2 0.11164694E+03</rscale>
<asrwt>0</asrwt>
<pdfrwt beam="1">  1       21 0.94721625E-01 0.11164694E+03</pdfrwt>
<pdfrwt beam="2">  1       21 0.31936602E-02 0.11164694E+03</pdfrwt>
<totfact> 0.53898128E+05</totfact>
</mgrwt>
</event>
<event>
 5    1  0.1696945E+000  0.6828431E+02  0.7546771E-02  0.1366026E+00
         21   -1    0    0  503  502  0.00000000000E+00  0.00000000000E+00  0.21032815133E+04  0.21032815133E+04  0.00000000000E+00 0. -1.
         21   -1    0    0  501  503 -0.00000000000E+00 -0.00000000000E+00 -0.36225008869E+01  0.36225008869E+01  0.00000000000E+00 0.  1.
         24    1    1    2    0    0 -0.12841336109E+02 -0.12274457689E+02  0.63505830530E+03  0.64037631851E+03  0.80419002446E+02 0.  1.
          1    1    1    2  501    0 -0.11714307562E+02  0.24219836692E+02  0.22161837005E+03  0.22324544214E+03  0.00000000000E+00 0. -1.
         -2    1    1    2    0  502  0.24555643671E+02 -0.11945379003E+02  0.12429823371E+04  0.12432822536E+04  0.00000000000E+00 0.  1.
<mgrwt>
<rscale>  2 0.68284310E+02</rscale>
<asrwt>0</asrwt>
<pdfrwt beam="1">  1       21 0.32358080E+00 0.68284310E+02</pdfrwt>
<pdfrwt beam="2">  1       21 0.55730951E-03 0.68284310E+02</pdfrwt>
<totfact> 0.27106897E+05</totfact>
</mgrwt>
</event>
<event>
 5    1  0.1696945E+000  0.6553985E+02  0.7546771E-02  0.1375952E+00
         21   -1    0    0  503  502  0.00000000000E+00  0.00000000000E+00  0.29542096275E+03  0.29542096275E+03  0.00000000000E+00 0.  1.
         21   -1    0    0  501  503 -0.00000000000E+00 -0.00000000000E+00 -0.25618903540E+02  0.25618903540E+02  0.00000000000E+00 0. -1.
         24    1    1    2    0    0 -0.56219401843E+01 -0.23864784073E+02  0.58918305840E+02  0.10266312311E+03  0.80419002446E+02 0. -1.
          1    1    1    2  501    0 -0.17390983571E+02  0.11862241903E+02  0.37024100498E+02  0.42590411013E+02  0.00000000000E+00 0. -1.
         -2    1    1    2    0  502  0.23012923756E+02  0.12002542170E+02  0.17385965287E+03  0.17578633216E+03  0.00000000000E+00 0.  1.
<mgrwt>
<rscale>  2 0.65539851E+02</rscale>
<asrwt>0</asrwt>
<pdfrwt beam="1">  1       21 0.45449376E-01 0.65539851E+02</pdfrwt>
<pdfrwt beam="2">  1       21 0.39413700E-02 0.65539851E+02</pdfrwt>
<totfact> 0.18167581E+06</totfact>
</mgrwt>
</event>
<event>
 5    1  0.1696945E+000  0.7353071E+02  0.7546771E-02  0.1348482E+00
         21   -1    0    0  503  502  0.00000000000E+00  0.00000000000E+00  0.13476693486E+04  0.13476693486E+04  0.00000000000E+00 0.  1.
         21   -1    0    0  501  503 -0.00000000000E+00 -0.00000000000E+00 -0.96774780827E+01  0.96774780827E+01  0.00000000000E+00 0.  1.
         24    1    1    2    0    0  0.22388317238E+02 -0.11241864310E+02  0.24905942498E+03  0.26291715309E+03  0.80419002446E+02 0.  1.
          1    1    1    2  501    0  0.19509570560E+02  0.69624884004E+01  0.43825406268E+02  0.48474383160E+02  0.00000000000E+00 0. -1.
         -2    1    1    2    0  502 -0.41897887797E+02  0.42793759091E+01  0.10451070393E+04  0.10459552905E+04  0.00000000000E+00 0.  1.
<mgrwt>
<rscale>  2 0.73530705E+02</rscale>
<asrwt>0</asrwt>
<pdfrwt beam="1">  1       21 0.20733360E+00 0.73530705E+02</pdfrwt>
<pdfrwt beam="2">  1       21 0.14888438E-02 0.73530705E+02</pdfrwt>
<totfact> 0.25683270E+05</totfact>
</mgrwt>
</event>
<event>
 5    1  0.1696945E+000  0.8613521E+02  0.7546771E-02  0.1312490E+00
         21   -1    0    0  503  502  0.00000000000E+00  0.00000000000E+00  0.10455758662E+04  0.10455758662E+04  0.00000000000E+00 0. -1.
         21   -1    0    0  501  503 -0.00000000000E+00 -0.00000000000E+00 -0.16590539369E+02  0.16590539369E+02  0.00000000000E+00 0. -1.
         24    1    1    2    0    0  0.49095585831E+02  0.16975359347E+01  0.80660917971E+03  0.81209534103E+03  0.80419002446E+02 0. -1.
          1    1    1    2  501    0 -0.18754255577E+01  0.24136365368E+02  0.32442897506E+01  0.24425535207E+02  0.00000000000E+00 0. -1.
         -2    1    1    2    0  502 -0.47220160273E+02 -0.25833901302E+02  0.21913185741E+03  0.22564552937E+03  0.00000000000E+00 0.  1.
<mgrwt>
<rscale>  2 0.86135208E+02</rscale>
<asrwt>0</asrwt>
<pdfrwt beam="1">  1       21 0.16085777E+00 0.86135208E+02</pdfrwt>
<pdfrwt beam="2">  1       21 0.25523915E-02 0.86135208E+02</pdfrwt>
<totfact> 0.21495499E+05</totfact>
</mgrwt>
</event>
<event>
 5    1  0.1696945E+000  0.9558367E+02  0.7546771E-02  0.1289867E+00
         21   -1    0    0  501  502  0.00000000000E+00  0.00000000000E+00  0.17762067288E+03  0.17762067288E+03  0.00000000000E+00 0. -1.
         21   -1    0    0  502  503 -0.00000000000E+00 -0.00000000000E+00 -0.62998631636E+02  0.62998631636E+02  0.00000000000E+00 0.  1.
         24    1    1    2    0    0  0.22369310635E+02 -0.61707938581E+02  0.50291828500E+02  0.11534617337E+03  0.80419002446E+02 0.  1.
          1    1    1    2  501    0  0.19708332784E+02  0.17985236148E+02  0.58518763085E+02  0.64314327590E+02  0.00000000000E+00 0. -1.
         -2    1    1    2    0  503 -0.42077643419E+02  0.43722702433E+02  0.58114496550E+01  0.60958803555E+02  0.00000000000E+00 0.  1.
<mgrwt>
<rscale>  2 0.95583669E+02</rscale>
<asrwt>0</asrwt>
<pdfrwt beam="1">  1       21 0.27326257E-01 0.95583669E+02</pdfrwt>
<pdfrwt beam="2">  1       21 0.96920973E-02 0.95583669E+02</pdfrwt>
<totfact> 0.10904010E+06</totfact>
</mgrwt>
</event>
<event>
 5    1  0.1696945E+000  0.7891529E+02  0.7546771E-02  0.1332158E+00
         21   -1    0    0  501  502  0.00000000000E+00  0.00000000000E+00  0.32703160106E+03  0.32703160106E+03  0.00000000000E+00 0.  1.
         21   -1    0    0  502  503 -0.00000000000E+00 -0.00000000000E+00 -0.44822409413E+02  0.44822409413E+02  0.00000000000E+00 0. -1.
         24    1    1    2    0    0 -0.30646335031E+02 -0.26585773703E+02  0.22086954671E+03  0.23853002711E+03  0.80419002446E+02 0.  0.
          1    1    1    2  501    0  0.44585730834E+02  0.92897406202E+01  0.87719019486E+02  0.98837305985E+02  0.00000000000E+00 0. -1.
         -2    1    1    2    0  503 -0.13939395803E+02  0.17296033083E+02 -0.26379374543E+02  0.34486677385E+02  0.00000000000E+00 0.  1.
<mgrwt>
<rscale>  2 0.78915294E+02</rscale>
<asrwt>0</asrwt>
<pdfrwt beam="1">  1       21 0.50312552E-01 0.78915294E+02</pdfrwt>
<pdfrwt beam="2">  1       21 0.68957555E-02 0.78915294E+02</pdfrwt>
<totfact> 0.58842045E+05</totfact>
</mgrwt>
</event>
<event>
 5    1  0.1696945E+000  0.7814925E+02  0.7546771E-02  0.1334387E+00
         21   -1    0    0  501  502  0.00000000000E+00  0.00000000000E+00  0.44509817713E+02  0.44509817713E+02  0.00000000000E+00 0. -1.
         21   -1    0    0  502  503 -0.00000000000E+00 -0.00000000000E+00 -0.14365485640E+03  0.14365485640E+03  0.00000000000E+00 0.  1.
         24    1    1    2    0    0  0.12931516044E+02  0.29089317008E+02 -0.34993037196E+02  0.93301345530E+02  0.80419002446E+02 0.  0.
          1    1    1    2  501    0 -0.34566869804E+02 -0.33036901535E+02 -0.41878770218E+02  0.63562070027E+02  0.00000000000E+00 0. -1.
         -2    1    1    2    0  503  0.21635353760E+02  0.39475845270E+01 -0.22273231274E+02  0.31301258558E+02  0.00000000000E+00 0.  1.
<mgrwt>
<rscale>  2 0.78149247E+02</rscale>
<asrwt>0</asrwt>
<pdfrwt beam="1">  1       21 0.68476642E-02 0.78149247E+02</pdfrwt>
<pdfrwt beam="2">  1       21 0.22100747E-01 0.78149247E+02</pdfrwt>
<totfact> 0.29110131E+06</totfact>
</mgrwt>
</event>
<event>
 5    1  0.1696945E+000  0.1195829E+03  0.7546771E-02  0.1243787E+00
         21   -1    0    0  501  502  0.00000000000E+00  0.00000000000E+00  0.10441280354E+04  0.10441280354E+04  0.00000000000E+00 0.  1.
         21   -1    0    0  502  503 -0.00000000000E+00 -0.00000000000E+00 -0.20669989152E+02  0.20669989152E+02  0.00000000000E+00 0.  1.
         24    1    1    2    0    0 -0.95522868538E+02  0.14452573552E+02  0.25542969846E+03  0.28468410933E+03  0.80419002446E+02 0.  1.
          1    1    1    2  501    0  0.34976619774E+01 -0.20922268864E+02  0.40473659212E+03  0.40529209710E+03  0.00000000000E+00 0. -1.
         -2    1    1    2    0  503  0.92025206561E+02  0.64696953119E+01  0.36329175563E+03  0.37482181808E+03  0.00000000000E+00 0.  1.
<mgrwt>
<rscale>  2 0.11958292E+03</rscale>
<asrwt>0</asrwt>
<pdfrwt beam="1">  1       21 0.16063504E+00 0.11958292E+03</pdfrwt>
<pdfrwt beam="2">  1       21 0.31799992E-02 0.11958292E+03</pdfrwt>
<totfact> 0.14810045E+05</totfact>
</mgrwt>
</event>
<event>
 5    1  0.1696945E+000  0.1284613E+03  0.7546771E-02  0.1229757E+00
         21   -1    0    0  501  502  0.00000000000E+00  0.00000000000E+00  0.25088237430E+03  0.25088237430E+03  0.00000000000E+00 0. -1.
         21   -1    0    0  502  503 -0.00000000000E+00 -0.00000000000E+00 -0.18322718990E+03  0.18322718990E+03  0.00000000000E+00 0.  1.
         24    1    1    2    0    0  0.82553335791E+02 -0.17230087919E+02 -0.67380944553E+01  0.11672423506E+03  0.80419002446E+02 0. -1.
          1    1    1    2  501    0 -0.68403409402E+02  0.62687989049E+02  0.17946483054E+03  0.20203077932E+03  0.00000000000E+00 0. -1.
         -2    1    1    2    0  503 -0.14149926389E+02 -0.45457901130E+02 -0.10507155168E+03  0.11535454982E+03  0.00000000000E+00 0.  1.
<mgrwt>
<rscale>  2 0.12846126E+03</rscale>
<asrwt>0</asrwt>
<pdfrwt beam="1">  1       21 0.38597288E-01 0.12846126E+03</pdfrwt>
<pdfrwt beam="2">  1       21 0.28188798E-01 0.12846126E+03</pdfrwt>
<totfact> 0.79981383E+04</totfact>
</mgrwt>
</event>
<event>
 5    1  0.1696945E+000  0.1064657E+03  0.7546771E-02  0.1267259E+00
         21   -1    0    0  501  502  0.00000000000E+00  0.00000000000E+00  0.10272985217E+03  0.10272985217E+03  0.00000000000E+00 0.  1.
         21   -1    0    0  502  503 -0.00000000000E+00 -0.00000000000E+00 -0.11421288560E+03  0.11421288560E+03  0.00000000000E+00 0.  1.
         24    1    1    2    0    0 -0.78329901848E+02 -0.51134149704E+01 -0.25988559807E+02  0.11534444820E+03  0.80419002446E+02 0.  1.
          1    1    1    2  501    0  0.12103245014E+02  0.27983241387E+02  0.48490018814E+01  0.30871721002E+02  0.00000000000E+00 0. -1.
         -2    1    1    2    0  503  0.66226656835E+02 -0.22869826417E+02  0.96565244954E+01  0.70726568566E+02  0.00000000000E+00 0.  1.
<mgrwt>
<rscale>  2 0.10646566E+03</rscale>
<asrwt>0</asrwt>
<pdfrwt beam="1">  1       21 0.15804593E-01 0.10646566E+03</pdfrwt>
<pdfrwt beam="2">  1       21 0.17571213E-01 0.10646566E+03</pdfrwt>
<totfact> 0.10447199E+06</totfact>
</mgrwt>
</event>
<event>
 5    1  0.1696945E+000  0.7510570E+02  0.7546771E-02  0.1343544E+00
         21   -1    0    0  503  502  0.00000000000E+00  0.00000000000E+00  0.32766022991E+03  0.32766022991E+03  0.00000000000E+00 0.  1.
         21   -1    0    0  501  503 -0.00000000000E+00 -0.00000000000E+00 -0.10372976254E+03  0.10372976254E+03  0.00000000000E+00 0. -1.
         24    1    1    2    0    0 -0.11873093417E+02 -0.31501170376E+02  0.95989747899E+02  0.12967089781E+03  0.80419002446E+02 0. -1.
          1    1    1    2  501    0  0.22307856189E+02 -0.68096267292E+01 -0.83441450343E+02  0.86639985568E+02  0.00000000000E+00 0. -1.
         -2    1    1    2    0  502 -0.10434762772E+02  0.38310797105E+02  0.21138216981E+03  0.21507910908E+03  0.00000000000E+00 0.  1.
<mgrwt>
<rscale>  2 0.75105699E+02</rscale>
<asrwt>0</asrwt>
<pdfrwt beam="1">  1       21 0.50409266E-01 0.75105699E+02</pdfrwt>
<pdfrwt beam="2">  1       21 0.15958425E-01 0.75105699E+02</pdfrwt>
<totfact> 0.13711570E+05</totfact>
</mgrwt>
</event>
<event>
 5    1  0.1696945E+000  0.6622039E+02  0.7546771E-02  0.1373439E+00
         21   -1    0    0  503  502  0.00000000000E+00  0.00000000000E+00  0.85186221723E+01  0.85186221723E+01  0.00000000000E+00 0.  1.
         21   -1    0    0  501  503 -0.00000000000E+00 -0.00000000000E+00 -0.92367469671E+03  0.92367469671E+03  0.00000000000E+00 0. -1.
         24    1    1    2    0    0  0.13168202544E+02 -0.14865284682E+02 -0.44275101546E+03  0.45043318693E+03  0.80419002446E+02 0.  1.
          1    1    1    2  501    0 -0.21181704781E+02 -0.10041879625E+02 -0.43754937153E+03  0.43817685526E+03  0.00000000000E+00 0. -1.
         -2    1    1    2    0  502  0.80135022379E+01  0.24907164307E+02 -0.34855687547E+02  0.43583276682E+02  0.00000000000E+00 0.  1.
<mgrwt>
<rscale>  2 0.66220390E+02</rscale>
<asrwt>0</asrwt>
<pdfrwt beam="1">  1       21 0.13105575E-02 0.66220390E+02</pdfrwt>
<pdfrwt beam="2">  1       21 0.14210377E+00 0.66220390E+02</pdfrwt>
<totfact> 0.85349404E+05</totfact>
</mgrwt>
</event>
<event>
 5    1  0.1696945E+000  0.1292055E+03  0.7546771E-02  0.1228639E+00
         21   -1    0    0  503  502  0.00000000000E+00  0.00000000000E+00  0.27337154297E+03  0.27337154297E+03  0.00000000000E+00 0. -1.
         21   -1    0    0  501  503 -0.00000000000E+00 -0.00000000000E+00 -0.63763005273E+02  0.63763005273E+02  0.00000000000E+00 0.  1.
         24    1    1    2    0    0  0.66295869163E+02  0.43117913240E+02  0.12598103677E+03  0.16909386237E+03  0.80419002446E+02 0.  1.
          1    1    1    2  501    0 -0.63734952518E+02  0.31406532670E+02  0.37228479497E+02  0.80215174079E+02  0.00000000000E+00 0. -1.
         -2    1    1    2    0  502 -0.25609166449E+01 -0.74524445910E+02  0.46399021430E+02  0.87825511795E+02  0.00000000000E+00 0.  1.
<mgrwt>
<rscale>  2 0.12920551E+03</rscale>
<asrwt>0</asrwt>
<pdfrwt beam="1">  1       21 0.42057160E-01 0.12920551E+03</pdfrwt>
<pdfrwt beam="2">  1       21 0.98096932E-02 0.12920551E+03</pdfrwt>
<totfact> 0.46099676E+05</totfact>
</mgrwt>
</event>
<event>
 5    1  0.1696945E+000  0.8850663E+02  0.7546771E-02  0.1306509E+00
         21   -1    0    0  501  502  0.00000000000E+00  0.00000000000E+00  0.84882234978E+02  0.84882234978E+02  0.00000000000E+00 0. -1.
         21   -1    0    0  502  503 -0.00000000000E+00 -0.00000000000E+00 -0.26236948096E+03  0.26236948096E+03  0.00000000000E+00 0.  1.
         24    1    1    2    0    0 -0.21045013116E+02 -0.17316523228E+02 -0.15820339391E+02  0.86372759864E+02  0.80419002446E+02 0. -1.
          1    1    1    2  501    0  0.38835827799E+02  0.44845679236E+02  0.29966112526E+02  0.66462954846E+02  0.00000000000E+00 0. -1.
         -2    1    1    2    0  503 -0.17790814683E+02 -0.27529156007E+02 -0.19163301912E+03  0.19441600123E+03  0.00000000000E+00 0.  1.
<mgrwt>
<rscale>  2 0.88506628E+02</rscale>
<asrwt>0</asrwt>
<pdfrwt beam="1">  1       21 0.13058806E-01 0.88506628E+02</pdfrwt>
<pdfrwt beam="2">  1       21 0.40364535E-01 0.88506628E+02</pdfrwt>
<totfact> 0.30441940E+05</totfact>
</mgrwt>
</event>
<event>
 5    1  0.1696945E+000  0.9249801E+02  0.7546771E-02  0.1296913E+00
         21   -1    0    0  503  502  0.00000000000E+00  0.00000000000E+00  0.33779146334E+02  0.33779146334E+02  0.00000000000E+00 0. -1.
         21   -1    0    0  501  503 -0.00000000000E+00 -0.00000000000E+00 -0.28071472450E+03  0.28071472450E+03  0.00000000000E+00 0.  1.
         24    1    1    2    0    0 -0.28785840283E+02  0.47982191879E+02 -0.81035470419E+02  0.12714117649E+03  0.80419002446E+02 0.  1.
          1    1    1    2  501    0 -0.20934432772E+02 -0.23926910193E+02 -0.58381051921E+02  0.66476271934E+02  0.00000000000E+00 0. -1.
         -2    1    1    2    0  502  0.49720273055E+02 -0.24055281686E+02 -0.10751905583E+03  0.12087642242E+03  0.00000000000E+00 0.  1.
<mgrwt>
<rscale>  2 0.92498007E+02</rscale>
<asrwt>0</asrwt>
<pdfrwt beam="1">  1       21 0.51967918E-02 0.92498007E+02</pdfrwt>
<pdfrwt beam="2">  1       21 0.43186880E-01 0.92498007E+02</pdfrwt>
<totfact> 0.12901948E+06</totfact>
</mgrwt>
</event>
<event>
 5    1  0.1696945E+000  0.6808055E+02  0.7546771E-02  0.1366745E+00
         21   -1    0    0  501  502  0.00000000000E+00  0.00000000000E+00  0.10766426319E+03  0.10766426319E+03  0.00000000000E+00 0. -1.
         21   -1    0    0  502  503 -0.00000000000E+00 -0.00000000000E+00 -0.96939739490E+02  0.96939739490E+02  0.00000000000E+00 0. -1.
         24    1    1    2    0    0 -0.68210044037E+00 -0.16434168474E+02 -0.11309321926E+02  0.82859301658E+02  0.80419002446E+02 0. -1.
          1    1    1    2  501    0 -0.16330409222E+02  0.28757190267E+02  0.65552089423E+02  0.73421622735E+02  0.00000000000E+00 0. -1.
         -2    1    1    2    0  503  0.17012509662E+02 -0.12323021793E+02 -0.43518243802E+02  0.48323078283E+02  0.00000000000E+00 0.  1.
<mgrwt>
<rscale>  2 0.68080552E+02</rscale>
<asrwt>0</asrwt>
<pdfrwt beam="1">  1       21 0.16563733E-01 0.68080552E+02</pdfrwt>
<pdfrwt beam="2">  1       21 0.14913806E-01 0.68080552E+02</pdfrwt>
<totfact> 0.12738057E+06</totfact>
</mgrwt>
</event>
<event>
 5    1  0.1696945E+000  0.6984484E+02  0.7546771E-02  0.1360621E+00
         21   -1    0    0  503  502  0.00000000000E+00  0.00000000000E+00  0.75400634112E+03  0.75400634112E+03  0.00000000000E+00 0.  1.
         21   -1    0    0  501  503 -0.00000000000E+00 -0.00000000000E+00 -0.18444193784E+02  0.18444193784E+02  0.00000000000E+00 0. -1.
         24    1    1    2    0    0  0.23667627890E+02 -0.58682170490E+01  0.21195606436E+03  0.22800697742E+03  0.80419002446E+02 0.  0.
          1    1    1    2  501    0 -0.16891506747E+01  0.25877543179E+02  0.68347449572E+01  0.26818169393E+02  0.00000000000E+00 0. -1.
         -2    1    1    2    0  502 -0.21978477216E+02 -0.20009326130E+02  0.51677133802E+03  0.51762538809E+03  0.00000000000E+00 0.  1.
<mgrwt>
<rscale>  2 0.69844837E+02</rscale>
<asrwt>0</asrwt>
<pdfrwt beam="1">  1       21 0.11600095E+00 0.69844837E+02</pdfrwt>
<pdfrwt beam="2">  1       21 0.28375689E-02 0.69844837E+02</pdfrwt>
<totfact> 0.40936342E+05</totfact>
</mgrwt>
</event>
<event>
 5    1  0.1696945E+000  0.9947688E+02  0.7546771E-02  0.1281400E+00
         21   -1    0    0  503  502  0.00000000000E+00  0.00000000000E+00  0.63122700159E+03  0.63122700159E+03  0.00000000000E+00 0.  1.
         21   -1    0    0  501  503 -0.00000000000E+00 -0.00000000000E+00 -0.51681431419E+02  0.51681431419E+02  0.00000000000E+00 0. -1.
         24    1    1    2    0    0  0.20053574826E+02  0.77744635489E+02  0.30418301936E+03  0.32471664483E+03  0.80419002446E+02 0.  0.
          1    1    1    2  501    0 -0.50146500125E+00 -0.56275474619E+02 -0.21253884559E+02  0.60157361308E+02  0.00000000000E+00 0. -1.
         -2    1    1    2    0  502 -0.19552109825E+02 -0.21469160870E+02  0.29661643537E+03  0.29803442687E+03  0.00000000000E+00 0.  1.
<mgrwt>
<rscale>  2 0.99476882E+02</rscale>
<asrwt>0</asrwt>
<pdfrwt beam="1">  1       21 0.97111841E-01 0.99476882E+02</pdfrwt>
<pdfrwt beam="2">  1       21 0.79509899E-02 0.99476882E+02</pdfrwt>
<totfact> 0.11106123E+05</totfact>
</mgrwt>
</event>
<event>
 5    1  0.1696945E+000  0.7708078E+02  0.7546771E-02  0.1337546E+00
         21   -1    0    0  501  502  0.00000000000E+00  0.00000000000E+00  0.19780654318E+02  0.19780654318E+02  0.00000000000E+00 0.  1.
         21   -1    0    0  502  503 -0.00000000000E+00 -0.00000000000E+00 -0.30557069224E+03  0.30557069224E+03  0.00000000000E+00 0. -1.
         24    1    1    2    0    0 -0.62563233989E+01 -0.37469063412E+02 -0.17269225641E+03  0.19424959118E+03  0.80419002446E+02 0.  1.
          1    1    1    2  501    0  0.27792756215E+02  0.83813380488E+01 -0.38799523676E+02  0.48457065151E+02  0.00000000000E+00 0. -1.
         -2    1    1    2    0  503 -0.21536432816E+02  0.29087725363E+02 -0.74298257831E+02  0.82644690222E+02  0.00000000000E+00 0.  1.
<mgrwt>
<rscale>  2 0.77080777E+02</rscale>
<asrwt>0</asrwt>
<pdfrwt beam="1">  1       21 0.30431774E-02 0.77080777E+02</pdfrwt>
<pdfrwt beam="2">  1       21 0.47010879E-01 0.77080777E+02</pdfrwt>
<totfact> 0.26049094E+06</totfact>
</mgrwt>
</event>
<event>
 5    1  0.1696945E+000  0.8294559E+02  0.7546771E-02  0.1320894E+00
         21   -1    0    0  503  502  0.00000000000E+00  0.00000000000E+00  0.11428820301E+03  0.11428820301E+03  0.00000000000E+00 0.  1.
         21   -1    0    0  501  503 -0.00000000000E+00 -0.00000000000E+00 -0.97088831447E+02  0.97088831447E+02  0.00000000000E+00 0. -1.
         24    1    1    2    0    0 -0.29791773488E+02  0.52014375898E+01 -0.16725652977E+02  0.87530384110E+02  0.80419002446E+02 0.  0.
          1    1    1    2  501    0 -0.70781848292E+00  0.31921019444E+02 -0.30045912845E+02  0.43843008200E+02  0.00000000000E+00 0. -1.
         -2    1    1    2    0  502  0.30499591971E+02 -0.37122457034E+02  0.63970937383E+02  0.80003642144E+02  0.00000000000E+00 0.  1.
<mgrwt>
<rscale>  2 0.82945590E+02</rscale>
<asrwt>0</asrwt>
<pdfrwt beam="1">  1       21 0.17582800E-01 0.82945590E+02</pdfrwt>
<pdfrwt beam="2">  1       21 0.14936743E-01 0.82945590E+02</pdfrwt>
<totfact> 0.11484640E+06</totfact>
</mgrwt>
</event>
<event>
 5    1  0.1696945E+000  0.1084022E+03  0.7546771E-02  0.1263558E+00
         21   -1    0    0  501  502  0.00000000000E+00  0.00000000000E+00  0.27779432607E+02  0.27779432607E+02  0.00000000000E+00 0.  1.
         21   -1    0    0  502  503 -0.00000000000E+00 -0.00000000000E+00 -0.86840716936E+03  0.86840716936E+03  0.00000000000E+00 0.  1.
         24    1    1    2    0    0  0.85239507751E+02 -0.69986695752E+01 -0.12011885800E+03  0.16795984954E+03  0.80419002446E+02 0.  1.
          1    1    1    2  501    0 -0.43936740825E+02  0.28966750324E+02 -0.25504348013E+03  0.26041637156E+03  0.00000000000E+00 0. -1.
         -2    1    1    2    0  503 -0.41302766926E+02 -0.21968080749E+02 -0.46546539863E+03  0.46781038087E+03  0.00000000000E+00 0.  1.
<mgrwt>
<rscale>  2 0.10840217E+03</rscale>
<asrwt>0</asrwt>
<pdfrwt beam="1">  1       21 0.42737597E-02 0.10840217E+03</pdfrwt>
<pdfrwt beam="2">  1       21 0.13360108E+00 0.10840217E+03</pdfrwt>
<totfact> 0.14663854E+05</totfact>
</mgrwt>
</event>
<event>
 5    1  0.1696945E+000  0.9257532E+02  0.7546771E-02  0.1296732E+00
         21   -1    0    0  501  502  0.00000000000E+00  0.00000000000E+00  0.69030641245E+02  0.69030641245E+02  0.00000000000E+00 0. -1.
         21   -1    0    0  502  503 -0.00000000000E+00 -0.00000000000E+00 -0.48279246007E+03  0.48279246007E+03  0.00000000000E+00 0.  1.
         24    1    1    2    0    0  0.62885742920E+02  0.10338120734E+02 -0.19927705505E+03  0.22414293214E+03  0.80419002446E+02 0.  0.
          1    1    1    2  501    0 -0.11554257018E+02  0.19866709893E+02  0.50818545223E+02  0.55773753288E+02  0.00000000000E+00 0. -1.
         -2    1    1    2    0  503 -0.51331485902E+02 -0.30204830627E+02 -0.26530330900E+03  0.27190641589E+03  0.00000000000E+00 0.  1.
<mgrwt>
<rscale>  2 0.92575320E+02</rscale>
<asrwt>0</asrwt>
<pdfrwt beam="1">  1       21 0.10620099E-01 0.92575320E+02</pdfrwt>
<pdfrwt beam="2">  1       21 0.74275761E-01 0.92575320E+02</pdfrwt>
<totfact> 0.12327949E+05</totfact>
</mgrwt>
</event>
<event>
 5    1  0.1696945E+000  0.7407288E+02  0.7546771E-02  0.1346766E+00
         21   -1    0    0  501  502  0.00000000000E+00  0.00000000000E+00  0.13123271776E+03  0.13123271776E+03  0.00000000000E+00 0. -1.
         21   -1    0    0  502  503 -0.00000000000E+00 -0.00000000000E+00 -0.11158238722E+03  0.11158238722E+03  0.00000000000E+00 0.  1.
         24    1    1    2    0    0 -0.17638174817E+02  0.45829098896E+02 -0.18400344809E+02  0.96006250630E+02  0.80419002446E+02 0.  1.
          1    1    1    2  501    0  0.16302273970E+02 -0.12447779224E+02  0.85975838944E+02  0.88388665712E+02  0.00000000000E+00 0. -1.
         -2    1    1    2    0  503  0.13359008473E+01 -0.33381319671E+02 -0.47925163602E+02  0.58420188637E+02  0.00000000000E+00 0.  1.
<mgrwt>
<rscale>  2 0.74072879E+02</rscale>
<asrwt>0</asrwt>
<pdfrwt beam="1">  1       21 0.20189649E-01 0.74072879E+02</pdfrwt>
<pdfrwt beam="2">  1       21 0.17166521E-01 0.74072879E+02</pdfrwt>
<totfact> 0.69543767E+05</totfact>
</mgrwt>
</event>
<event>
 5    1  0.1759583E+000  0.8953358E+02  0.7546771E-02  0.1303985E+00
         21   -1    0    0  503  502  0.00000000000E+00  0.00000000000E+00  0.51404789751E+03  0.51404789751E+03  0.00000000000E+00 0.  1.
         21   -1    0    0  501  503 -0.00000000000E+00 -0.00000000000E+00 -0.71651715574E+02  0.71651715574E+02  0.00000000000E+00 0. -1.
         24    1    1    2    0    0 -0.21047560138E+02  0.77792043440E+01  0.20272866095E+03  0.21924790018E+03  0.80419002446E+02 0.  1.
          1    1    1    2  501    0 -0.35754894579E+02 -0.14076009463E+02 -0.54555451028E+02  0.66729631841E+02  0.00000000000E+00 0. -1.
         -2    1    1    2    0  502  0.56802454717E+02  0.62968051189E+01  0.29422297202E+03  0.29972208107E+03  0.00000000000E+00 0.  1.
<mgrwt>
<rscale>  2 0.89533585E+02</rscale>
<asrwt>0</asrwt>
<pdfrwt beam="1">  1       21 0.79084290E-01 0.89533585E+02</pdfrwt>
<pdfrwt beam="2">  1       21 0.11023341E-01 0.89533585E+02</pdfrwt>
<totfact> 0.10084048E+05</totfact>
</mgrwt>
</event>
<event>
 5    1  0.1696945E+000  0.7109196E+02  0.7546771E-02  0.1356419E+00
         21   -1    0    0  503  502  0.00000000000E+00  0.00000000000E+00  0.49988089653E+03  0.49988089653E+03  0.00000000000E+00 0.  1.
         21   -1    0    0  501  503 -0.00000000000E+00 -0.00000000000E+00 -0.23826226673E+02  0.23826226673E+02  0.00000000000E+00 0.  1.
         24    1    1    2    0    0 -0.29509924807E+02  0.32717605845E+02  0.23501839918E+03  0.25227394099E+03  0.80419002446E+02 0.  1.
          1    1    1    2  501    0  0.55081424999E+01 -0.24507622989E+02 -0.36962667655E+01  0.25389478261E+02  0.00000000000E+00 0. -1.
         -2    1    1    2    0  502  0.24001782307E+02 -0.82099828559E+01  0.24473253744E+03  0.24604370395E+03  0.00000000000E+00 0.  1.
<mgrwt>
<rscale>  2 0.71091955E+02</rscale>
<asrwt>0</asrwt>
<pdfrwt beam="1">  1       21 0.76904745E-01 0.71091955E+02</pdfrwt>
<pdfrwt beam="2">  1       21 0.36655737E-02 0.71091955E+02</pdfrwt>
<totfact> 0.68623768E+05</totfact>
</mgrwt>
</event>
<event>
 5    1  0.1696945E+000  0.8002347E+02  0.7546771E-02  0.1328985E+00
         21   -1    0    0  503  502  0.00000000000E+00  0.00000000000E+00  0.57994352320E+03  0.57994352320E+03  0.00000000000E+00 0.  1.
         21   -1    0    0  501  503 -0.00000000000E+00 -0.00000000000E+00 -0.14264850138E+02  0.14264850138E+02  0.00000000000E+00 0. -1.
         24    1    1    2    0    0 -0.80857339856E+01  0.55858632608E+00  0.41161700573E+03  0.41947761141E+03  0.80419002446E+02 0.  1.
          1    1    1    2  501    0  0.29442656644E+02 -0.30532786552E+02  0.57960265487E+02  0.71822792066E+02  0.00000000000E+00 0. -1.
         -2    1    1    2    0  502 -0.21356922659E+02  0.29974200226E+02  0.96101401847E+02  0.10290796986E+03  0.00000000000E+00 0.  1.
<mgrwt>
<rscale>  2 0.80023471E+02</rscale>
<asrwt>0</asrwt>
<pdfrwt beam="1">  1       21 0.89222062E-01 0.80023471E+02</pdfrwt>
<pdfrwt beam="2">  1       21 0.21945928E-02 0.80023471E+02</pdfrwt>
<totfact> 0.11329036E+06</totfact>
</mgrwt>
</event>
<event>
 5    1  0.1696945E+000  0.7828770E+02  0.7546771E-02  0.1333982E+00
         21   -1    0    0  503  502  0.00000000000E+00  0.00000000000E+00  0.18541135534E+03  0.18541135534E+03  0.00000000000E+00 0. -1.
         21   -1    0    0  501  503 -0.00000000000E+00 -0.00000000000E+00 -0.46450086905E+02  0.46450086905E+02  0.00000000000E+00 0.  1.
         24    1    1    2    0    0  0.22898653432E+02  0.10918282060E+02  0.12363233538E+02  0.85226889595E+02  0.80419002446E+02 0.  1.
          1    1    1    2  501    0 -0.46578421055E+02 -0.13328498381E+02  0.68980340751E+02  0.84294042418E+02  0.00000000000E+00 0. -1.
         -2    1    1    2    0  502  0.23679767623E+02  0.24102163212E+01  0.57617694151E+02  0.62340510237E+02  0.00000000000E+00 0.  1.
<mgrwt>
<rscale>  2 0.78287702E+02</rscale>
<asrwt>0</asrwt>
<pdfrwt beam="1">  1       21 0.28524824E-01 0.78287702E+02</pdfrwt>
<pdfrwt beam="2">  1       21 0.71461673E-02 0.78287702E+02</pdfrwt>
<totfact> 0.16833656E+06</totfact>
</mgrwt>
</event>
<event>
 5    1  0.1696945E+000  0.8439995E+02  0.7546771E-02  0.1317009E+00
         21   -1    0    0  501  502  0.00000000000E+00  0.00000000000E+00  0.71569545996E+02  0.71569545996E+02  0.00000000000E+00 0. -1.
         21   -1    0    0  502  503 -0.00000000000E+00 -0.00000000000E+00 -0.12450395564E+03  0.12450395564E+03  0.00000000000E+00 0. -1.
         24    1    1    2    0    0 -0.52917371875E+02 -0.38148869153E+02 -0.69014113394E+02  0.12444174647E+03  0.80419002446E+02 0. -1.
          1    1    1    2  501    0  0.25007306681E+02  0.18863331199E+02  0.20476637309E+02  0.37423032037E+02  0.00000000000E+00 0. -1.
         -2    1    1    2    0  503  0.27910065193E+02  0.19285537955E+02 -0.43969335625E+01  0.34208723128E+02  0.00000000000E+00 0.  1.
<mgrwt>
<rscale>  2 0.84399945E+02</rscale>
<asrwt>0</asrwt>
<pdfrwt beam="1">  1       21 0.11010700E-01 0.84399945E+02</pdfrwt>
<pdfrwt beam="2">  1       21 0.19154454E-01 0.84399945E+02</pdfrwt>
<totfact> 0.16829723E+06</totfact>
</mgrwt>
</event>
<event>
 5    1  0.1696945E+000  0.7771280E+02  0.7546771E-02  0.1335670E+00
         21   -1    0    0  503  502  0.00000000000E+00  0.00000000000E+00  0.26842416182E+02  0.26842416182E+02  0.00000000000E+00 0.  1.
         21   -1    0    0  501  503 -0.00000000000E+00 -0.00000000000E+00 -0.30508522877E+03  0.30508522877E+03  0.00000000000E+00 0. -1.
         24    1    1    2    0    0  0.19149733478E+02 -0.36663075562E+02 -0.72298103297E+02  0.11578050396E+03  0.80419002446E+02 0.  0.
          1    1    1    2  501    0 -0.36269550758E+02  0.21769859561E+02 -0.14770683601E+03  0.15364477375E+03  0.00000000000E+00 0. -1.
         -2    1    1    2    0  502  0.17119817279E+02  0.14893216001E+02 -0.58237873283E+02  0.62502367244E+02  0.00000000000E+00 0.  1.
<mgrwt>
<rscale>  2 0.77712802E+02</rscale>
<asrwt>0</asrwt>
<pdfrwt beam="1">  1       21 0.41296029E-02 0.77712802E+02</pdfrwt>
<pdfrwt beam="2">  1       21 0.46936185E-01 0.77712802E+02</pdfrwt>
<totfact> 0.15889833E+06</totfact>
</mgrwt>
</event>
<event>
 5    1  0.1696945E+000  0.7038431E+02  0.7546771E-02  0.1358791E+00
         21   -1    0    0  501  502  0.00000000000E+00  0.00000000000E+00  0.67343595779E+03  0.67343595779E+03  0.00000000000E+00 0. -1.
         21   -1    0    0  502  503 -0.00000000000E+00 -0.00000000000E+00 -0.11291697753E+02  0.11291697753E+02  0.00000000000E+00 0.  1.
         24    1    1    2    0    0  0.87986883780E+01  0.18777184436E+01  0.31513162860E+03  0.32535534734E+03  0.80419002446E+02 0. -1.
          1    1    1    2  501    0  0.16772790447E+02 -0.21747495998E+02  0.30545388100E+03  0.30668608299E+03  0.00000000000E+00 0. -1.
         -2    1    1    2    0  503 -0.25571478825E+02  0.19869777554E+02  0.41558750438E+02  0.52686225214E+02  0.00000000000E+00 0.  1.
<mgrwt>
<rscale>  2 0.70384312E+02</rscale>
<asrwt>0</asrwt>
<pdfrwt beam="1">  1       21 0.10360550E+00 0.70384312E+02</pdfrwt>
<pdfrwt beam="2">  1       21 0.17371848E-02 0.70384312E+02</pdfrwt>
<totfact> 0.11661422E+06</totfact>
</mgrwt>
</event>
<event>
 5    1  0.1696945E+000  0.8122289E+02  0.7546771E-02  0.1325616E+00
         21   -1    0    0  503  502  0.00000000000E+00  0.00000000000E+00  0.59863651107E+02  0.59863651107E+02  0.00000000000E+00 0.  1.
         21   -1    0    0  501  503 -0.00000000000E+00 -0.00000000000E+00 -0.12692466639E+03  0.12692466639E+03  0.00000000000E+00 0. -1.
         24    1    1    2    0    0 -0.11960284797E+02  0.32518252888E+02 -0.19485352482E+02  0.89707190899E+02  0.80419002446E+02 0.  0.
          1    1    1    2  501    0  0.37168870975E+02 -0.49051998300E+01 -0.46426620819E+02  0.59674258065E+02  0.00000000000E+00 0. -1.
         -2    1    1    2    0  502 -0.25208586179E+02 -0.27613053058E+02 -0.11490419873E+01  0.37406868537E+02  0.00000000000E+00 0.  1.
<mgrwt>
<rscale>  2 0.81222886E+02</rscale>
<asrwt>0</asrwt>
<pdfrwt beam="1">  1       21 0.92097927E-02 0.81222886E+02</pdfrwt>
<pdfrwt beam="2">  1       21 0.19526871E-01 0.81222886E+02</pdfrwt>
<totfact> 0.22095678E+06</totfact>
</mgrwt>
</event>
<event>
 5    1  0.1696945E+000  0.7067275E+02  0.7546771E-02  0.1357820E+00
         21   -1    0    0  503  502  0.00000000000E+00  0.00000000000E+00  0.21724959041E+03  0.21724959041E+03  0.00000000000E+00 0. -1.
         21   -1    0    0  501  503 -0.00000000000E+00 -0.00000000000E+00 -0.25579019655E+02  0.25579019655E+02  0.00000000000E+00 0.  1.
         24    1    1    2    0    0 -0.42559559986E+02  0.46695562419E+01  0.13183555103E+03  0.16025276712E+03  0.80419002446E+02 0.  0.
          1    1    1    2  501    0  0.21917905475E+02 -0.15580494729E+02  0.12205797802E+02  0.29531811601E+02  0.00000000000E+00 0. -1.
         -2    1    1    2    0  502  0.20641654511E+02  0.10910938487E+02  0.47629221926E+02  0.53044031341E+02  0.00000000000E+00 0.  1.
<mgrwt>
<rscale>  2 0.70672755E+02</rscale>
<asrwt>0</asrwt>
<pdfrwt beam="1">  1       21 0.33423013E-01 0.70672755E+02</pdfrwt>
<pdfrwt beam="2">  1       21 0.39352339E-02 0.70672755E+02</pdfrwt>
<totfact> 0.33356634E+06</totfact>
</mgrwt>
</event>
<event>
 5    1  0.1696945E+000  0.6319922E+02  0.7546771E-02  0.1384876E+00
         21   -1    0    0  501  502  0.00000000000E+00  0.00000000000E+00  0.15593005959E+03  0.15593005959E+03  0.00000000000E+00 0. -1.
         21   -1    0    0  502  503 -0.00000000000E+00 -0.00000000000E+00 -0.30976173781E+02  0.30976173781E+02  0.00000000000E+00 0. -1.
         24    1    1    2    0    0  0.74704654642E+00 -0.45192086653E+01  0.75472202279E+02  0.11038229295E+03  0.80419002446E+02 0.  0.
          1    1    1    2  501    0 -0.51563796784E+01  0.24679411461E+02  0.49872844938E+02  0.55883470397E+02  0.00000000000E+00 0. -1.
         -2    1    1    2    0  503  0.44093331320E+01 -0.20160202796E+02 -0.39116141158E+00  0.20640470021E+02  0.00000000000E+00 0.  1.
<mgrwt>
<rscale>  2 0.63199220E+02</rscale>
<asrwt>0</asrwt>
<pdfrwt beam="1">  1       21 0.23989239E-01 0.63199220E+02</pdfrwt>
<pdfrwt beam="2">  1       21 0.47655653E-02 0.63199220E+02</pdfrwt>
<totfact> 0.45121848E+06</totfact>
</mgrwt>
</event>
<event>
 5    1  0.1696945E+000  0.9417063E+02  0.7546771E-02  0.1293055E+00
         21   -1    0    0  503  502  0.00000000000E+00  0.00000000000E+00  0.85599259976E+03  0.85599259976E+03  0.00000000000E+00 0.  1.
         21   -1    0    0  501  503 -0.00000000000E+00 -0.00000000000E+00 -0.77844095100E+02  0.77844095100E+02  0.00000000000E+00 0.  1.
         24    1    1    2    0    0 -0.40244790890E+02 -0.45018943145E+02 -0.26208027694E+02  0.10392509372E+03  0.80419002446E+02 0.  1.
          1    1    1    2  501    0  0.19824224215E+02  0.59516642926E+02  0.65730186790E+02  0.90860817223E+02  0.00000000000E+00 0. -1.
         -2    1    1    2    0  502  0.20420566675E+02 -0.14497699782E+02  0.73862634556E+03  0.73905078391E+03  0.00000000000E+00 0.  1.
<mgrwt>
<rscale>  2 0.94170627E+02</rscale>
<asrwt>0</asrwt>
<pdfrwt beam="1">  1       21 0.13169116E+00 0.94170627E+02</pdfrwt>
<pdfrwt beam="2">  1       21 0.11976015E-01 0.94170627E+02</pdfrwt>
<totfact> 0.26530640E+04</totfact>
</mgrwt>
</event>
<event>
 5    1  0.1696945E+000  0.6949861E+02  0.7546771E-02  0.1361806E+00
         21   -1    0    0  501  502  0.00000000000E+00  0.00000000000E+00  0.38176188385E+01  0.38176188385E+01  0.00000000000E+00 0. -1.
         21   -1    0    0  502  503 -0.00000000000E+00 -0.00000000000E+00 -0.14659939134E+04  0.14659939134E+04  0.00000000000E+00 0.  1.
         24    1    1    2    0    0  0.59607893157E+01  0.44504732565E+02 -0.10604451286E+04  0.10644375458E+04  0.80419002446E+02 0.  1.
          1    1    1    2  501    0 -0.94563251869E+01 -0.19814890717E+02 -0.89696849740E+02  0.92344879844E+02  0.00000000000E+00 0. -1.
         -2    1    1    2    0  503  0.34955358713E+01 -0.24689841848E+02 -0.31203431624E+03  0.31302910659E+03  0.00000000000E+00 0.  1.
<mgrwt>
<rscale>  2 0.69498607E+02</rscale>
<asrwt>0</asrwt>
<pdfrwt beam="1">  1       21 0.58732508E-03 0.69498607E+02</pdfrwt>
<pdfrwt beam="2">  1       21 0.22553787E+00 0.69498607E+02</pdfrwt>
<totfact> 0.85395729E+05</totfact>
</mgrwt>
</event>
<event>
 5    1  0.1696945E+000  0.8623117E+02  0.7546771E-02  0.1312244E+00
         21   -1    0    0  501  502  0.00000000000E+00  0.00000000000E+00  0.80004105757E+01  0.80004105757E+01  0.00000000000E+00 0. -1.
         21   -1    0    0  502  503 -0.00000000000E+00 -0.00000000000E+00 -0.93032642493E+03  0.93032642493E+03  0.00000000000E+00 0.  1.
         24    1    1    2    0    0  0.23309167700E+02 -0.11292133308E+02 -0.44067037515E+03  0.44869636176E+03  0.80419002446E+02 0. -1.
          1    1    1    2  501    0 -0.48296858610E+02  0.29915296622E+02 -0.30436532605E+03  0.30962196826E+03  0.00000000000E+00 0. -1.
         -2    1    1    2    0  503  0.24987690910E+02 -0.18623163313E+02 -0.17729031315E+03  0.18000850548E+03  0.00000000000E+00 0.  1.
<mgrwt>
<rscale>  2 0.86231170E+02</rscale>
<asrwt>0</asrwt>
<pdfrwt beam="1">  1       21 0.12308322E-02 0.86231170E+02</pdfrwt>
<pdfrwt beam="2">  1       21 0.14312717E+00 0.86231170E+02</pdfrwt>
<totfact> 0.92464926E+05</totfact>
</mgrwt>
</event>
<event>
 5    1  0.1696945E+000  0.7138124E+02  0.7546771E-02  0.1355458E+00
         21   -1    0    0  501  502  0.00000000000E+00  0.00000000000E+00  0.42974744127E+02  0.42974744127E+02  0.00000000000E+00 0.  1.
         21   -1    0    0  502  503 -0.00000000000E+00 -0.00000000000E+00 -0.22541135851E+03  0.22541135851E+03  0.00000000000E+00 0. -1.
         24    1    1    2    0    0 -0.23189206402E+01  0.23848710808E+02 -0.16324189452E+02  0.85485867345E+02  0.80419002446E+02 0.  1.
          1    1    1    2  501    0  0.27671921636E+02 -0.17405462324E+02 -0.30239689393E+02  0.44532282451E+02  0.00000000000E+00 0. -1.
         -2    1    1    2    0  503 -0.25353000996E+02 -0.64432484847E+01 -0.13587273554E+03  0.13836795284E+03  0.00000000000E+00 0.  1.
<mgrwt>
<rscale>  2 0.71381236E+02</rscale>
<asrwt>0</asrwt>
<pdfrwt beam="1">  1       21 0.66114990E-02 0.71381236E+02</pdfrwt>
<pdfrwt beam="2">  1       21 0.34678671E-01 0.71381236E+02</pdfrwt>
<totfact> 0.13169773E+06</totfact>
</mgrwt>
</event>
<event>
 5    1  0.1696945E+000  0.8195687E+02  0.7546771E-02  0.1323588E+00
         21   -1    0    0  501  502  0.00000000000E+00  0.00000000000E+00  0.23575614528E+03  0.23575614528E+03  0.00000000000E+00 0. -1.
         21   -1    0    0  502  503 -0.00000000000E+00 -0.00000000000E+00 -0.69660308549E+03  0.69660308549E+03  0.00000000000E+00 0.  1.
         24    1    1    2    0    0 -0.35066055887E+02 -0.22040437695E+02 -0.60695380550E+03  0.61365751615E+03  0.80419002446E+02 0.  1.
          1    1    1    2  501    0  0.53143239290E+01 -0.20704799603E+02  0.22399137522E+03  0.22500903746E+03  0.00000000000E+00 0. -1.
         -2    1    1    2    0  503  0.29751731958E+02  0.42745237298E+02 -0.77884509928E+02  0.93692677157E+02  0.00000000000E+00 0.  1.
<mgrwt>
<rscale>  2 0.81956875E+02</rscale>
<asrwt>0</asrwt>
<pdfrwt beam="1">  1       21 0.36270177E-01 0.81956875E+02</pdfrwt>
<pdfrwt beam="2">  1       21 0.10716970E+00 0.81956875E+02</pdfrwt>
<totfact> 0.57432687E+03</totfact>
</mgrwt>
</event>
<event>
 5    1  0.1696945E+000  0.2171613E+03  0.7546771E-02  0.1136017E+00
         21   -1    0    0  503  502  0.00000000000E+00  0.00000000000E+00  0.11738269624E+03  0.11738269624E+03  0.00000000000E+00 0.  1.
         21   -1    0    0  501  503 -0.00000000000E+00 -0.00000000000E+00 -0.60985279730E+03  0.60985279730E+03  0.00000000000E+00 0.  1.
         24    1    1    2    0    0  0.18092232692E+03  0.25883297330E+02 -0.37738850397E+03  0.42695682726E+03  0.80419002446E+02 0.  1.
          1    1    1    2  501    0  0.13118639652E+02 -0.38027940500E+02 -0.97010137061E+02  0.10501994886E+03  0.00000000000E+00 0. -1.
         -2    1    1    2    0  502 -0.19404096657E+03  0.12144643170E+02 -0.18071460033E+02  0.19525871743E+03  0.00000000000E+00 0.  1.
<mgrwt>
<rscale>  2 0.21716133E+03</rscale>
<asrwt>0</asrwt>
<pdfrwt beam="1">  1       21 0.18058876E-01 0.21716133E+03</pdfrwt>
<pdfrwt beam="2">  1       21 0.93823507E-01 0.21716133E+03</pdfrwt>
<totfact> 0.26246121E+04</totfact>
</mgrwt>
</event>
<event>
 5    1  0.2388634E+000  0.8614233E+02  0.7546771E-02  0.1312472E+00
         21   -1    0    0  501  502  0.00000000000E+00  0.00000000000E+00  0.38438655010E+03  0.38438655010E+03  0.00000000000E+00 0. -1.
         21   -1    0    0  502  503 -0.00000000000E+00 -0.00000000000E+00 -0.22342726376E+03  0.22342726376E+03  0.00000000000E+00 0.  1.
         24    1    1    2    0    0  0.28996856451E+02  0.91143221681E+01  0.94726455560E+02  0.12792265589E+03  0.80419002446E+02 0.  0.
          1    1    1    2  501    0  0.43011444511E+01 -0.40397075816E+02  0.26899496126E+03  0.27204542407E+03  0.00000000000E+00 0. -1.
         -2    1    1    2    0  503 -0.33298000902E+02  0.31282753648E+02 -0.20276213048E+03  0.20784573389E+03  0.00000000000E+00 0.  1.
<mgrwt>
<rscale>  2 0.86142328E+02</rscale>
<asrwt>0</asrwt>
<pdfrwt beam="1">  1       21 0.59136392E-01 0.86142328E+02</pdfrwt>
<pdfrwt beam="2">  1       21 0.34373425E-01 0.86142328E+02</pdfrwt>
<totfact> 0.23552743E+04</totfact>
</mgrwt>
</event>
<event>
 5    1  0.1696945E+000  0.7227558E+02  0.7546771E-02  0.1352521E+00
         21   -1    0    0  501  502  0.00000000000E+00  0.00000000000E+00  0.66804753446E+03  0.66804753446E+03  0.00000000000E+00 0. -1.
         21   -1    0    0  502  503 -0.00000000000E+00 -0.00000000000E+00 -0.17394273352E+02  0.17394273352E+02  0.00000000000E+00 0. -1.
         24    1    1    2    0    0  0.11727919545E+02 -0.35038286255E+02  0.12530712262E+03  0.15340898453E+03  0.80419002446E+02 0. -1.
          1    1    1    2  501    0 -0.26666734395E+02  0.13639052359E+02  0.46878729400E+03  0.46974319100E+03  0.00000000000E+00 0. -1.
         -2    1    1    2    0  503  0.14938814850E+02  0.21399233896E+02  0.56558844496E+02  0.62289632293E+02  0.00000000000E+00 0.  1.
<mgrwt>
<rscale>  2 0.72275578E+02</rscale>
<asrwt>0</asrwt>
<pdfrwt beam="1">  1       21 0.10277652E+00 0.72275578E+02</pdfrwt>
<pdfrwt beam="2">  1       21 0.26760426E-02 0.72275578E+02</pdfrwt>
<totfact> 0.59666467E+05</totfact>
</mgrwt>
</event>
<event>
 5    1  0.1696945E+000  0.1523851E+03  0.7546771E-02  0.1197572E+00
         21   -1    0    0  503  502  0.00000000000E+00  0.00000000000E+00  0.44592669537E+03  0.44592669537E+03  0.00000000000E+00 0.  1.
         21   -1    0    0  501  503 -0.00000000000E+00 -0.00000000000E+00 -0.79798011131E+02  0.79798011131E+02  0.00000000000E+00 0. -1.
         24    1    1    2    0    0  0.49822779323E+02 -0.58366722378E+02  0.12107314569E+03  0.16436211906E+03  0.80419002446E+02 0.  1.
          1    1    1    2  501    0  0.31083500743E+02 -0.49696856824E+02 -0.21610729228E+02  0.62473876256E+02  0.00000000000E+00 0. -1.
         -2    1    1    2    0  502 -0.80906280065E+02  0.10806357920E+03  0.26666626777E+03  0.29888871118E+03  0.00000000000E+00 0.  1.
<mgrwt>
<rscale>  2 0.15238510E+03</rscale>
<asrwt>0</asrwt>
<pdfrwt beam="1">  1       21 0.68604106E-01 0.15238510E+03</pdfrwt>
<pdfrwt beam="2">  1       21 0.12276617E-01 0.15238510E+03</pdfrwt>
<totfact> 0.11081361E+05</totfact>
</mgrwt>
</event>
<event>
 5    1  0.1696945E+000  0.9358396E+02  0.7546771E-02  0.1294398E+00
         21   -1    0    0  501  502  0.00000000000E+00  0.00000000000E+00  0.15578631968E+03  0.15578631968E+03  0.00000000000E+00 0. -1.
         21   -1    0    0  502  503 -0.00000000000E+00 -0.00000000000E+00 -0.10144159038E+03  0.10144159038E+03  0.00000000000E+00 0.  1.
         24    1    1    2    0    0 -0.16016042456E+02  0.15461954872E+02 -0.21512713567E+02  0.86171912267E+02  0.80419002446E+02 0.  1.
          1    1    1    2  501    0  0.35915781752E+02  0.34588660704E+02  0.10022133889E+03  0.11194032159E+03  0.00000000000E+00 0. -1.
         -2    1    1    2    0  503 -0.19899739296E+02 -0.50050615576E+02 -0.24363896027E+02  0.59115676206E+02  0.00000000000E+00 0.  1.
<mgrwt>
<rscale>  2 0.93583964E+02</rscale>
<asrwt>0</asrwt>
<pdfrwt beam="1">  1       21 0.23967126E-01 0.93583964E+02</pdfrwt>
<pdfrwt beam="2">  1       21 0.15606399E-01 0.93583964E+02</pdfrwt>
<totfact> 0.60278660E+05</totfact>
</mgrwt>
</event>
<event>
 5    1  0.1696945E+000  0.7551640E+02  0.7546771E-02  0.1342279E+00
         21   -1    0    0  501  502  0.00000000000E+00  0.00000000000E+00  0.10601956249E+02  0.10601956249E+02  0.00000000000E+00 0.  1.
         21   -1    0    0  502  503 -0.00000000000E+00 -0.00000000000E+00 -0.10351646086E+04  0.10351646086E+04  0.00000000000E+00 0.  1.
         24    1    1    2    0    0  0.58055184430E+01 -0.24251446259E+02 -0.18595643399E+03  0.20412948828E+03  0.80419002446E+02 0.  1.
          1    1    1    2  501    0  0.23540820673E+02  0.28738049880E+02 -0.31369228053E+03  0.31588430257E+03  0.00000000000E+00 0. -1.
         -2    1    1    2    0  503 -0.29346339116E+02 -0.44866036213E+01 -0.52491393784E+03  0.52575277400E+03  0.00000000000E+00 0.  1.
<mgrwt>
<rscale>  2 0.75516402E+02</rscale>
<asrwt>0</asrwt>
<pdfrwt beam="1">  1       21 0.16310698E-02 0.75516402E+02</pdfrwt>
<pdfrwt beam="2">  1       21 0.15925613E+00 0.75516402E+02</pdfrwt>
<totfact> 0.45309410E+05</totfact>
</mgrwt>
</event>
<event>
 5    1  0.1696945E+000  0.9237790E+02  0.7546771E-02  0.1297193E+00
         21   -1    0    0  503  502  0.00000000000E+00  0.00000000000E+00  0.11229238445E+04  0.11229238445E+04  0.00000000000E+00 0.  1.
         21   -1    0    0  501  503 -0.00000000000E+00 -0.00000000000E+00 -0.81541638578E+02  0.81541638578E+02  0.00000000000E+00 0. -1.
         24    1    1    2    0    0  0.14424298839E+02 -0.38483976166E+02  0.91485933613E+02  0.12855336955E+03  0.80419002446E+02 0.  1.
          1    1    1    2  501    0  0.11447660006E+01 -0.27055790251E+02 -0.58922150252E+02  0.64847097588E+02  0.00000000000E+00 0. -1.
         -2    1    1    2    0  502 -0.15569064839E+02  0.65539766417E+02  0.10088184226E+04  0.10110650159E+04  0.00000000000E+00 0.  1.
<mgrwt>
<rscale>  2 0.92377905E+02</rscale>
<asrwt>0</asrwt>
<pdfrwt beam="1">  1       21 0.17275750E+00 0.92377905E+02</pdfrwt>
<pdfrwt beam="2">  1       21 0.12544868E-01 0.92377905E+02</pdfrwt>
<totfact> 0.12220383E+04</totfact>
</mgrwt>
</event>
<event>
 5    1  0.1696945E+000  0.1725944E+03  0.7546771E-02  0.1175169E+00
         21   -1    0    0  501  502  0.00000000000E+00  0.00000000000E+00  0.96674691944E+02  0.96674691944E+02  0.00000000000E+00 0. -1.
         21   -1    0    0  502  503 -0.00000000000E+00 -0.00000000000E+00 -0.37167995277E+03  0.37167995277E+03  0.00000000000E+00 0. -1.
         24    1    1    2    0    0 -0.71336344128E+02  0.12465917635E+03 -0.44091222019E+02  0.17041137302E+03  0.80419002446E+02 0. -1.
          1    1    1    2  501    0  0.68355666657E+02 -0.14485093911E+03 -0.16940352832E+03  0.23313482608E+03  0.00000000000E+00 0. -1.
         -2    1    1    2    0  503  0.29806774712E+01  0.20191762768E+02 -0.61510510493E+02  0.64808445615E+02  0.00000000000E+00 0.  1.
<mgrwt>
<rscale>  2 0.17259439E+03</rscale>
<asrwt>0</asrwt>
<pdfrwt beam="1">  1       21 0.14873029E-01 0.17259439E+03</pdfrwt>
<pdfrwt beam="2">  1       21 0.57181532E-01 0.17259439E+03</pdfrwt>
<totfact> 0.11527124E+05</totfact>
</mgrwt>
</event>
<event>
 5    1  0.1696945E+000  0.1362285E+03  0.7546771E-02  0.1218496E+00
         21   -1    0    0  503  502  0.00000000000E+00  0.00000000000E+00  0.18543994526E+03  0.18543994526E+03  0.00000000000E+00 0. -1.
         21   -1    0    0  501  503 -0.00000000000E+00 -0.00000000000E+00 -0.18750455042E+03  0.18750455042E+03  0.00000000000E+00 0.  1.
         24    1    1    2    0    0  0.31739175299E+02 -0.11573861666E+03  0.93974014638E+02  0.17234016948E+03  0.80419002446E+02 0. -1.
          1    1    1    2  501    0 -0.20128058451E+02  0.11646560610E+02 -0.92956709200E+02  0.95821348855E+02  0.00000000000E+00 0. -1.
         -2    1    1    2    0  502 -0.11611116848E+02  0.10409205605E+03 -0.30819105949E+01  0.10478297734E+03  0.00000000000E+00 0.  1.
<mgrwt>
<rscale>  2 0.13622847E+03</rscale>
<asrwt>0</asrwt>
<pdfrwt beam="1">  1       21 0.28529222E-01 0.13622847E+03</pdfrwt>
<pdfrwt beam="2">  1       21 0.28846854E-01 0.13622847E+03</pdfrwt>
<totfact> 0.13768474E+05</totfact>
</mgrwt>
</event>
<event>
 5    1  0.1696945E+000  0.9664515E+02  0.7546771E-02  0.1287513E+00
         21   -1    0    0  503  502  0.00000000000E+00  0.00000000000E+00  0.24152230158E+02  0.24152230158E+02  0.00000000000E+00 0. -1.
         21   -1    0    0  501  503 -0.00000000000E+00 -0.00000000000E+00 -0.43039141072E+03  0.43039141072E+03  0.00000000000E+00 0.  1.
         24    1    1    2    0    0 -0.21423626881E+02 -0.41541970124E+02 -0.17920425790E+03  0.20190613926E+03  0.80419002446E+02 0.  0.
          1    1    1    2  501    0  0.55385465381E+02  0.35482079985E+02 -0.19409985184E+03  0.20494213881E+03  0.00000000000E+00 0. -1.
         -2    1    1    2    0  502 -0.33961838500E+02  0.60598901386E+01 -0.32935070835E+02  0.47695362812E+02  0.00000000000E+00 0.  1.
<mgrwt>
<rscale>  2 0.96645152E+02</rscale>
<asrwt>0</asrwt>
<pdfrwt beam="1">  1       21 0.37157276E-02 0.96645152E+02</pdfrwt>
<pdfrwt beam="2">  1       21 0.66214065E-01 0.96645152E+02</pdfrwt>
<totfact> 0.92994581E+05</totfact>
</mgrwt>
</event>
<event>
 5    1  0.1696945E+000  0.7962377E+02  0.7546771E-02  0.1330123E+00
         21   -1    0    0  503  502  0.00000000000E+00  0.00000000000E+00  0.26023649385E+03  0.26023649385E+03  0.00000000000E+00 0.  1.
         21   -1    0    0  501  503 -0.00000000000E+00 -0.00000000000E+00 -0.85134025462E+02  0.85134025462E+02  0.00000000000E+00 0.  1.
         24    1    1    2    0    0  0.50383617738E+02 -0.28130587107E+02  0.57238022963E+02  0.11433829671E+03  0.80419002446E+02 0.  1.
          1    1    1    2  501    0 -0.14718833106E+02  0.17879683437E+02 -0.52125747208E+02  0.57038764449E+02  0.00000000000E+00 0. -1.
         -2    1    1    2    0  502 -0.35664784632E+02  0.10250903670E+02  0.16999019264E+03  0.17399345816E+03  0.00000000000E+00 0.  1.
<mgrwt>
<rscale>  2 0.79623771E+02</rscale>
<asrwt>0</asrwt>
<pdfrwt beam="1">  1       21 0.40036383E-01 0.79623771E+02</pdfrwt>
<pdfrwt beam="2">  1       21 0.13097543E-01 0.79623771E+02</pdfrwt>
<totfact> 0.30818424E+05</totfact>
</mgrwt>
</event>
<event>
 5    1  0.1696945E+000  0.9859294E+02  0.7546771E-02  0.1283283E+00
         21   -1    0    0  503  502  0.00000000000E+00  0.00000000000E+00  0.33370060826E+03  0.33370060826E+03  0.00000000000E+00 0. -1.
         21   -1    0    0  501  503 -0.00000000000E+00 -0.00000000000E+00 -0.48949784501E+02  0.48949784501E+02  0.00000000000E+00 0.  1.
         24    1    1    2    0    0  0.17845149293E+02  0.11407971195E+02  0.26306039739E+02  0.87222788543E+02  0.80419002446E+02 0.  1.
          1    1    1    2  501    0 -0.18817045979E+02 -0.61299981973E+02  0.50619219903E+02  0.81695008616E+02  0.00000000000E+00 0. -1.
         -2    1    1    2    0  502  0.97189668688E+00  0.49892010778E+02  0.20782556412E+03  0.21373259561E+03  0.00000000000E+00 0.  1.
<mgrwt>
<rscale>  2 0.98592943E+02</rscale>
<asrwt>0</asrwt>
<pdfrwt beam="1">  1       21 0.51338554E-01 0.98592943E+02</pdfrwt>
<pdfrwt beam="2">  1       21 0.75307363E-02 0.98592943E+02</pdfrwt>
<totfact> 0.48623204E+05</totfact>
</mgrwt>
</event>
<event>
 5    1  0.1696945E+000  0.9673905E+02  0.7546771E-02  0.1287307E+00
         21   -1    0    0  503  502  0.00000000000E+00  0.00000000000E+00  0.42941425632E+02  0.42941425632E+02  0.00000000000E+00 0. -1.
         21   -1    0    0  501  503 -0.00000000000E+00 -0.00000000000E+00 -0.37407504320E+03  0.37407504320E+03  0.00000000000E+00 0.  1.
         24    1    1    2    0    0 -0.63334589183E+02  0.77308511004E+01 -0.15381614611E+03  0.18492609065E+03  0.80419002446E+02 0.  1.
          1    1    1    2  501    0  0.66543925658E+02  0.14712088386E+02 -0.19289704970E+03  0.20458204068E+03  0.00000000000E+00 0. -1.
         -2    1    1    2    0  502 -0.32093364752E+01 -0.22442939486E+02  0.15579578245E+02  0.27508337494E+02  0.00000000000E+00 0.  1.
<mgrwt>
<rscale>  2 0.96739047E+02</rscale>
<asrwt>0</asrwt>
<pdfrwt beam="1">  1       21 0.66063734E-02 0.96739047E+02</pdfrwt>
<pdfrwt beam="2">  1       21 0.57550005E-01 0.96739047E+02</pdfrwt>
<totfact> 0.47943202E+05</totfact>
</mgrwt>
</event>
<event>
 5    1  0.1696945E+000  0.8251190E+02  0.7546771E-02  0.1322070E+00
         21   -1    0    0  503  502  0.00000000000E+00  0.00000000000E+00  0.89426580781E+01  0.89426580781E+01  0.00000000000E+00 0.  1.
         21   -1    0    0  501  503 -0.00000000000E+00 -0.00000000000E+00 -0.77551697104E+03  0.77551697104E+03  0.00000000000E+00 0.  1.
         24    1    1    2    0    0 -0.57269846379E+02 -0.12598091375E+02 -0.46505560930E+03  0.47558646207E+03  0.80419002446E+02 0.  1.
          1    1    1    2  501    0  0.36687022693E+02 -0.66856467261E+01 -0.20299062173E+03  0.20638756750E+03  0.00000000000E+00 0. -1.
         -2    1    1    2    0  502  0.20582823687E+02  0.19283738101E+02 -0.98528081924E+02  0.10248559954E+03  0.00000000000E+00 0.  1.
<mgrwt>
<rscale>  2 0.82511902E+02</rscale>
<asrwt>0</asrwt>
<pdfrwt beam="1">  1       21 0.13757935E-02 0.82511902E+02</pdfrwt>
<pdfrwt beam="2">  1       21 0.11931030E+00 0.82511902E+02</pdfrwt>
<totfact> 0.12125465E+06</totfact>
</mgrwt>
</event>
<event>
 5    1  0.1696945E+000  0.8300902E+02  0.7546771E-02  0.1320723E+00
         21   -1    0    0  503  502  0.00000000000E+00  0.00000000000E+00  0.56611974080E+02  0.56611974080E+02  0.00000000000E+00 0. -1.
         21   -1    0    0  501  503 -0.00000000000E+00 -0.00000000000E+00 -0.16076072288E+03  0.16076072288E+03  0.00000000000E+00 0.  1.
         24    1    1    2    0    0 -0.60987270150E+02 -0.12226957446E+02 -0.98882069836E+02  0.14182321847E+03  0.80419002446E+02 0. -1.
          1    1    1    2  501    0  0.22946254772E+02 -0.34542914009E+01 -0.21195141600E+02  0.31427643319E+02  0.00000000000E+00 0. -1.
         -2    1    1    2    0  502  0.38041015379E+02  0.15681248847E+02  0.15928462637E+02  0.44121835166E+02  0.00000000000E+00 0.  1.
<mgrwt>
<rscale>  2 0.83009022E+02</rscale>
<asrwt>0</asrwt>
<pdfrwt beam="1">  1       21 0.87095345E-02 0.83009022E+02</pdfrwt>
<pdfrwt beam="2">  1       21 0.24732419E-01 0.83009022E+02</pdfrwt>
<totfact> 0.15747715E+06</totfact>
</mgrwt>
</event>
<event>
 5    1  0.1696945E+000  0.9357505E+02  0.7546771E-02  0.1294418E+00
         21   -1    0    0  501  502  0.00000000000E+00  0.00000000000E+00  0.15287164251E+03  0.15287164251E+03  0.00000000000E+00 0. -1.
         21   -1    0    0  502  503 -0.00000000000E+00 -0.00000000000E+00 -0.12141664303E+03  0.12141664303E+03  0.00000000000E+00 0. -1.
         24    1    1    2    0    0 -0.10378416202E+02 -0.43358944606E+01 -0.67421110693E+02  0.10554304158E+03  0.80419002446E+02 0. -1.
          1    1    1    2  501    0 -0.45552608052E+02 -0.13036715244E+02  0.99466605421E+02  0.11017532228E+03  0.00000000000E+00 0. -1.
         -2    1    1    2    0  503  0.55931024254E+02  0.17372609705E+02 -0.59049524923E+00  0.58569921690E+02  0.00000000000E+00 0.  1.
<mgrwt>
<rscale>  2 0.93575052E+02</rscale>
<asrwt>0</asrwt>
<pdfrwt beam="1">  1       21 0.23518714E-01 0.93575052E+02</pdfrwt>
<pdfrwt beam="2">  1       21 0.18679484E-01 0.93575052E+02</pdfrwt>
<totfact> 0.45127357E+05</totfact>
</mgrwt>
</event>
<event>
 5    1  0.1696945E+000  0.2934274E+03  0.7546771E-02  0.1088573E+00
         21   -1    0    0  501  502  0.00000000000E+00  0.00000000000E+00  0.31983343923E+03  0.31983343923E+03  0.00000000000E+00 0. -1.
         21   -1    0    0  502  503 -0.00000000000E+00 -0.00000000000E+00 -0.68206893991E+03  0.68206893991E+03  0.00000000000E+00 0.  1.
         24    1    1    2    0    0  0.17171086748E+02  0.22358755551E+03 -0.46552440558E+03  0.52294017760E+03  0.80419002446E+02 0. -1.
          1    1    1    2  501    0  0.73169513013E+02 -0.24507458497E+03  0.21469473838E+03  0.33392987366E+03  0.00000000000E+00 0. -1.
         -2    1    1    2    0  503 -0.90340599761E+02  0.21487029463E+02 -0.11140583348E+03  0.14503232789E+03  0.00000000000E+00 0.  1.
<mgrwt>
<rscale>  2 0.29342739E+03</rscale>
<asrwt>0</asrwt>
<pdfrwt beam="1">  1       21 0.49205144E-01 0.29342739E+03</pdfrwt>
<pdfrwt beam="2">  1       21 0.10493368E+00 0.29342739E+03</pdfrwt>
<totfact> 0.26818312E+03</totfact>
</mgrwt>
</event>
<event>
 5    1  0.1696945E+000  0.1049061E+03  0.7546771E-02  0.1270305E+00
         21   -1    0    0  501  502  0.00000000000E+00  0.00000000000E+00  0.30282193296E+03  0.30282193296E+03  0.00000000000E+00 0. -1.
         21   -1    0    0  502  503 -0.00000000000E+00 -0.00000000000E+00 -0.11058607358E+03  0.11058607358E+03  0.00000000000E+00 0. -1.
         24    1    1    2    0    0 -0.36025593448E+02  0.36701301014E+02 -0.48567124615E+02  0.10710186939E+03  0.80419002446E+02 0. -1.
          1    1    1    2  501    0  0.72128189811E+02 -0.22445338615E+02  0.25424459011E+03  0.26522929814E+03  0.00000000000E+00 0. -1.
         -2    1    1    2    0  503 -0.36102596363E+02 -0.14255962398E+02 -0.13441606117E+02  0.41076839010E+02  0.00000000000E+00 0.  1.
<mgrwt>
<rscale>  2 0.10490611E+03</rscale>
<asrwt>0</asrwt>
<pdfrwt beam="1">  1       21 0.46587989E-01 0.10490611E+03</pdfrwt>
<pdfrwt beam="2">  1       21 0.17013242E-01 0.10490611E+03</pdfrwt>
<totfact> 0.14162917E+05</totfact>
</mgrwt>
</event>
<event>
 5    1  0.1696945E+000  0.9607113E+02  0.7546771E-02  0.1288782E+00
         21   -1    0    0  503  502  0.00000000000E+00  0.00000000000E+00  0.52050026814E+03  0.52050026814E+03  0.00000000000E+00 0.  1.
         21   -1    0    0  501  503 -0.00000000000E+00 -0.00000000000E+00 -0.46178599920E+02  0.46178599920E+02  0.00000000000E+00 0. -1.
         24    1    1    2    0    0  0.26632886871E+02  0.35302403224E+02  0.61232256409E+02  0.11032758275E+03  0.80419002446E+02 0.  1.
          1    1    1    2  501    0  0.17555813806E+02  0.21910158980E+02 -0.79270339192E+01  0.29173610193E+02  0.00000000000E+00 0. -1.
         -2    1    1    2    0  502 -0.44188700677E+02 -0.57212562205E+02  0.42101644573E+03  0.42717767511E+03  0.00000000000E+00 0.  1.
<mgrwt>
<rscale>  2 0.96071126E+02</rscale>
<asrwt>0</asrwt>
<pdfrwt beam="1">  1       21 0.80076960E-01 0.96071126E+02</pdfrwt>
<pdfrwt beam="2">  1       21 0.71044003E-02 0.96071126E+02</pdfrwt>
<totfact> 0.20829494E+05</totfact>
</mgrwt>
</event>
<event>
 5    1  0.1696945E+000  0.7047726E+02  0.7546771E-02  0.1358478E+00
         21   -1    0    0  503  502  0.00000000000E+00  0.00000000000E+00  0.76779375813E+03  0.76779375813E+03  0.00000000000E+00 0. -1.
         21   -1    0    0  501  503 -0.00000000000E+00 -0.00000000000E+00 -0.99509910425E+01  0.99509910425E+01  0.00000000000E+00 0. -1.
         24    1    1    2    0    0  0.25459362465E+02  0.39309482123E+02  0.63032600667E+03  0.63715893241E+03  0.80419002446E+02 0. -1.
          1    1    1    2  501    0 -0.18540106844E+02 -0.19491325974E+02  0.27803416413E+02  0.38686913993E+02  0.00000000000E+00 0. -1.
         -2    1    1    2    0  502 -0.69192556210E+01 -0.19818156149E+02  0.99713344012E+02  0.10189890277E+03  0.00000000000E+00 0.  1.
<mgrwt>
<rscale>  2 0.70477260E+02</rscale>
<asrwt>0</asrwt>
<pdfrwt beam="1">  1       21 0.11812207E+00 0.70477260E+02</pdfrwt>
<pdfrwt beam="2">  1       21 0.15309223E-02 0.70477260E+02</pdfrwt>
<totfact> 0.10475886E+06</totfact>
</mgrwt>
</event>
<event>
 5    1  0.1696945E+000  0.1872252E+03  0.7546771E-02  0.1160988E+00
         21   -1    0    0  501  502  0.00000000000E+00  0.00000000000E+00  0.78421984930E+03  0.78421984930E+03  0.00000000000E+00 0. -1.
         21   -1    0    0  502  503 -0.00000000000E+00 -0.00000000000E+00 -0.25539353223E+03  0.25539353223E+03  0.00000000000E+00 0.  1.
         24    1    1    2    0    0 -0.73231325465E+01 -0.68857889218E+02 -0.31293460199E+02  0.11064146503E+03  0.80419002446E+02 0.  1.
          1    1    1    2  501    0  0.85202915279E+02 -0.69235265775E+02  0.70542503825E+03  0.71391704237E+03  0.00000000000E+00 0. -1.
         -2    1    1    2    0  503 -0.77879782733E+02  0.13809315499E+03 -0.14530526098E+03  0.21505487412E+03  0.00000000000E+00 0.  1.
<mgrwt>
<rscale>  2 0.18722517E+03</rscale>
<asrwt>0</asrwt>
<pdfrwt beam="1">  1       21 0.12064921E+00 0.18722517E+03</pdfrwt>
<pdfrwt beam="2">  1       21 0.39291313E-01 0.18722517E+03</pdfrwt>
<totfact> 0.32694177E+03</totfact>
</mgrwt>
</event>
<event>
 5    1  0.1696945E+000  0.6774731E+02  0.7546771E-02  0.1367925E+00
         21   -1    0    0  501  502  0.00000000000E+00  0.00000000000E+00  0.67716742866E+01  0.67716742866E+01  0.00000000000E+00 0.  1.
         21   -1    0    0  502  503 -0.00000000000E+00 -0.00000000000E+00 -0.15894915511E+04  0.15894915511E+04  0.00000000000E+00 0. -1.
         24    1    1    2    0    0  0.85109400651E+01 -0.42144481520E+02 -0.32030086998E+03  0.33302921297E+03  0.80419002446E+02 0.  1.
          1    1    1    2  501    0  0.12692089413E+01  0.20646421339E+02 -0.45552178406E+03  0.45599120754E+03  0.00000000000E+00 0. -1.
         -2    1    1    2    0  503 -0.97801490064E+01  0.21498060181E+02 -0.80689722282E+03  0.80724280492E+03  0.00000000000E+00 0.  1.
<mgrwt>
<rscale>  2 0.67747312E+02</rscale>
<asrwt>0</asrwt>
<pdfrwt beam="1">  1       21 0.10417960E-02 0.67747312E+02</pdfrwt>
<pdfrwt beam="2">  1       21 0.24453717E+00 0.67747312E+02</pdfrwt>
<totfact> 0.27666698E+05</totfact>
</mgrwt>
</event>
<event>
 5    1  0.1696945E+000  0.7106268E+02  0.7546771E-02  0.1356516E+00
         21   -1    0    0  503  502  0.00000000000E+00  0.00000000000E+00  0.32846063928E+03  0.32846063928E+03  0.00000000000E+00 0.  1.
         21   -1    0    0  501  503 -0.00000000000E+00 -0.00000000000E+00 -0.16838053749E+02  0.16838053749E+02  0.00000000000E+00 0. -1.
         24    1    1    2    0    0 -0.28190261407E+01 -0.41503660968E+00  0.21532763233E+03  0.22987240887E+03  0.80419002446E+02 0.  1.
          1    1    1    2  501    0  0.31902992322E+02  0.47363354505E+01  0.35939091019E+02  0.48289254041E+02  0.00000000000E+00 0. -1.
         -2    1    1    2    0  502 -0.29083966181E+02 -0.43212988408E+01  0.60355862189E+02  0.67137030118E+02  0.00000000000E+00 0.  1.
<mgrwt>
<rscale>  2 0.71062683E+02</rscale>
<asrwt>0</asrwt>
<pdfrwt beam="1">  1       21 0.50532401E-01 0.71062683E+02</pdfrwt>
<pdfrwt beam="2">  1       21 0.25904701E-02 0.71062683E+02</pdfrwt>
<totfact> 0.29061034E+06</totfact>
</mgrwt>
</event>
<event>
 5    1  0.1696945E+000  0.8577079E+02  0.7546771E-02  0.1313429E+00
         21   -1    0    0  503  502  0.00000000000E+00  0.00000000000E+00  0.69265623905E+03  0.69265623905E+03  0.00000000000E+00 0. -1.
         21   -1    0    0  501  503 -0.00000000000E+00 -0.00000000000E+00 -0.15282605336E+02  0.15282605336E+02  0.00000000000E+00 0.  1.
         24    1    1    2    0    0  0.37756963678E+02 -0.74802594502E+01  0.38872204423E+03  0.39881522816E+03  0.80419002446E+02 0.  1.
          1    1    1    2  501    0 -0.55484344716E+02  0.21783835530E+02  0.82845836563E+02  0.10206116125E+03  0.00000000000E+00 0. -1.
         -2    1    1    2    0  502  0.17727381038E+02 -0.14303576080E+02  0.20580575292E+03  0.20706245498E+03  0.00000000000E+00 0.  1.
<mgrwt>
<rscale>  2 0.85770795E+02</rscale>
<asrwt>0</asrwt>
<pdfrwt beam="1">  1       21 0.10656247E+00 0.85770795E+02</pdfrwt>
<pdfrwt beam="2">  1       21 0.23511706E-02 0.85770795E+02</pdfrwt>
<totfact> 0.67525839E+05</totfact>
</mgrwt>
</event>
<event>
 5    1  0.1696945E+000  0.6894827E+02  0.7546771E-02  0.1363706E+00
         21   -1    0    0  503  502  0.00000000000E+00  0.00000000000E+00  0.10130382477E+03  0.10130382477E+03  0.00000000000E+00 0.  1.
         21   -1    0    0  501  503 -0.00000000000E+00 -0.00000000000E+00 -0.24407116763E+03  0.24407116763E+03  0.00000000000E+00 0. -1.
         24    1    1    2    0    0  0.87355696243E+01 -0.26212542797E+02 -0.21617360289E+03  0.23229647031E+03  0.80419002446E+02 0. -1.
          1    1    1    2  501    0 -0.19942369760E+02 -0.42628031381E+01 -0.10622961013E+02  0.22993844893E+02  0.00000000000E+00 0. -1.
         -2    1    1    2    0  502  0.11206800136E+02  0.30475345935E+02  0.84029221035E+02  0.90084677203E+02  0.00000000000E+00 0.  1.
<mgrwt>
<rscale>  2 0.68948271E+02</rscale>
<asrwt>0</asrwt>
<pdfrwt beam="1">  1       21 0.15585204E-01 0.68948271E+02</pdfrwt>
<pdfrwt beam="2">  1       21 0.37549410E-01 0.68948271E+02</pdfrwt>
<totfact> 0.25737486E+05</totfact>
</mgrwt>
</event>
<event>
 5    1  0.1696945E+000  0.1165321E+03  0.7546771E-02  0.1248930E+00
         21   -1    0    0  503  502  0.00000000000E+00  0.00000000000E+00  0.25661843320E+02  0.25661843320E+02  0.00000000000E+00 0.  1.
         21   -1    0    0  501  503 -0.00000000000E+00 -0.00000000000E+00 -0.96974958811E+03  0.96974958811E+03  0.00000000000E+00 0.  1.
         24    1    1    2    0    0 -0.41790730811E+02 -0.90421800375E+02 -0.39085705352E+03  0.41128945939E+03  0.80419002446E+02 0.  1.
          1    1    1    2  501    0  0.60800300242E+01  0.52878667824E+02 -0.51966868998E+03  0.52238746886E+03  0.00000000000E+00 0. -1.
         -2    1    1    2    0  502  0.35710700786E+02  0.37543132551E+02 -0.33562001291E+02  0.61734503182E+02  0.00000000000E+00 0.  1.
<mgrwt>
<rscale>  2 0.11653207E+03</rscale>
<asrwt>0</asrwt>
<pdfrwt beam="1">  1       21 0.39479764E-02 0.11653207E+03</pdfrwt>
<pdfrwt beam="2">  1       21 0.14919222E+00 0.11653207E+03</pdfrwt>
<totfact> 0.12592137E+05</totfact>
</mgrwt>
</event>
<event>
 5    1  0.1696945E+000  0.7605849E+02  0.7546771E-02  0.1340624E+00
         21   -1    0    0  501  502  0.00000000000E+00  0.00000000000E+00  0.71385301392E+02  0.71385301392E+02  0.00000000000E+00 0.  1.
         21   -1    0    0  502  503 -0.00000000000E+00 -0.00000000000E+00 -0.17170944620E+03  0.17170944620E+03  0.00000000000E+00 0. -1.
         24    1    1    2    0    0 -0.34119007124E+02 -0.39658353492E+00  0.27600100250E+02  0.91614657200E+02  0.80419002446E+02 0.  1.
          1    1    1    2  501    0  0.13830725520E+02 -0.27195544067E+02 -0.16036690121E+02  0.34468275494E+02  0.00000000000E+00 0. -1.
         -2    1    1    2    0  503  0.20288281605E+02  0.27592127602E+02 -0.11188755494E+03  0.11701181490E+03  0.00000000000E+00 0.  1.
<mgrwt>
<rscale>  2 0.76058493E+02</rscale>
<asrwt>0</asrwt>
<pdfrwt beam="1">  1       21 0.10982354E-01 0.76058493E+02</pdfrwt>
<pdfrwt beam="2">  1       21 0.26416838E-01 0.76058493E+02</pdfrwt>
<totfact> 0.93131057E+05</totfact>
</mgrwt>
</event>
<event>
 5    1  0.1696945E+000  0.7029911E+02  0.7546771E-02  0.1359079E+00
         21   -1    0    0  501  502  0.00000000000E+00  0.00000000000E+00  0.25672779802E+03  0.25672779802E+03  0.00000000000E+00 0.  1.
         21   -1    0    0  502  503 -0.00000000000E+00 -0.00000000000E+00 -0.59931930509E+02  0.59931930509E+02  0.00000000000E+00 0.  1.
         24    1    1    2    0    0 -0.82858649648E+01 -0.45564290547E+02  0.68199516617E+02  0.11516575078E+03  0.80419002446E+02 0.  1.
          1    1    1    2  501    0  0.10478701610E+02  0.24870830658E+02  0.16085638675E+03  0.16310468590E+03  0.00000000000E+00 0. -1.
         -2    1    1    2    0  503 -0.21928366456E+01  0.20693459889E+02 -0.32260035859E+02  0.38389291845E+02  0.00000000000E+00 0.  1.
<mgrwt>
<rscale>  2 0.70299113E+02</rscale>
<asrwt>0</asrwt>
<pdfrwt beam="1">  1       21 0.39496584E-01 0.70299113E+02</pdfrwt>
<pdfrwt beam="2">  1       21 0.92202971E-02 0.70299113E+02</pdfrwt>
<totfact> 0.58194651E+05</totfact>
</mgrwt>
</event>
<event>
 5    1  0.1696945E+000  0.7160903E+02  0.7546771E-02  0.1354705E+00
         21   -1    0    0  501  502  0.00000000000E+00  0.00000000000E+00  0.28072527848E+02  0.28072527848E+02  0.00000000000E+00 0. -1.
         21   -1    0    0  502  503 -0.00000000000E+00 -0.00000000000E+00 -0.78145238089E+03  0.78145238089E+03  0.00000000000E+00 0.  1.
         24    1    1    2    0    0  0.16749167279E+02  0.15295387170E+02 -0.78964003677E+02  0.11496526999E+03  0.80419002446E+02 0.  0.
          1    1    1    2  501    0 -0.15578559216E+02  0.19436872785E+02 -0.65044125876E+01  0.25744725946E+02  0.00000000000E+00 0. -1.
         -2    1    1    2    0  503 -0.11706080626E+01 -0.34732259955E+02 -0.66791143678E+03  0.66881491280E+03  0.00000000000E+00 0.  1.
<mgrwt>
<rscale>  2 0.71609026E+02</rscale>
<asrwt>0</asrwt>
<pdfrwt beam="1">  1       21 0.43188508E-02 0.71609026E+02</pdfrwt>
<pdfrwt beam="2">  1       21 0.12022343E+00 0.71609026E+02</pdfrwt>
<totfact> 0.18985756E+05</totfact>
</mgrwt>
</event>
<event>
 5    1  0.1696945E+000  0.9234280E+02  0.7546771E-02  0.1297275E+00
         21   -1    0    0  501  502  0.00000000000E+00  0.00000000000E+00  0.27797115039E+02  0.27797115039E+02  0.00000000000E+00 0. -1.
         21   -1    0    0  502  503 -0.00000000000E+00 -0.00000000000E+00 -0.42880133831E+03  0.42880133831E+03  0.00000000000E+00 0.  1.
         24    1    1    2    0    0  0.29006303833E+02 -0.33208191357E+02 -0.77922155589E+02  0.12034628337E+03  0.80419002446E+02 0.  0.
          1    1    1    2  501    0 -0.14034855484E+02 -0.27269285792E+02 -0.11751868808E+03  0.12145465477E+03  0.00000000000E+00 0. -1.
         -2    1    1    2    0  503 -0.14971448349E+02  0.60477477149E+02 -0.20556337961E+03  0.21479751522E+03  0.00000000000E+00 0.  1.
<mgrwt>
<rscale>  2 0.92342801E+02</rscale>
<asrwt>0</asrwt>
<pdfrwt beam="1">  1       21 0.42764790E-02 0.92342801E+02</pdfrwt>
<pdfrwt beam="2">  1       21 0.65969440E-01 0.92342801E+02</pdfrwt>
<totfact> 0.74331852E+05</totfact>
</mgrwt>
</event>
<event>
 5    1  0.1696945E+000  0.3881019E+03  0.7546771E-02  0.1047979E+00
         21   -1    0    0  501  502  0.00000000000E+00  0.00000000000E+00  0.45033367647E+03  0.45033367647E+03  0.00000000000E+00 0. -1.
         21   -1    0    0  502  503 -0.00000000000E+00 -0.00000000000E+00 -0.35352152627E+03  0.35352152627E+03  0.00000000000E+00 0. -1.
         24    1    1    2    0    0  0.11382640892E+03 -0.33981058945E+03  0.13547350638E+03  0.39146899616E+03  0.80419002446E+02 0. -1.
          1    1    1    2  501    0 -0.29176809869E+02  0.32085306467E+03 -0.15257084267E+02  0.32253798840E+03  0.00000000000E+00 0. -1.
         -2    1    1    2    0  503 -0.84649599053E+02  0.18957524783E+02 -0.23404271914E+02  0.89848218177E+02  0.00000000000E+00 0.  1.
<mgrwt>
<rscale>  2 0.38810189E+03</rscale>
<asrwt>0</asrwt>
<pdfrwt beam="1">  1       21 0.69282104E-01 0.38810189E+03</pdfrwt>
<pdfrwt beam="2">  1       21 0.54387927E-01 0.38810189E+03</pdfrwt>
<totfact> 0.54517037E+03</totfact>
</mgrwt>
</event>
<event>
 5    1  0.1696945E+000  0.1019373E+03  0.7546771E-02  0.1276274E+00
         21   -1    0    0  503  502  0.00000000000E+00  0.00000000000E+00  0.13340586222E+02  0.13340586222E+02  0.00000000000E+00 0.  1.
         21   -1    0    0  501  503 -0.00000000000E+00 -0.00000000000E+00 -0.94999314057E+03  0.94999314057E+03  0.00000000000E+00 0.  1.
         24    1    1    2    0    0 -0.40717378551E+02  0.38885377337E+02 -0.62741264614E+03  0.63504631482E+03  0.80419002446E+02 0.  1.
          1    1    1    2  501    0 -0.10693331146E+02  0.22932544295E+02 -0.12062964667E+03  0.12325486024E+03  0.00000000000E+00 0. -1.
         -2    1    1    2    0  502  0.51410709697E+02 -0.61817921631E+02 -0.18861026154E+03  0.20503255172E+03  0.00000000000E+00 0.  1.
<mgrwt>
<rscale>  2 0.10193728E+03</rscale>
<asrwt>0</asrwt>
<pdfrwt beam="1">  1       21 0.20523975E-02 0.10193728E+03</pdfrwt>
<pdfrwt beam="2">  1       21 0.14615281E+00 0.10193728E+03</pdfrwt>
<totfact> 0.38808110E+05</totfact>
</mgrwt>
</event>
<event>
 5    1  0.1696945E+000  0.7414803E+02  0.7546771E-02  0.1346530E+00
         21   -1    0    0  503  502  0.00000000000E+00  0.00000000000E+00  0.81907655317E+03  0.81907655317E+03  0.00000000000E+00 0.  1.
         21   -1    0    0  501  503 -0.00000000000E+00 -0.00000000000E+00 -0.18586035093E+02  0.18586035093E+02  0.00000000000E+00 0.  1.
         24    1    1    2    0    0  0.37474623846E+02  0.20717232240E+02  0.11175026374E+03  0.14418352383E+03  0.80419002446E+02 0.  1.
          1    1    1    2  501    0 -0.99026664403E+01 -0.27129006872E+02  0.10074165801E+03  0.10479946314E+03  0.00000000000E+00 0. -1.
         -2    1    1    2    0  502 -0.27571957406E+02  0.64117746318E+01  0.58799859634E+03  0.58867960130E+03  0.00000000000E+00 0.  1.
<mgrwt>
<rscale>  2 0.74148029E+02</rscale>
<asrwt>0</asrwt>
<pdfrwt beam="1">  1       21 0.12601175E+00 0.74148029E+02</pdfrwt>
<pdfrwt beam="2">  1       21 0.28593907E-02 0.74148029E+02</pdfrwt>
<totfact> 0.33141325E+05</totfact>
</mgrwt>
</event>
<event>
 5    1  0.1696945E+000  0.9733305E+02  0.7546771E-02  0.1286006E+00
         21   -1    0    0  503  502  0.00000000000E+00  0.00000000000E+00  0.93969641409E+02  0.93969641409E+02  0.00000000000E+00 0.  1.
         21   -1    0    0  501  503 -0.00000000000E+00 -0.00000000000E+00 -0.23763513344E+03  0.23763513344E+03  0.00000000000E+00 0. -1.
         24    1    1    2    0    0 -0.12920732146E+01 -0.98312791271E+01 -0.51114448203E+02  0.95803059826E+02  0.80419002446E+02 0. -1.
          1    1    1    2  501    0 -0.49946087138E+02  0.30349885997E+02 -0.14704822424E+03  0.15823687134E+03  0.00000000000E+00 0. -1.
         -2    1    1    2    0  502  0.51238160353E+02 -0.20518606869E+02  0.54497180404E+02  0.77564843687E+02  0.00000000000E+00 0.  1.
<mgrwt>
<rscale>  2 0.97333050E+02</rscale>
<asrwt>0</asrwt>
<pdfrwt beam="1">  1       21 0.14456868E-01 0.97333050E+02</pdfrwt>
<pdfrwt beam="2">  1       21 0.36559251E-01 0.97333050E+02</pdfrwt>
<totfact> 0.30840033E+05</totfact>
</mgrwt>
</event>
<event>
 5    1  0.1696945E+000  0.6456431E+02  0.7546771E-02  0.1379618E+00
         21   -1    0    0  501  502  0.00000000000E+00  0.00000000000E+00  0.22832815254E+03  0.22832815254E+03  0.00000000000E+00 0. -1.
         21   -1    0    0  502  503 -0.00000000000E+00 -0.00000000000E+00 -0.29334589569E+02  0.29334589569E+02  0.00000000000E+00 0. -1.
         24    1    1    2    0    0 -0.20873847825E+01 -0.23533994862E+02  0.54915344565E+02  0.10020537467E+03  0.80419002446E+02 0. -1.
          1    1    1    2  501    0 -0.18306514630E+02  0.10417366615E+02  0.12456446880E+03  0.12633272297E+03  0.00000000000E+00 0. -1.
         -2    1    1    2    0  503  0.20393899412E+02  0.13116628247E+02  0.19513749603E+02  0.31124644470E+02  0.00000000000E+00 0.  1.
<mgrwt>
<rscale>  2 0.64564309E+02</rscale>
<asrwt>0</asrwt>
<pdfrwt beam="1">  1       21 0.35127407E-01 0.64564309E+02</pdfrwt>
<pdfrwt beam="2">  1       21 0.45130139E-02 0.64564309E+02</pdfrwt>
<totfact> 0.24095857E+06</totfact>
</mgrwt>
</event>
<event>
 5    1  0.1696945E+000  0.7226769E+02  0.7546771E-02  0.1352547E+00
         21   -1    0    0  501  502  0.00000000000E+00  0.00000000000E+00  0.12949043630E+03  0.12949043630E+03  0.00000000000E+00 0. -1.
         21   -1    0    0  502  503 -0.00000000000E+00 -0.00000000000E+00 -0.13860352262E+03  0.13860352262E+03  0.00000000000E+00 0.  1.
         24    1    1    2    0    0  0.27269327199E+02 -0.19845436961E+02  0.56735460418E+02  0.10403646475E+03  0.80419002446E+02 0.  0.
          1    1    1    2  501    0 -0.24652056886E+01  0.30309493168E+02  0.42587241333E+02  0.52329874255E+02  0.00000000000E+00 0. -1.
         -2    1    1    2    0  503 -0.24804121511E+02 -0.10464056208E+02 -0.10843578807E+03  0.11172761991E+03  0.00000000000E+00 0.  1.
<mgrwt>
<rscale>  2 0.72267686E+02</rscale>
<asrwt>0</asrwt>
<pdfrwt beam="1">  1       21 0.19921606E-01 0.72267686E+02</pdfrwt>
<pdfrwt beam="2">  1       21 0.21323619E-01 0.72267686E+02</pdfrwt>
<totfact> 0.48088288E+05</totfact>
</mgrwt>
</event>
<event>
 5    1  0.1696945E+000  0.9537912E+02  0.7546771E-02  0.1290324E+00
         21   -1    0    0  503  502  0.00000000000E+00  0.00000000000E+00  0.23558380282E+03  0.23558380282E+03  0.00000000000E+00 0. -1.
         21   -1    0    0  501  503 -0.00000000000E+00 -0.00000000000E+00 -0.46907005838E+02  0.46907005838E+02  0.00000000000E+00 0.  1.
         24    1    1    2    0    0 -0.25671821992E+02  0.12663593910E+02  0.14007334777E+03  0.16403404453E+03  0.80419002446E+02 0. -1.
          1    1    1    2  501    0 -0.34164167180E+02 -0.27374770250E+02  0.75751701801E+01  0.44429174746E+02  0.00000000000E+00 0. -1.
         -2    1    1    2    0  502  0.59835989172E+02  0.14711176340E+02  0.41028279032E+02  0.74027589383E+02  0.00000000000E+00 0.  1.
<mgrwt>
<rscale>  2 0.95379124E+02</rscale>
<asrwt>0</asrwt>
<pdfrwt beam="1">  1       21 0.36243661E-01 0.95379124E+02</pdfrwt>
<pdfrwt beam="2">  1       21 0.72164626E-02 0.95379124E+02</pdfrwt>
<totfact> 0.10504360E+06</totfact>
</mgrwt>
</event>
<event>
 5    1  0.1696945E+000  0.1011301E+03  0.7546771E-02  0.1277937E+00
         21   -1    0    0  503  502  0.00000000000E+00  0.00000000000E+00  0.26751086423E+02  0.26751086423E+02  0.00000000000E+00 0. -1.
         21   -1    0    0  501  503 -0.00000000000E+00 -0.00000000000E+00 -0.77474365485E+03  0.77474365485E+03  0.00000000000E+00 0. -1.
         24    1    1    2    0    0  0.31241395251E+02  0.30137653667E+02 -0.85962450645E+02  0.12546338837E+03  0.80419002446E+02 0. -1.
          1    1    1    2  501    0  0.11047799248E+02 -0.58772466028E+02 -0.54591692925E+03  0.54918262015E+03  0.00000000000E+00 0. -1.
         -2    1    1    2    0  502 -0.42289194499E+02  0.28634812361E+02 -0.11611318853E+03  0.12684873275E+03  0.00000000000E+00 0.  1.
<mgrwt>
<rscale>  2 0.10113013E+03</rscale>
<asrwt>0</asrwt>
<pdfrwt beam="1">  1       21 0.41155519E-02 0.10113013E+03</pdfrwt>
<pdfrwt beam="2">  1       21 0.11919133E+00 0.10113013E+03</pdfrwt>
<totfact> 0.20717269E+05</totfact>
</mgrwt>
</event>
<event>
 5    1  0.1696945E+000  0.8336012E+02  0.7546771E-02  0.1319778E+00
         21   -1    0    0  503  502  0.00000000000E+00  0.00000000000E+00  0.58599582195E+03  0.58599582195E+03  0.00000000000E+00 0.  1.
         21   -1    0    0  501  503 -0.00000000000E+00 -0.00000000000E+00 -0.25446967706E+02  0.25446967706E+02  0.00000000000E+00 0. -1.
         24    1    1    2    0    0  0.20411656383E+02 -0.24221503845E+02  0.31540187135E+03  0.32703038600E+03  0.80419002446E+02 0.  1.
          1    1    1    2  501    0  0.93946507922E+01  0.43688852165E+02  0.89845894013E+01  0.45581773920E+02  0.00000000000E+00 0. -1.
         -2    1    1    2    0  502 -0.29806307175E+02 -0.19467348320E+02  0.23616239349E+03  0.23883062973E+03  0.00000000000E+00 0.  1.
<mgrwt>
<rscale>  2 0.83360123E+02</rscale>
<asrwt>0</asrwt>
<pdfrwt beam="1">  1       21 0.90153193E-01 0.83360123E+02</pdfrwt>
<pdfrwt beam="2">  1       21 0.39149185E-02 0.83360123E+02</pdfrwt>
<totfact> 0.43338349E+05</totfact>
</mgrwt>
</event>
<event>
 5    1  0.1696945E+000  0.9977239E+02  0.7546771E-02  0.1280775E+00
         21   -1    0    0  501  502  0.00000000000E+00  0.00000000000E+00  0.38088708423E+03  0.38088708423E+03  0.00000000000E+00 0. -1.
         21   -1    0    0  502  503 -0.00000000000E+00 -0.00000000000E+00 -0.39093268317E+02  0.39093268317E+02  0.00000000000E+00 0.  1.
         24    1    1    2    0    0 -0.98516237389E+01 -0.54135658535E+02  0.50807067235E+02  0.10989221106E+03  0.80419002446E+02 0.  0.
          1    1    1    2  501    0  0.19267113856E+02  0.75943368256E+02  0.25659957319E+03  0.26829453558E+03  0.00000000000E+00 0. -1.
         -2    1    1    2    0  503 -0.94154901173E+01 -0.21807709721E+02  0.34387175488E+02  0.41793605916E+02  0.00000000000E+00 0.  1.
<mgrwt>
<rscale>  2 0.99772393E+02</rscale>
<asrwt>0</asrwt>
<pdfrwt beam="1">  1       21 0.58598010E-01 0.99772393E+02</pdfrwt>
<pdfrwt beam="2">  1       21 0.60143492E-02 0.99772393E+02</pdfrwt>
<totfact> 0.54085207E+05</totfact>
</mgrwt>
</event>
<event>
 5    1  0.1696945E+000  0.1085477E+03  0.7546771E-02  0.1263283E+00
         21   -1    0    0  503  502  0.00000000000E+00  0.00000000000E+00  0.15172504609E+03  0.15172504609E+03  0.00000000000E+00 0.  1.
         21   -1    0    0  501  503 -0.00000000000E+00 -0.00000000000E+00 -0.15664746737E+03  0.15664746737E+03  0.00000000000E+00 0. -1.
         24    1    1    2    0    0  0.11293323322E+02  0.44182578718E+02  0.28398171032E+02  0.96712519801E+02  0.80419002446E+02 0.  1.
          1    1    1    2  501    0 -0.60976500021E+02 -0.46490631512E+01 -0.10149741349E+03  0.11849671847E+03  0.00000000000E+00 0. -1.
         -2    1    1    2    0  502  0.49683176700E+02 -0.39533515567E+02  0.68176821175E+02  0.93163275198E+02  0.00000000000E+00 0.  1.
<mgrwt>
<rscale>  2 0.10854767E+03</rscale>
<asrwt>0</asrwt>
<pdfrwt beam="1">  1       21 0.23342315E-01 0.10854767E+03</pdfrwt>
<pdfrwt beam="2">  1       21 0.24099610E-01 0.10854767E+03</pdfrwt>
<totfact> 0.28533837E+05</totfact>
</mgrwt>
</event>
<event>
 5    1  0.1696945E+000  0.8848223E+02  0.7546771E-02  0.1306569E+00
         21   -1    0    0  503  502  0.00000000000E+00  0.00000000000E+00  0.59543440007E+02  0.59543440007E+02  0.00000000000E+00 0.  1.
         21   -1    0    0  501  503 -0.00000000000E+00 -0.00000000000E+00 -0.15618632050E+03  0.15618632050E+03  0.00000000000E+00 0.  1.
         24    1    1    2    0    0 -0.64904256836E+02  0.21572649614E+02 -0.98394280073E+02  0.14431421299E+03  0.80419002446E+02 0.  1.
          1    1    1    2  501    0  0.32795198900E+02 -0.15219597822E+00  0.71346194188E+00  0.32803311760E+02  0.00000000000E+00 0. -1.
         -2    1    1    2    0  502  0.32109057936E+02 -0.21420453636E+02  0.10379376352E+01  0.38612235755E+02  0.00000000000E+00 0.  1.
<mgrwt>
<rscale>  2 0.88482232E+02</rscale>
<asrwt>0</asrwt>
<pdfrwt beam="1">  1       21 0.91605294E-02 0.88482232E+02</pdfrwt>
<pdfrwt beam="2">  1       21 0.24028664E-01 0.88482232E+02</pdfrwt>
<totfact> 0.15271460E+06</totfact>
</mgrwt>
</event>
<event>
 5    1  0.1696945E+000  0.8613848E+02  0.7546771E-02  0.1312482E+00
         21   -1    0    0  501  502  0.00000000000E+00  0.00000000000E+00  0.68352783958E+03  0.68352783958E+03  0.00000000000E+00 0. -1.
         21   -1    0    0  502  503 -0.00000000000E+00 -0.00000000000E+00 -0.17760892168E+02  0.17760892168E+02  0.00000000000E+00 0. -1.
         24    1    1    2    0    0  0.44769165833E+00  0.46147390433E+02  0.14217830885E+03  0.16974000570E+03  0.80419002446E+02 0. -1.
          1    1    1    2  501    0  0.27353739179E+02 -0.43822010653E+02  0.44813471296E+03  0.45110233498E+03  0.00000000000E+00 0. -1.
         -2    1    1    2    0  503 -0.27801430837E+02 -0.23253797802E+01  0.75453925595E+02  0.80446391065E+02  0.00000000000E+00 0.  1.
<mgrwt>
<rscale>  2 0.86138481E+02</rscale>
<asrwt>0</asrwt>
<pdfrwt beam="1">  1       21 0.10515811E+00 0.86138481E+02</pdfrwt>
<pdfrwt beam="2">  1       21 0.27324455E-02 0.86138481E+02</pdfrwt>
<totfact> 0.54665542E+05</totfact>
</mgrwt>
</event>
<event>
 5    1  0.1696945E+000  0.7224395E+02  0.7546771E-02  0.1352624E+00
         21   -1    0    0  503  502  0.00000000000E+00  0.00000000000E+00  0.32708538174E+03  0.32708538174E+03  0.00000000000E+00 0.  1.
         21   -1    0    0  501  503 -0.00000000000E+00 -0.00000000000E+00 -0.27469151487E+02  0.27469151487E+02  0.00000000000E+00 0. -1.
         24    1    1    2    0    0 -0.14541442333E+02  0.69134890862E+01  0.83003388283E+02  0.11668773842E+03  0.80419002446E+02 0.  1.
          1    1    1    2  501    0 -0.18587523777E+02  0.14021976788E+02  0.65604997805E+01  0.24189915886E+02  0.00000000000E+00 0. -1.
         -2    1    1    2    0  502  0.33128966110E+02 -0.20935465874E+02  0.21005234219E+03  0.21367687892E+03  0.00000000000E+00 0.  1.
<mgrwt>
<rscale>  2 0.72243948E+02</rscale>
<asrwt>0</asrwt>
<pdfrwt beam="1">  1       21 0.50320825E-01 0.72243948E+02</pdfrwt>
<pdfrwt beam="2">  1       21 0.42260236E-02 0.72243948E+02</pdfrwt>
<totfact> 0.13257347E+06</totfact>
</mgrwt>
</event>
<event>
 5    1  0.1696945E+000  0.8858164E+02  0.7546771E-02  0.1306323E+00
         21   -1    0    0  503  502  0.00000000000E+00  0.00000000000E+00  0.54901808542E+03  0.54901808542E+03  0.00000000000E+00 0.  1.
         21   -1    0    0  501  503 -0.00000000000E+00 -0.00000000000E+00 -0.14574024683E+02  0.14574024683E+02  0.00000000000E+00 0. -1.
         24    1    1    2    0    0 -0.32672283196E+02  0.20846087995E+02  0.23902310139E+03  0.25514955698E+03  0.80419002446E+02 0.  1.
          1    1    1    2  501    0 -0.26276153566E+02 -0.89276404721E+01  0.75203520638E+02  0.80160517258E+02  0.00000000000E+00 0. -1.
         -2    1    1    2    0  502  0.58948436762E+02 -0.11918447523E+02  0.22021743871E+03  0.22828203587E+03  0.00000000000E+00 0.  1.
<mgrwt>
<rscale>  2 0.88581642E+02</rscale>
<asrwt>0</asrwt>
<pdfrwt beam="1">  1       21 0.84464305E-01 0.88581642E+02</pdfrwt>
<pdfrwt beam="2">  1       21 0.22421581E-02 0.88581642E+02</pdfrwt>
<totfact> 0.12396716E+06</totfact>
</mgrwt>
</event>
<event>
 5    1  0.1696945E+000  0.6586993E+02  0.7546771E-02  0.1374729E+00
         21   -1    0    0  501  502  0.00000000000E+00  0.00000000000E+00  0.26476265653E+03  0.26476265653E+03  0.00000000000E+00 0. -1.
         21   -1    0    0  502  503 -0.00000000000E+00 -0.00000000000E+00 -0.17573597328E+02  0.17573597328E+02  0.00000000000E+00 0. -1.
         24    1    1    2    0    0  0.14979855756E+02 -0.16950462490E+02  0.12052488083E+03  0.14664643573E+03  0.80419002446E+02 0. -1.
          1    1    1    2  501    0  0.38907991913E+01  0.26684430941E+02  0.79978365559E+02  0.84402228232E+02  0.00000000000E+00 0. -1.
         -2    1    1    2    0  503 -0.18870654947E+02 -0.97339684513E+01  0.46685812815E+02  0.51287589904E+02  0.00000000000E+00 0.  1.
<mgrwt>
<rscale>  2 0.65869928E+02</rscale>
<asrwt>0</asrwt>
<pdfrwt beam="1">  1       21 0.40732713E-01 0.65869928E+02</pdfrwt>
<pdfrwt beam="2">  1       21 0.27036306E-02 0.65869928E+02</pdfrwt>
<totfact> 0.41534134E+06</totfact>
</mgrwt>
</event>
<event>
 5    1  0.1696945E+000  0.7918172E+02  0.7546771E-02  0.1331390E+00
         21   -1    0    0  501  502  0.00000000000E+00  0.00000000000E+00  0.35230177822E+02  0.35230177822E+02  0.00000000000E+00 0. -1.
         21   -1    0    0  502  503 -0.00000000000E+00 -0.00000000000E+00 -0.33851112436E+03  0.33851112436E+03  0.00000000000E+00 0.  1.
         24    1    1    2    0    0 -0.12641957109E+02 -0.19857708424E+02 -0.10184890765E+03  0.13188845138E+03  0.80419002446E+02 0. -1.
          1    1    1    2  501    0  0.11706570349E+02  0.46479786129E+02 -0.10495449854E+02  0.49066982540E+02  0.00000000000E+00 0. -1.
         -2    1    1    2    0  503  0.93538675933E+00 -0.26622077705E+02 -0.19093658903E+03  0.19278586826E+03  0.00000000000E+00 0.  1.
<mgrwt>
<rscale>  2 0.79181716E+02</rscale>
<asrwt>0</asrwt>
<pdfrwt beam="1">  1       21 0.54200276E-02 0.79181716E+02</pdfrwt>
<pdfrwt beam="2">  1       21 0.52078632E-01 0.79181716E+02</pdfrwt>
<totfact> 0.82108092E+05</totfact>
</mgrwt>
</event>
<event>
 5    1  0.1696945E+000  0.1039716E+03  0.7546771E-02  0.1272159E+00
         21   -1    0    0  503  502  0.00000000000E+00  0.00000000000E+00  0.31990856297E+03  0.31990856297E+03  0.00000000000E+00 0. -1.
         21   -1    0    0  501  503 -0.00000000000E+00 -0.00000000000E+00 -0.38528077449E+02  0.38528077449E+02  0.00000000000E+00 0. -1.
         24    1    1    2    0    0  0.66403420489E+02  0.55662665383E+02  0.98088303293E+02  0.15361079964E+03  0.80419002446E+02 0. -1.
          1    1    1    2  501    0 -0.28440936016E+02 -0.39000655478E+02  0.78787707851E+02  0.92398273131E+02  0.00000000000E+00 0. -1.
         -2    1    1    2    0  502 -0.37962484473E+02 -0.16662009905E+02  0.10450447437E+03  0.11242756764E+03  0.00000000000E+00 0.  1.
<mgrwt>
<rscale>  2 0.10397163E+03</rscale>
<asrwt>0</asrwt>
<pdfrwt beam="1">  1       21 0.49216700E-01 0.10397163E+03</pdfrwt>
<pdfrwt beam="2">  1       21 0.59273967E-02 0.10397163E+03</pdfrwt>
<totfact> 0.79566861E+05</totfact>
</mgrwt>
</event>
<event>
 5    1  0.1696945E+000  0.7440875E+02  0.7546771E-02  0.1345712E+00
         21   -1    0    0  501  502  0.00000000000E+00  0.00000000000E+00  0.25807277730E+02  0.25807277730E+02  0.00000000000E+00 0.  1.
         21   -1    0    0  502  503 -0.00000000000E+00 -0.00000000000E+00 -0.36320865261E+03  0.36320865261E+03  0.00000000000E+00 0. -1.
         24    1    1    2    0    0 -0.17703821906E+02  0.12610828860E+02 -0.58138179471E+02  0.10158603340E+03  0.80419002446E+02 0.  1.
          1    1    1    2  501    0  0.10219439885E+02 -0.37840614923E+02 -0.12706147517E+03  0.13296979943E+03  0.00000000000E+00 0. -1.
         -2    1    1    2    0  503  0.74843820207E+01  0.25229786062E+02 -0.15220172025E+03  0.15446009752E+03  0.00000000000E+00 0.  1.
<mgrwt>
<rscale>  2 0.74408747E+02</rscale>
<asrwt>0</asrwt>
<pdfrwt beam="1">  1       21 0.39703504E-02 0.74408747E+02</pdfrwt>
<pdfrwt beam="2">  1       21 0.55878254E-01 0.74408747E+02</pdfrwt>
<totfact> 0.11861949E+06</totfact>
</mgrwt>
</event>
<event>
 5    1  0.1696945E+000  0.1047052E+03  0.7546771E-02  0.1270702E+00
         21   -1    0    0  501  502  0.00000000000E+00  0.00000000000E+00  0.17883020161E+03  0.17883020161E+03  0.00000000000E+00 0.  1.
         21   -1    0    0  502  503 -0.00000000000E+00 -0.00000000000E+00 -0.77859760378E+02  0.77859760378E+02  0.00000000000E+00 0.  1.
         24    1    1    2    0    0  0.57624760965E+02  0.21509131690E+02  0.51347871958E+02  0.11352125674E+03  0.80419002446E+02 0.  1.
          1    1    1    2  501    0  0.58509287111E+01  0.27409604143E+02  0.56158637353E+02  0.62763941204E+02  0.00000000000E+00 0. -1.
         -2    1    1    2    0  503 -0.63475689676E+02 -0.48918735834E+02 -0.65360680793E+01  0.80404764046E+02  0.00000000000E+00 0.  1.
<mgrwt>
<rscale>  2 0.10470520E+03</rscale>
<asrwt>0</asrwt>
<pdfrwt beam="1">  1       21 0.27512339E-01 0.10470520E+03</pdfrwt>
<pdfrwt beam="2">  1       21 0.11978425E-01 0.10470520E+03</pdfrwt>
<totfact> 0.74448248E+05</totfact>
</mgrwt>
</event>
<event>
 5    1  0.1696945E+000  0.6754853E+02  0.7546771E-02  0.1368634E+00
         21   -1    0    0  503  502  0.00000000000E+00  0.00000000000E+00  0.31071023763E+01  0.31071023763E+01  0.00000000000E+00 0. -1.
         21   -1    0    0  501  503 -0.00000000000E+00 -0.00000000000E+00 -0.18365813211E+04  0.18365813211E+04  0.00000000000E+00 0. -1.
         24    1    1    2    0    0  0.46494985824E+01 -0.26565550847E+01 -0.12537104122E+04  0.12562984075E+04  0.80419002446E+02 0.  1.
          1    1    1    2  501    0 -0.20070966589E+02  0.21987903419E+02 -0.46693146950E+03  0.46787958794E+03  0.00000000000E+00 0. -1.
         -2    1    1    2    0  502  0.15421468006E+02 -0.19331348334E+02 -0.11283233706E+03  0.11551042806E+03  0.00000000000E+00 0.  1.
<mgrwt>
<rscale>  2 0.67548531E+02</rscale>
<asrwt>0</asrwt>
<pdfrwt beam="1">  1       21 0.47801668E-03 0.67548531E+02</pdfrwt>
<pdfrwt beam="2">  1       21 0.28255042E+00 0.67548531E+02</pdfrwt>
<totfact> 0.56959880E+05</totfact>
</mgrwt>
</event>
<event>
 5    1  0.1696945E+000  0.9839491E+02  0.7546771E-02  0.1283708E+00
         21   -1    0    0  501  502  0.00000000000E+00  0.00000000000E+00  0.13692829659E+03  0.13692829659E+03  0.00000000000E+00 0. -1.
         21   -1    0    0  502  503 -0.00000000000E+00 -0.00000000000E+00 -0.11778099787E+03  0.11778099787E+03  0.00000000000E+00 0. -1.
         24    1    1    2    0    0  0.35472219316E+02 -0.61646386512E+02 -0.58968775016E+02  0.12248709195E+03  0.80419002446E+02 0. -1.
          1    1    1    2  501    0 -0.85287062713E+01  0.61902188802E+02  0.83950273775E+02  0.10465308536E+03  0.00000000000E+00 0. -1.
         -2    1    1    2    0  503 -0.26943513045E+02 -0.25580228983E+00 -0.58342000371E+01  0.27569117144E+02  0.00000000000E+00 0.  1.
<mgrwt>
<rscale>  2 0.98394915E+02</rscale>
<asrwt>0</asrwt>
<pdfrwt beam="1">  1       21 0.21065892E-01 0.98394915E+02</pdfrwt>
<pdfrwt beam="2">  1       21 0.18120154E-01 0.98394915E+02</pdfrwt>
<totfact> 0.58482927E+05</totfact>
</mgrwt>
</event>
<event>
 5    1  0.1696945E+000  0.9348889E+02  0.7546771E-02  0.1294616E+00
         21   -1    0    0  503  502  0.00000000000E+00  0.00000000000E+00  0.13917573661E+04  0.13917573661E+04  0.00000000000E+00 0.  1.
         21   -1    0    0  501  503 -0.00000000000E+00 -0.00000000000E+00 -0.67936014135E+01  0.67936014135E+01  0.00000000000E+00 0.  1.
         24    1    1    2    0    0 -0.30555162383E+01  0.49630809777E+02  0.87977902992E+03  0.88484513386E+03  0.80419002446E+02 0.  1.
          1    1    1    2  501    0 -0.12792909481E+02  0.18491750393E+02  0.96987922100E+02  0.99560335470E+02  0.00000000000E+00 0. -1.
         -2    1    1    2    0  502  0.15848425720E+02 -0.68122560171E+02  0.40819681266E+03  0.41414549818E+03  0.00000000000E+00 0.  1.
<mgrwt>
<rscale>  2 0.93488891E+02</rscale>
<asrwt>0</asrwt>
<pdfrwt beam="1">  1       21 0.21411629E+00 0.93488891E+02</pdfrwt>
<pdfrwt beam="2">  1       21 0.10451706E-02 0.93488891E+02</pdfrwt>
<totfact> 0.40205786E+05</totfact>
</mgrwt>
</event>
<event>
 5    1  0.1696945E+000  0.1001253E+03  0.7546771E-02  0.1280033E+00
         21   -1    0    0  503  502  0.00000000000E+00  0.00000000000E+00  0.71185193398E+03  0.71185193398E+03  0.00000000000E+00 0.  1.
         21   -1    0    0  501  503 -0.00000000000E+00 -0.00000000000E+00 -0.26553757714E+02  0.26553757714E+02  0.00000000000E+00 0. -1.
         24    1    1    2    0    0 -0.49177132485E+02  0.15719923297E+02  0.17270436262E+03  0.19738165865E+03  0.80419002446E+02 0. -1.
          1    1    1    2  501    0  0.96017852096E+00 -0.47130160371E+02  0.31948833698E+02  0.56946483070E+02  0.00000000000E+00 0. -1.
         -2    1    1    2    0  502  0.48216953965E+02  0.31410237074E+02  0.48064497994E+03  0.48407754997E+03  0.00000000000E+00 0.  1.
<mgrwt>
<rscale>  2 0.10012533E+03</rscale>
<asrwt>0</asrwt>
<pdfrwt beam="1">  1       21 0.10951567E+00 0.10012533E+03</pdfrwt>
<pdfrwt beam="2">  1       21 0.40851940E-02 0.10012533E+03</pdfrwt>
<totfact> 0.25672050E+05</totfact>
</mgrwt>
</event>
<event>
 5    1  0.1696945E+000  0.7821563E+02  0.7546771E-02  0.1334193E+00
         21   -1    0    0  501  502  0.00000000000E+00  0.00000000000E+00  0.67057020692E+01  0.67057020692E+01  0.00000000000E+00 0.  1.
         21   -1    0    0  502  503 -0.00000000000E+00 -0.00000000000E+00 -0.11535358467E+04  0.11535358467E+04  0.00000000000E+00 0. -1.
         24    1    1    2    0    0 -0.35337688304E+02 -0.24729214714E+02 -0.40921723954E+03  0.41926871022E+03  0.80419002446E+02 0.  1.
          1    1    1    2  501    0  0.29191162550E+02 -0.92684919255E+01 -0.20900553871E+03  0.21123764846E+03  0.00000000000E+00 0. -1.
         -2    1    1    2    0  503  0.61465257546E+01  0.33997706640E+02 -0.52860736637E+03  0.52973519009E+03  0.00000000000E+00 0.  1.
<mgrwt>
<rscale>  2 0.78215634E+02</rscale>
<asrwt>0</asrwt>
<pdfrwt beam="1">  1       21 0.10316459E-02 0.78215634E+02</pdfrwt>
<pdfrwt beam="2">  1       21 0.17746714E+00 0.78215634E+02</pdfrwt>
<totfact> 0.69916213E+05</totfact>
</mgrwt>
</event>
<event>
 5    1  0.1696945E+000  0.9078031E+02  0.7546771E-02  0.1300973E+00
         21   -1    0    0  501  502  0.00000000000E+00  0.00000000000E+00  0.81154991925E+02  0.81154991925E+02  0.00000000000E+00 0. -1.
         21   -1    0    0  502  503 -0.00000000000E+00 -0.00000000000E+00 -0.15974651770E+03  0.15974651770E+03  0.00000000000E+00 0.  1.
         24    1    1    2    0    0 -0.24997157222E+02  0.51622148915E+02 -0.92844483273E+02  0.13556186100E+03  0.80419002446E+02 0.  1.
          1    1    1    2  501    0  0.20471079286E+02  0.87350547387E+01  0.34895993581E+02  0.41389571591E+02  0.00000000000E+00 0. -1.
         -2    1    1    2    0  503  0.45260779361E+01 -0.60357203654E+02 -0.20643036080E+02  0.63950077037E+02  0.00000000000E+00 0.  1.
<mgrwt>
<rscale>  2 0.90780308E+02</rscale>
<asrwt>0</asrwt>
<pdfrwt beam="1">  1       21 0.12485383E-01 0.90780308E+02</pdfrwt>
<pdfrwt beam="2">  1       21 0.24576387E-01 0.90780308E+02</pdfrwt>
<totfact> 0.85476605E+05</totfact>
</mgrwt>
</event>
<event>
 5    1  0.1696945E+000  0.7465933E+02  0.7546771E-02  0.1344929E+00
         21   -1    0    0  503  502  0.00000000000E+00  0.00000000000E+00  0.48659801095E+01  0.48659801095E+01  0.00000000000E+00 0.  1.
         21   -1    0    0  501  503 -0.00000000000E+00 -0.00000000000E+00 -0.16078261496E+04  0.16078261496E+04  0.00000000000E+00 0.  1.
         24    1    1    2    0    0 -0.17797446277E+02  0.36946378041E+02 -0.12520163323E+04  0.12552664642E+04  0.80419002446E+02 0.  1.
          1    1    1    2  501    0  0.30742018526E+02 -0.16615667161E+02 -0.28648173837E+03  0.28860516024E+03  0.00000000000E+00 0. -1.
         -2    1    1    2    0  502 -0.12944572249E+02 -0.20330710880E+02 -0.64462098822E+02  0.68820505230E+02  0.00000000000E+00 0.  1.
<mgrwt>
<rscale>  2 0.74659330E+02</rscale>
<asrwt>0</asrwt>
<pdfrwt beam="1">  1       21 0.74861210E-03 0.74659330E+02</pdfrwt>
<pdfrwt beam="2">  1       21 0.24735794E+00 0.74659330E+02</pdfrwt>
<totfact> 0.44186051E+05</totfact>
</mgrwt>
</event>
<event>
 5    1  0.1696945E+000  0.1086199E+03  0.7546771E-02  0.1263147E+00
         21   -1    0    0  501  502  0.00000000000E+00  0.00000000000E+00  0.33684615041E+02  0.33684615041E+02  0.00000000000E+00 0. -1.
         21   -1    0    0  502  503 -0.00000000000E+00 -0.00000000000E+00 -0.36706602216E+03  0.36706602216E+03  0.00000000000E+00 0.  1.
         24    1    1    2    0    0  0.17821316145E+02  0.24653838617E+02 -0.14197227393E+03  0.16597817202E+03  0.80419002446E+02 0.  0.
          1    1    1    2  501    0 -0.64842208134E+02 -0.46119156001E+02 -0.84757614174E+02  0.11625550166E+03  0.00000000000E+00 0. -1.
         -2    1    1    2    0  503  0.47020891989E+02  0.21465317384E+02 -0.10665151902E+03  0.11851696352E+03  0.00000000000E+00 0.  1.
<mgrwt>
<rscale>  2 0.10861988E+03</rscale>
<asrwt>0</asrwt>
<pdfrwt beam="1">  1       21 0.51822487E-02 0.10861988E+03</pdfrwt>
<pdfrwt beam="2">  1       21 0.56471694E-01 0.10861988E+03</pdfrwt>
<totfact> 0.75050999E+05</totfact>
</mgrwt>
</event>
<event>
 5    1  0.1696945E+000  0.7126792E+02  0.7546771E-02  0.1355834E+00
         21   -1    0    0  503  502  0.00000000000E+00  0.00000000000E+00  0.63899648447E+02  0.63899648447E+02  0.00000000000E+00 0. -1.
         21   -1    0    0  501  503 -0.00000000000E+00 -0.00000000000E+00 -0.10494115215E+03  0.10494115215E+03  0.00000000000E+00 0. -1.
         24    1    1    2    0    0  0.40638327713E+01  0.29406662495E+02 -0.13470225180E+02  0.86775166129E+02  0.80419002446E+02 0. -1.
          1    1    1    2  501    0 -0.26336185921E+02 -0.16136830245E+02 -0.42201397663E+02  0.52296748885E+02  0.00000000000E+00 0. -1.
         -2    1    1    2    0  502  0.22272353149E+02 -0.13269832250E+02  0.14630119140E+02  0.29768885582E+02  0.00000000000E+00 0.  1.
<mgrwt>
<rscale>  2 0.71267916E+02</rscale>
<asrwt>0</asrwt>
<pdfrwt beam="1">  1       21 0.98307152E-02 0.71267916E+02</pdfrwt>
<pdfrwt beam="2">  1       21 0.16144792E-01 0.71267916E+02</pdfrwt>
<totfact> 0.27635366E+06</totfact>
</mgrwt>
</event>
<event>
 5    1  0.1696945E+000  0.1112736E+03  0.7546771E-02  0.1258229E+00
         21   -1    0    0  503  502  0.00000000000E+00  0.00000000000E+00  0.88524720288E+03  0.88524720288E+03  0.00000000000E+00 0. -1.
         21   -1    0    0  501  503 -0.00000000000E+00 -0.00000000000E+00 -0.18574249919E+02  0.18574249919E+02  0.00000000000E+00 0. -1.
         24    1    1    2    0    0 -0.35250965101E+02  0.86666299382E+02  0.61120439686E+03  0.62353164208E+03  0.80419002446E+02 0. -1.
          1    1    1    2  501    0  0.13506338590E+02 -0.71250806759E+02  0.10581198229E+03  0.12827811287E+03  0.00000000000E+00 0. -1.
         -2    1    1    2    0  502  0.21744626511E+02 -0.15415492623E+02  0.14965657382E+03  0.15201169785E+03  0.00000000000E+00 0.  1.
<mgrwt>
<rscale>  2 0.11127360E+03</rscale>
<asrwt>0</asrwt>
<pdfrwt beam="1">  1       21 0.13619184E+00 0.11127360E+03</pdfrwt>
<pdfrwt beam="2">  1       21 0.28575776E-02 0.11127360E+03</pdfrwt>
<totfact> 0.27067828E+05</totfact>
</mgrwt>
</event>
<event>
 5    1  0.1696945E+000  0.9015302E+02  0.7546771E-02  0.1302482E+00
         21   -1    0    0  501  502  0.00000000000E+00  0.00000000000E+00  0.22821277718E+02  0.22821277718E+02  0.00000000000E+00 0.  1.
         21   -1    0    0  502  503 -0.00000000000E+00 -0.00000000000E+00 -0.38568525570E+03  0.38568525570E+03  0.00000000000E+00 0. -1.
         24    1    1    2    0    0  0.49653824271E+02  0.60690095568E+01 -0.20823888370E+03  0.22876403515E+03  0.80419002446E+02 0.  1.
          1    1    1    2  501    0 -0.41595102057E+02 -0.35747263725E+02 -0.65327106242E+02  0.85297421936E+02  0.00000000000E+00 0. -1.
         -2    1    1    2    0  503 -0.80587222140E+01  0.29678254169E+02 -0.89297988043E+02  0.94445076328E+02  0.00000000000E+00 0.  1.
<mgrwt>
<rscale>  2 0.90153021E+02</rscale>
<asrwt>0</asrwt>
<pdfrwt beam="1">  1       21 0.35109661E-02 0.90153021E+02</pdfrwt>
<pdfrwt beam="2">  1       21 0.59336188E-01 0.90153021E+02</pdfrwt>
<totfact> 0.12862407E+06</totfact>
</mgrwt>
</event>
<event>
 5    1  0.1696945E+000  0.7606273E+02  0.7546771E-02  0.1340611E+00
         21   -1    0    0  501  502  0.00000000000E+00  0.00000000000E+00  0.11400721507E+03  0.11400721507E+03  0.00000000000E+00 0.  1.
         21   -1    0    0  502  503 -0.00000000000E+00 -0.00000000000E+00 -0.63012290395E+02  0.63012290395E+02  0.00000000000E+00 0.  1.
         24    1    1    2    0    0 -0.11552711069E+02  0.53575030444E+02  0.16132962346E+02  0.98647034667E+02  0.80419002446E+02 0.  1.
          1    1    1    2  501    0  0.72626922331E+01 -0.33926212799E+02  0.44206713129E+02  0.56195801436E+02  0.00000000000E+00 0. -1.
         -2    1    1    2    0  503  0.42900188355E+01 -0.19648817646E+02 -0.93447507995E+01  0.22176669362E+02  0.00000000000E+00 0.  1.
<mgrwt>
<rscale>  2 0.76062729E+02</rscale>
<asrwt>0</asrwt>
<pdfrwt beam="1">  1       21 0.17539572E-01 0.76062729E+02</pdfrwt>
<pdfrwt beam="2">  1       21 0.96941985E-02 0.76062729E+02</pdfrwt>
<totfact> 0.24494198E+06</totfact>
</mgrwt>
</event>
<event>
 5    1  0.1696945E+000  0.7845497E+02  0.7546771E-02  0.1333494E+00
         21   -1    0    0  503  502  0.00000000000E+00  0.00000000000E+00  0.11474085444E+02  0.11474085444E+02  0.00000000000E+00 0. -1.
         21   -1    0    0  501  503 -0.00000000000E+00 -0.00000000000E+00 -0.18216494332E+04  0.18216494332E+04  0.00000000000E+00 0. -1.
         24    1    1    2    0    0 -0.16771372803E+01  0.34465593117E+02 -0.29045398591E+03  0.30335033177E+03  0.80419002446E+02 0. -1.
          1    1    1    2  501    0 -0.28652230625E+02 -0.23808937115E+02 -0.14705744985E+04  0.14710462846E+04  0.00000000000E+00 0. -1.
         -2    1    1    2    0  502  0.30329367905E+02 -0.10656656002E+02 -0.49146863391E+02  0.58726902318E+02  0.00000000000E+00 0.  1.
<mgrwt>
<rscale>  2 0.78454972E+02</rscale>
<asrwt>0</asrwt>
<pdfrwt beam="1">  1       21 0.17652436E-02 0.78454972E+02</pdfrwt>
<pdfrwt beam="2">  1       21 0.28025381E+00 0.78454972E+02</pdfrwt>
<totfact> 0.75928939E+04</totfact>
</mgrwt>
</event>
<event>
 5    1  0.1696945E+000  0.1199455E+03  0.7546771E-02  0.1243187E+00
         21   -1    0    0  503  502  0.00000000000E+00  0.00000000000E+00  0.13940961258E+03  0.13940961258E+03  0.00000000000E+00 0. -1.
         21   -1    0    0  501  503 -0.00000000000E+00 -0.00000000000E+00 -0.11318078905E+03  0.11318078905E+03  0.00000000000E+00 0.  1.
         24    1    1    2    0    0  0.73408189536E+02 -0.59981054608E+02 -0.23494747504E+02  0.12651366850E+03  0.80419002446E+02 0.  1.
          1    1    1    2  501    0 -0.33015851534E+02  0.66894454687E+02  0.27872889750E+02  0.79635497759E+02  0.00000000000E+00 0. -1.
         -2    1    1    2    0  502 -0.40392338003E+02 -0.69134000789E+01  0.21850681291E+02  0.46441235372E+02  0.00000000000E+00 0.  1.
<mgrwt>
<rscale>  2 0.11994550E+03</rscale>
<asrwt>0</asrwt>
<pdfrwt beam="1">  1       21 0.21447633E-01 0.11994550E+03</pdfrwt>
<pdfrwt beam="2">  1       21 0.17412429E-01 0.11994550E+03</pdfrwt>
<totfact> 0.60818469E+05</totfact>
</mgrwt>
</event>
<event>
 5    1  0.1696945E+000  0.2482013E+03  0.7546771E-02  0.1114447E+00
         21   -1    0    0  501  502  0.00000000000E+00  0.00000000000E+00  0.46208321608E+02  0.46208321608E+02  0.00000000000E+00 0.  1.
         21   -1    0    0  502  503 -0.00000000000E+00 -0.00000000000E+00 -0.14299496605E+04  0.14299496605E+04  0.00000000000E+00 0. -1.
         24    1    1    2    0    0  0.20388309687E+03 -0.72856521438E+02 -0.66510113554E+03  0.70406187679E+03  0.80419002446E+02 0. -1.
          1    1    1    2  501    0  0.25680549031E+02  0.70406814705E+01 -0.18703600177E+02  0.32540535547E+02  0.00000000000E+00 0. -1.
         -2    1    1    2    0  503 -0.22956364590E+03  0.65815839968E+02 -0.69993660320E+03  0.73955556979E+03  0.00000000000E+00 0.  1.
<mgrwt>
<rscale>  2 0.24820130E+03</rscale>
<asrwt>0</asrwt>
<pdfrwt beam="1">  1       21 0.71089737E-02 0.24820130E+03</pdfrwt>
<pdfrwt beam="2">  1       21 0.21999222E+00 0.24820130E+03</pdfrwt>
<totfact> 0.14205383E+04</totfact>
</mgrwt>
</event>
<event>
 5    1  0.1696945E+000  0.8559860E+02  0.7546771E-02  0.1313875E+00
         21   -1    0    0  503  502  0.00000000000E+00  0.00000000000E+00  0.36109894793E+02  0.36109894793E+02  0.00000000000E+00 0.  1.
         21   -1    0    0  501  503 -0.00000000000E+00 -0.00000000000E+00 -0.20904791960E+03  0.20904791960E+03  0.00000000000E+00 0. -1.
         24    1    1    2    0    0  0.59491676062E+02 -0.15267136857E+02 -0.12009381715E+03  0.15704166918E+03  0.80419002446E+02 0.  0.
          1    1    1    2  501    0 -0.49247976957E+02 -0.27025950074E+01 -0.41888611801E+02  0.64709528299E+02  0.00000000000E+00 0. -1.
         -2    1    1    2    0  502 -0.10243699105E+02  0.17969731865E+02 -0.10955595861E+02  0.23406616913E+02  0.00000000000E+00 0.  1.
<mgrwt>
<rscale>  2 0.85598599E+02</rscale>
<asrwt>0</asrwt>
<pdfrwt beam="1">  1       21 0.55553685E-02 0.85598599E+02</pdfrwt>
<pdfrwt beam="2">  1       21 0.32161218E-01 0.85598599E+02</pdfrwt>
<totfact> 0.20516816E+06</totfact>
</mgrwt>
</event>
<event>
 5    1  0.1696945E+000  0.6780320E+02  0.7546771E-02  0.1367727E+00
         21   -1    0    0  501  502  0.00000000000E+00  0.00000000000E+00  0.10930454559E+03  0.10930454559E+03  0.00000000000E+00 0. -1.
         21   -1    0    0  502  503 -0.00000000000E+00 -0.00000000000E+00 -0.15486700044E+03  0.15486700044E+03  0.00000000000E+00 0. -1.
         24    1    1    2    0    0  0.21124475062E+00  0.44176590540E-01 -0.11773252351E+03  0.14257703049E+03  0.80419002446E+02 0. -1.
          1    1    1    2  501    0  0.23602026366E+02  0.14097061171E+02  0.86249999269E+02  0.90525384043E+02  0.00000000000E+00 0. -1.
         -2    1    1    2    0  503 -0.23813271116E+02 -0.14141237761E+02 -0.14079930608E+02  0.31069131507E+02  0.00000000000E+00 0.  1.
<mgrwt>
<rscale>  2 0.67803200E+02</rscale>
<asrwt>0</asrwt>
<pdfrwt beam="1">  1       21 0.16816084E-01 0.67803200E+02</pdfrwt>
<pdfrwt beam="2">  1       21 0.23825692E-01 0.67803200E+02</pdfrwt>
<totfact> 0.53196418E+05</totfact>
</mgrwt>
</event>
<event>
 5    1  0.1696945E+000  0.7471898E+02  0.7546771E-02  0.1344743E+00
         21   -1    0    0  501  502  0.00000000000E+00  0.00000000000E+00  0.54701639947E+02  0.54701639947E+02  0.00000000000E+00 0.  1.
         21   -1    0    0  502  503 -0.00000000000E+00 -0.00000000000E+00 -0.12829637029E+03  0.12829637029E+03  0.00000000000E+00 0. -1.
         24    1    1    2    0    0  0.91851956054E+01  0.16559255746E+02 -0.61945510796E+02  0.10326199219E+03  0.80419002446E+02 0. -1.
          1    1    1    2  501    0  0.47939946450E+01 -0.39589521610E+02  0.14266418118E+02  0.42353787220E+02  0.00000000000E+00 0. -1.
         -2    1    1    2    0  503 -0.13979190250E+02  0.23030265864E+02 -0.25915637664E+02  0.37382230824E+02  0.00000000000E+00 0.  1.
<mgrwt>
<rscale>  2 0.74718979E+02</rscale>
<asrwt>0</asrwt>
<pdfrwt beam="1">  1       21 0.84156370E-02 0.74718979E+02</pdfrwt>
<pdfrwt beam="2">  1       21 0.19737903E-01 0.74718979E+02</pdfrwt>
<totfact> 0.25181529E+06</totfact>
</mgrwt>
</event>
<event>
 5    1  0.1696945E+000  0.7584304E+02  0.7546771E-02  0.1341280E+00
         21   -1    0    0  501  502  0.00000000000E+00  0.00000000000E+00  0.62076864297E+02  0.62076864297E+02  0.00000000000E+00 0. -1.
         21   -1    0    0  502  503 -0.00000000000E+00 -0.00000000000E+00 -0.11027692588E+03  0.11027692588E+03  0.00000000000E+00 0.  1.
         24    1    1    2    0    0 -0.25414333952E+02  0.27962851031E+01 -0.58614766662E+02  0.10274538630E+03  0.80419002446E+02 0.  1.
          1    1    1    2  501    0  0.38598035511E+02 -0.21680011079E+02 -0.15022085907E+00  0.44270235961E+02  0.00000000000E+00 0. -1.
         -2    1    1    2    0  503 -0.13183701559E+02  0.18883725976E+02  0.10564925935E+02  0.25338167920E+02  0.00000000000E+00 0.  1.
<mgrwt>
<rscale>  2 0.75843036E+02</rscale>
<asrwt>0</asrwt>
<pdfrwt beam="1">  1       21 0.95502869E-02 0.75843036E+02</pdfrwt>
<pdfrwt beam="2">  1       21 0.16965681E-01 0.75843036E+02</pdfrwt>
<totfact> 0.26676785E+06</totfact>
</mgrwt>
</event>
<event>
 5    1  0.1696945E+000  0.1080126E+03  0.7546771E-02  0.1264295E+00
         21   -1    0    0  501  502  0.00000000000E+00  0.00000000000E+00  0.49736778591E+02  0.49736778591E+02  0.00000000000E+00 0. -1.
         21   -1    0    0  502  503 -0.00000000000E+00 -0.00000000000E+00 -0.30977802616E+03  0.30977802616E+03  0.00000000000E+00 0.  1.
         24    1    1    2    0    0 -0.24027062713E+02  0.60327808449E+02 -0.97816111395E+02  0.14230935253E+03  0.80419002446E+02 0. -1.
          1    1    1    2  501    0  0.22953131665E+02  0.21129402275E+02  0.46166278496E+01  0.31537456245E+02  0.00000000000E+00 0. -1.
         -2    1    1    2    0  503  0.10739310478E+01 -0.81457210724E+02 -0.16684176402E+03  0.18566799597E+03  0.00000000000E+00 0.  1.
<mgrwt>
<rscale>  2 0.10801263E+03</rscale>
<asrwt>0</asrwt>
<pdfrwt beam="1">  1       21 0.76518119E-02 0.10801263E+03</pdfrwt>
<pdfrwt beam="2">  1       21 0.47658159E-01 0.10801263E+03</pdfrwt>
<totfact> 0.55074451E+05</totfact>
</mgrwt>
</event>
<event>
 5    1  0.1696945E+000  0.9527665E+02  0.7546771E-02  0.1290554E+00
         21   -1    0    0  501  502  0.00000000000E+00  0.00000000000E+00  0.54649371729E+03  0.54649371729E+03  0.00000000000E+00 0. -1.
         21   -1    0    0  502  503 -0.00000000000E+00 -0.00000000000E+00 -0.13859544962E+03  0.13859544962E+03  0.00000000000E+00 0. -1.
         24    1    1    2    0    0  0.75603066329E+02 -0.16137755121E+02 -0.98366493332E+02  0.14872603586E+03  0.80419002446E+02 0. -1.
          1    1    1    2  501    0 -0.57104691419E+02  0.47987946809E+01  0.51096031462E+03  0.51416380399E+03  0.00000000000E+00 0. -1.
         -2    1    1    2    0  503 -0.18498374910E+02  0.11338960440E+02 -0.46955536187E+01  0.22199327061E+02  0.00000000000E+00 0.  1.
<mgrwt>
<rscale>  2 0.95276653E+02</rscale>
<asrwt>0</asrwt>
<pdfrwt beam="1">  1       21 0.84075956E-01 0.95276653E+02</pdfrwt>
<pdfrwt beam="2">  1       21 0.21322377E-01 0.95276653E+02</pdfrwt>
<totfact> 0.26890334E+04</totfact>
</mgrwt>
</event>
<event>
 5    1  0.1696945E+000  0.6587847E+02  0.7546771E-02  0.1374697E+00
         21   -1    0    0  503  502  0.00000000000E+00  0.00000000000E+00  0.34087524136E+02  0.34087524136E+02  0.00000000000E+00 0.  1.
         21   -1    0    0  501  503 -0.00000000000E+00 -0.00000000000E+00 -0.14030145210E+03  0.14030145210E+03  0.00000000000E+00 0. -1.
         24    1    1    2    0    0 -0.13968592118E+02  0.51477956995E+01 -0.90066792843E+02  0.12165880360E+03  0.80419002446E+02 0. -1.
          1    1    1    2  501    0 -0.33879757685E+01 -0.24062771125E+02 -0.10348747108E+02  0.26411965105E+02  0.00000000000E+00 0. -1.
         -2    1    1    2    0  502  0.17356567887E+02  0.18914975425E+02 -0.57983880153E+01  0.26318207532E+02  0.00000000000E+00 0.  1.
<mgrwt>
<rscale>  2 0.65878469E+02</rscale>
<asrwt>0</asrwt>
<pdfrwt beam="1">  1       21 0.52442346E-02 0.65878469E+02</pdfrwt>
<pdfrwt beam="2">  1       21 0.21584838E-01 0.65878469E+02</pdfrwt>
<totfact> 0.46919946E+06</totfact>
</mgrwt>
</event>
<event>
 5    1  0.1696945E+000  0.1038552E+03  0.7546771E-02  0.1272392E+00
         21   -1    0    0  503  502  0.00000000000E+00  0.00000000000E+00  0.42036036077E+01  0.42036036077E+01  0.00000000000E+00 0.  1.
         21   -1    0    0  501  503 -0.00000000000E+00 -0.00000000000E+00 -0.31058179393E+04  0.31058179393E+04  0.00000000000E+00 0. -1.
         24    1    1    2    0    0 -0.86177096494E+02 -0.10669524496E+02 -0.14434680648E+04  0.14483119832E+04  0.80419002446E+02 0. -1.
          1    1    1    2  501    0  0.31651025295E+02 -0.62577693827E+01 -0.11347507576E+04  0.11352093327E+04  0.00000000000E+00 0. -1.
         -2    1    1    2    0  502  0.54526071199E+02  0.16927293879E+02 -0.52339551332E+03  0.52650022705E+03  0.00000000000E+00 0.  1.
<mgrwt>
<rscale>  2 0.10385516E+03</rscale>
<asrwt>0</asrwt>
<pdfrwt beam="1">  1       21 0.64670444E-03 0.10385516E+03</pdfrwt>
<pdfrwt beam="2">  1       21 0.47782096E+00 0.10385516E+03</pdfrwt>
<totfact> 0.23436920E+04</totfact>
</mgrwt>
</event>
<event>
 5    1  0.1696945E+000  0.8249931E+02  0.7546771E-02  0.1322105E+00
         21   -1    0    0  501  502  0.00000000000E+00  0.00000000000E+00  0.76912565756E+02  0.76912565756E+02  0.00000000000E+00 0. -1.
         21   -1    0    0  502  503 -0.00000000000E+00 -0.00000000000E+00 -0.19473036905E+03  0.19473036905E+03  0.00000000000E+00 0. -1.
         24    1    1    2    0    0  0.44246239196E+01 -0.34651531125E+01 -0.38430741464E+02  0.89306900219E+02  0.80419002446E+02 0.  0.
          1    1    1    2  501    0  0.39884374698E+02 -0.59538466342E+00  0.39047242646E+02  0.55819396146E+02  0.00000000000E+00 0. -1.
         -2    1    1    2    0  503 -0.44308998617E+02  0.40605377759E+01 -0.11843430448E+03  0.12651663844E+03  0.00000000000E+00 0.  1.
<mgrwt>
<rscale>  2 0.82499311E+02</rscale>
<asrwt>0</asrwt>
<pdfrwt beam="1">  1       21 0.11832703E-01 0.82499311E+02</pdfrwt>
<pdfrwt beam="2">  1       21 0.29958518E-01 0.82499311E+02</pdfrwt>
<totfact> 0.64567890E+05</totfact>
</mgrwt>
</event>
<event>
 5    1  0.1696945E+000  0.9870166E+02  0.7546771E-02  0.1283050E+00
         21   -1    0    0  501  502  0.00000000000E+00  0.00000000000E+00  0.16370657260E+02  0.16370657260E+02  0.00000000000E+00 0.  1.
         21   -1    0    0  502  503 -0.00000000000E+00 -0.00000000000E+00 -0.11526956574E+04  0.11526956574E+04  0.00000000000E+00 0. -1.
         24    1    1    2    0    0 -0.18816267370E+02  0.70147173412E+02 -0.10003256512E+04  0.10061775699E+04  0.80419002446E+02 0. -1.
          1    1    1    2  501    0  0.32942515237E+02 -0.23933471412E+02 -0.52853225463E+02  0.66719440989E+02  0.00000000000E+00 0. -1.
         -2    1    1    2    0  503 -0.14126247867E+02 -0.46213702000E+02 -0.83146123523E+02  0.96169303774E+02  0.00000000000E+00 0.  1.
<mgrwt>
<rscale>  2 0.98701657E+02</rscale>
<asrwt>0</asrwt>
<pdfrwt beam="1">  1       21 0.25185622E-02 0.98701657E+02</pdfrwt>
<pdfrwt beam="2">  1       21 0.17733783E+00 0.98701657E+02</pdfrwt>
<totfact> 0.16822919E+05</totfact>
</mgrwt>
</event>
<event>
 5    1  0.1696945E+000  0.8767649E+02  0.7546771E-02  0.1308578E+00
         21   -1    0    0  501  502  0.00000000000E+00  0.00000000000E+00  0.26249436095E+02  0.26249436095E+02  0.00000000000E+00 0.  1.
         21   -1    0    0  502  503 -0.00000000000E+00 -0.00000000000E+00 -0.46589873006E+03  0.46589873006E+03  0.00000000000E+00 0.  1.
         24    1    1    2    0    0 -0.51835444852E+01 -0.37499596484E+02 -0.92980838465E+02  0.12863024973E+03  0.80419002446E+02 0.  1.
          1    1    1    2  501    0 -0.22422210358E+02 -0.15122832825E+02 -0.26439195798E+02  0.37821775004E+02  0.00000000000E+00 0. -1.
         -2    1    1    2    0  503  0.27605754843E+02  0.52622429309E+02 -0.32022925971E+03  0.32569614142E+03  0.00000000000E+00 0.  1.
<mgrwt>
<rscale>  2 0.87676488E+02</rscale>
<asrwt>0</asrwt>
<pdfrwt beam="1">  1       21 0.40383748E-02 0.87676488E+02</pdfrwt>
<pdfrwt beam="2">  1       21 0.71676728E-01 0.87676488E+02</pdfrwt>
<totfact> 0.68328264E+05</totfact>
</mgrwt>
</event>
<event>
 5    1  0.1696945E+000  0.7492595E+02  0.7546771E-02  0.1344100E+00
         21   -1    0    0  501  502  0.00000000000E+00  0.00000000000E+00  0.18186721137E+03  0.18186721137E+03  0.00000000000E+00 0.  1.
         21   -1    0    0  502  503 -0.00000000000E+00 -0.00000000000E+00 -0.41413533356E+02  0.41413533356E+02  0.00000000000E+00 0.  1.
         24    1    1    2    0    0 -0.60952288527E+01 -0.32591849261E+02  0.23089023479E+02  0.89998330054E+02  0.80419002446E+02 0.  1.
          1    1    1    2  501    0  0.21973756908E+02 -0.45786829665E+01  0.48267819802E+02  0.53231501564E+02  0.00000000000E+00 0. -1.
         -2    1    1    2    0  503 -0.15878528056E+02  0.37170532227E+02  0.69096834737E+02  0.80050913111E+02  0.00000000000E+00 0.  1.
<mgrwt>
<rscale>  2 0.74925951E+02</rscale>
<asrwt>0</asrwt>
<pdfrwt beam="1">  1       21 0.27979571E-01 0.74925951E+02</pdfrwt>
<pdfrwt beam="2">  1       21 0.63713129E-02 0.74925951E+02</pdfrwt>
<totfact> 0.21141499E+06</totfact>
</mgrwt>
</event>
<event>
 5    1  0.1696945E+000  0.7622769E+02  0.7546771E-02  0.1340111E+00
         21   -1    0    0  501  502  0.00000000000E+00  0.00000000000E+00  0.33943841485E+03  0.33943841485E+03  0.00000000000E+00 0.  1.
         21   -1    0    0  502  503 -0.00000000000E+00 -0.00000000000E+00 -0.91329149320E+02  0.91329149320E+02  0.00000000000E+00 0.  1.
         24    1    1    2    0    0  0.14461653388E+02  0.16063053304E+02  0.16042876302E+03  0.18075332655E+03  0.80419002446E+02 0.  1.
          1    1    1    2  501    0  0.23205028235E+02  0.79307519640E+01  0.16170902080E+03  0.16355787223E+03  0.00000000000E+00 0. -1.
         -2    1    1    2    0  503 -0.37666681622E+02 -0.23993805268E+02 -0.74028518290E+02  0.86456365387E+02  0.00000000000E+00 0.  1.
<mgrwt>
<rscale>  2 0.76227688E+02</rscale>
<asrwt>0</asrwt>
<pdfrwt beam="1">  1       21 0.52221294E-01 0.76227688E+02</pdfrwt>
<pdfrwt beam="2">  1       21 0.14050639E-01 0.76227688E+02</pdfrwt>
<totfact> 0.15988396E+05</totfact>
</mgrwt>
</event>
<event>
 5    1  0.1696945E+000  0.8854688E+02  0.7546771E-02  0.1306409E+00
         21   -1    0    0  501  502  0.00000000000E+00  0.00000000000E+00  0.62814252991E+02  0.62814252991E+02  0.00000000000E+00 0.  1.
         21   -1    0    0  502  503 -0.00000000000E+00 -0.00000000000E+00 -0.43506186436E+03  0.43506186436E+03  0.00000000000E+00 0.  1.
         24    1    1    2    0    0  0.26796080296E+02 -0.39615780371E+02 -0.99114921544E+02  0.13630269110E+03  0.80419002446E+02 0.  1.
          1    1    1    2  501    0 -0.15333032117E+02 -0.18650531033E+02  0.37892029870E+02  0.44930503106E+02  0.00000000000E+00 0. -1.
         -2    1    1    2    0  503 -0.11463048179E+02  0.58266311404E+02 -0.31102471970E+03  0.31664292315E+03  0.00000000000E+00 0.  1.
<mgrwt>
<rscale>  2 0.88546878E+02</rscale>
<asrwt>0</asrwt>
<pdfrwt beam="1">  1       21 0.96637308E-02 0.88546878E+02</pdfrwt>
<pdfrwt beam="2">  1       21 0.66932598E-01 0.88546878E+02</pdfrwt>
<totfact> 0.18212003E+05</totfact>
</mgrwt>
</event>
<event>
 5    1  0.1696945E+000  0.6673661E+02  0.7546771E-02  0.1371556E+00
         21   -1    0    0  503  502  0.00000000000E+00  0.00000000000E+00  0.14362098523E+03  0.14362098523E+03  0.00000000000E+00 0.  1.
         21   -1    0    0  501  503 -0.00000000000E+00 -0.00000000000E+00 -0.39183346527E+02  0.39183346527E+02  0.00000000000E+00 0. -1.
         24    1    1    2    0    0  0.10004925589E+02  0.31983552724E+02  0.25526538115E+02  0.90784724945E+02  0.80419002446E+02 0.  0.
          1    1    1    2  501    0  0.11230366710E+02 -0.16950417743E+02  0.25548960488E+02  0.32652521803E+02  0.00000000000E+00 0. -1.
         -2    1    1    2    0  502 -0.21235292298E+02 -0.15033134981E+02  0.53362140104E+02  0.59367085012E+02  0.00000000000E+00 0.  1.
<mgrwt>
<rscale>  2 0.66736606E+02</rscale>
<asrwt>0</asrwt>
<pdfrwt beam="1">  1       21 0.22095536E-01 0.66736606E+02</pdfrwt>
<pdfrwt beam="2">  1       21 0.60282072E-02 0.66736606E+02</pdfrwt>
<totfact> 0.35707061E+06</totfact>
</mgrwt>
</event>
<event>
 5    1  0.1696945E+000  0.8307830E+02  0.7546771E-02  0.1320536E+00
         21   -1    0    0  503  502  0.00000000000E+00  0.00000000000E+00  0.45895469237E+02  0.45895469237E+02  0.00000000000E+00 0. -1.
         21   -1    0    0  501  503 -0.00000000000E+00 -0.00000000000E+00 -0.18225777441E+03  0.18225777441E+03  0.00000000000E+00 0.  1.
         24    1    1    2    0    0 -0.34310726859E+02 -0.11201474952E+02 -0.35613587573E+02  0.95069672309E+02  0.80419002446E+02 0.  0.
          1    1    1    2  501    0  0.72630584627E+01  0.38736864802E+02 -0.80191028682E+02  0.89352659692E+02  0.00000000000E+00 0. -1.
         -2    1    1    2    0  502  0.27047668396E+02 -0.27535389851E+02 -0.20557688921E+02  0.43730911649E+02  0.00000000000E+00 0.  1.
<mgrwt>
<rscale>  2 0.83078299E+02</rscale>
<asrwt>0</asrwt>
<pdfrwt beam="1">  1       21 0.70608414E-02 0.83078299E+02</pdfrwt>
<pdfrwt beam="2">  1       21 0.28039658E-01 0.83078299E+02</pdfrwt>
<totfact> 0.17784789E+06</totfact>
</mgrwt>
</event>
<event>
 5    1  0.1696945E+000  0.7550208E+02  0.7546771E-02  0.1342323E+00
         21   -1    0    0  501  502  0.00000000000E+00  0.00000000000E+00  0.14945206055E+03  0.14945206055E+03  0.00000000000E+00 0. -1.
         21   -1    0    0  502  503 -0.00000000000E+00 -0.00000000000E+00 -0.56851883044E+02  0.56851883044E+02  0.00000000000E+00 0.  1.
         24    1    1    2    0    0 -0.24757888258E+02 -0.66859335432E+01  0.44312345936E+02  0.95333387095E+02  0.80419002446E+02 0. -1.
          1    1    1    2  501    0  0.45025436404E+02  0.98279508475E+01  0.68248361350E+02  0.82351183162E+02  0.00000000000E+00 0. -1.
         -2    1    1    2    0  503 -0.20267548147E+02 -0.31420173043E+01 -0.19960529786E+02  0.28619373332E+02  0.00000000000E+00 0.  1.
<mgrwt>
<rscale>  2 0.75502078E+02</rscale>
<asrwt>0</asrwt>
<pdfrwt beam="1">  1       21 0.22992625E-01 0.75502078E+02</pdfrwt>
<pdfrwt beam="2">  1       21 0.87464436E-02 0.75502078E+02</pdfrwt>
<totfact> 0.17836614E+06</totfact>
</mgrwt>
</event>
<event>
 5    1  0.1696945E+000  0.8493738E+02  0.7546771E-02  0.1315596E+00
         21   -1    0    0  503  502  0.00000000000E+00  0.00000000000E+00  0.24807940639E+04  0.24807940639E+04  0.00000000000E+00 0.  1.
         21   -1    0    0  501  503 -0.00000000000E+00 -0.00000000000E+00 -0.42104625482E+01  0.42104625482E+01  0.00000000000E+00 0. -1.
         24    1    1    2    0    0  0.23704362523E+02  0.90279324881E+01  0.14859795848E+04  0.14883702304E+04  0.80419002446E+02 0.  0.
          1    1    1    2  501    0 -0.54214684617E+02 -0.94764089326E+01  0.27901135398E+03  0.28438771071E+03  0.00000000000E+00 0. -1.
         -2    1    1    2    0  502  0.30510322093E+02  0.44847644451E+00  0.71159266257E+03  0.71224658533E+03  0.00000000000E+00 0.  1.
<mgrwt>
<rscale>  2 0.84937376E+02</rscale>
<asrwt>0</asrwt>
<pdfrwt beam="1">  1       21 0.38165946E+00 0.84937376E+02</pdfrwt>
<pdfrwt beam="2">  1       21 0.64776545E-03 0.84937376E+02</pdfrwt>
<totfact> 0.98216876E+04</totfact>
</mgrwt>
</event>
<event>
 5    1  0.1696945E+000  0.7196946E+02  0.7546771E-02  0.1353521E+00
         21   -1    0    0  501  502  0.00000000000E+00  0.00000000000E+00  0.49114242146E+02  0.49114242146E+02  0.00000000000E+00 0. -1.
         21   -1    0    0  502  503 -0.00000000000E+00 -0.00000000000E+00 -0.18717040219E+03  0.18717040219E+03  0.00000000000E+00 0.  1.
         24    1    1    2    0    0 -0.10253815758E+02 -0.27760895666E+02 -0.95103436530E+01  0.86217577422E+02  0.80419002446E+02 0. -1.
          1    1    1    2  501    0 -0.10209511761E+02  0.35063910513E+02 -0.24978529263E+02  0.44245213018E+02  0.00000000000E+00 0. -1.
         -2    1    1    2    0  503  0.20463327519E+02 -0.73030148478E+01 -0.10356728712E+03  0.10582185389E+03  0.00000000000E+00 0.  1.
<mgrwt>
<rscale>  2 0.71969456E+02</rscale>
<asrwt>0</asrwt>
<pdfrwt beam="1">  1       21 0.75560373E-02 0.71969456E+02</pdfrwt>
<pdfrwt beam="2">  1       21 0.28795446E-01 0.71969456E+02</pdfrwt>
<totfact> 0.14998630E+06</totfact>
</mgrwt>
</event>
<event>
 5    1  0.1696945E+000  0.1128526E+03  0.7546771E-02  0.1255377E+00
         21   -1    0    0  503  502  0.00000000000E+00  0.00000000000E+00  0.11794496054E+04  0.11794496054E+04  0.00000000000E+00 0.  1.
         21   -1    0    0  501  503 -0.00000000000E+00 -0.00000000000E+00 -0.15338572960E+02  0.15338572960E+02  0.00000000000E+00 0. -1.
         24    1    1    2    0    0 -0.51551965508E+02  0.43476205718E+02  0.68220196601E+03  0.69022787831E+03  0.80419002446E+02 0.  1.
          1    1    1    2  501    0 -0.10156880450E+02  0.25949458734E+02  0.22389325139E+02  0.35746587379E+02  0.00000000000E+00 0. -1.
         -2    1    1    2    0  502  0.61708845958E+02 -0.69425664452E+02  0.45951974131E+03  0.46881371269E+03  0.00000000000E+00 0.  1.
<mgrwt>
<rscale>  2 0.11285265E+03</rscale>
<asrwt>0</asrwt>
<pdfrwt beam="1">  1       21 0.18145371E+00 0.11285265E+03</pdfrwt>
<pdfrwt beam="2">  1       21 0.23597814E-02 0.11285265E+03</pdfrwt>
<totfact> 0.17400911E+05</totfact>
</mgrwt>
</event>
<event>
 5    1  0.1696945E+000  0.1001876E+03  0.7546771E-02  0.1279902E+00
         21   -1    0    0  503  502  0.00000000000E+00  0.00000000000E+00  0.71394766605E+03  0.71394766605E+03  0.00000000000E+00 0.  1.
         21   -1    0    0  501  503 -0.00000000000E+00 -0.00000000000E+00 -0.14309795049E+02  0.14309795049E+02  0.00000000000E+00 0. -1.
         24    1    1    2    0    0 -0.40118745033E+02 -0.79113292529E+00  0.36063931800E+03  0.37166930628E+03  0.80419002446E+02 0.  0.
          1    1    1    2  501    0  0.34752218428E+02  0.50060250673E+02  0.17896536597E+03  0.18905646670E+03  0.00000000000E+00 0. -1.
         -2    1    1    2    0  502  0.53665266041E+01 -0.49269117748E+02  0.16003318704E+03  0.16753168812E+03  0.00000000000E+00 0.  1.
<mgrwt>
<rscale>  2 0.10018757E+03</rscale>
<asrwt>0</asrwt>
<pdfrwt beam="1">  1       21 0.10983807E+00 0.10018757E+03</pdfrwt>
<pdfrwt beam="2">  1       21 0.22015075E-02 0.10018757E+03</pdfrwt>
<totfact> 0.69844954E+05</totfact>
</mgrwt>
</event>
<event>
 5    1  0.1696945E+000  0.9039802E+02  0.7546771E-02  0.1301891E+00
         21   -1    0    0  503  502  0.00000000000E+00  0.00000000000E+00  0.41277946323E+02  0.41277946323E+02  0.00000000000E+00 0.  1.
         21   -1    0    0  501  503 -0.00000000000E+00 -0.00000000000E+00 -0.21548854335E+03  0.21548854335E+03  0.00000000000E+00 0. -1.
         24    1    1    2    0    0 -0.58673344644E+01 -0.21222607979E+02 -0.47169024898E+02  0.95796438176E+02  0.80419002446E+02 0.  0.
          1    1    1    2  501    0 -0.16093607433E+02  0.54900995285E+02 -0.87750973937E+02  0.10475379187E+03  0.00000000000E+00 0. -1.
         -2    1    1    2    0  502  0.21960941897E+02 -0.33678387307E+02 -0.39290598194E+02  0.56216259632E+02  0.00000000000E+00 0.  1.
<mgrwt>
<rscale>  2 0.90398023E+02</rscale>
<asrwt>0</asrwt>
<pdfrwt beam="1">  1       21 0.63504534E-02 0.90398023E+02</pdfrwt>
<pdfrwt beam="2">  1       21 0.33152083E-01 0.90398023E+02</pdfrwt>
<totfact> 0.15492296E+06</totfact>
</mgrwt>
</event>
<event>
 5    1  0.1696945E+000  0.1074975E+03  0.7546771E-02  0.1265275E+00
         21   -1    0    0  503  502  0.00000000000E+00  0.00000000000E+00  0.19349994368E+03  0.19349994368E+03  0.00000000000E+00 0. -1.
         21   -1    0    0  501  503 -0.00000000000E+00 -0.00000000000E+00 -0.13487366871E+03  0.13487366871E+03  0.00000000000E+00 0. -1.
         24    1    1    2    0    0 -0.38749589314E+02  0.78604886275E+02  0.13586007242E+03  0.18056974843E+03  0.80419002446E+02 0. -1.
          1    1    1    2  501    0 -0.39886248823E+01 -0.34160922722E+02 -0.78955283446E+02  0.86120929824E+02  0.00000000000E+00 0. -1.
         -2    1    1    2    0  502  0.42738214197E+02 -0.44443963553E+02  0.17214859980E+01  0.61682934132E+02  0.00000000000E+00 0.  1.
<mgrwt>
<rscale>  2 0.10749753E+03</rscale>
<asrwt>0</asrwt>
<pdfrwt beam="1">  1       21 0.29769222E-01 0.10749753E+03</pdfrwt>
<pdfrwt beam="2">  1       21 0.20749795E-01 0.10749753E+03</pdfrwt>
<totfact> 0.23796132E+05</totfact>
</mgrwt>
</event>
<event>
 5    1  0.1696945E+000  0.8353271E+02  0.7546771E-02  0.1319315E+00
         21   -1    0    0  503  502  0.00000000000E+00  0.00000000000E+00  0.13284878345E+03  0.13284878345E+03  0.00000000000E+00 0. -1.
         21   -1    0    0  501  503 -0.00000000000E+00 -0.00000000000E+00 -0.64206275276E+02  0.64206275276E+02  0.00000000000E+00 0. -1.
         24    1    1    2    0    0 -0.29033081402E+02 -0.49718587527E+02  0.71146009501E+02  0.12183525099E+03  0.80419002446E+02 0. -1.
          1    1    1    2  501    0  0.18382897012E+01  0.38820298334E+02 -0.17133325140E+02  0.42472881962E+02  0.00000000000E+00 0. -1.
         -2    1    1    2    0  502  0.27194791701E+02  0.10898289193E+02  0.14629823817E+02  0.32746925778E+02  0.00000000000E+00 0.  1.
<mgrwt>
<rscale>  2 0.83532712E+02</rscale>
<asrwt>0</asrwt>
<pdfrwt beam="1">  1       21 0.20438274E-01 0.83532712E+02</pdfrwt>
<pdfrwt beam="2">  1       21 0.98778886E-02 0.83532712E+02</pdfrwt>
<totfact> 0.18040421E+06</totfact>
</mgrwt>
</event>
<event>
 5    1  0.1696945E+000  0.7466591E+02  0.7546771E-02  0.1344909E+00
         21   -1    0    0  501  502  0.00000000000E+00  0.00000000000E+00  0.71829411045E+02  0.71829411045E+02  0.00000000000E+00 0.  1.
         21   -1    0    0  502  503 -0.00000000000E+00 -0.00000000000E+00 -0.11446687689E+03  0.11446687689E+03  0.00000000000E+00 0. -1.
         24    1    1    2    0    0  0.10916537810E+02 -0.26181049703E+02 -0.19447340403E+02  0.87464468011E+02  0.80419002446E+02 0.  1.
          1    1    1    2  501    0  0.25165930179E+01  0.42695063001E+02  0.22572456561E+02  0.48360287843E+02  0.00000000000E+00 0. -1.
         -2    1    1    2    0  503 -0.13433130828E+02 -0.16514013298E+02 -0.45762582002E+02  0.50471532080E+02  0.00000000000E+00 0.  1.
<mgrwt>
<rscale>  2 0.74665905E+02</rscale>
<asrwt>0</asrwt>
<pdfrwt beam="1">  1       21 0.11050679E-01 0.74665905E+02</pdfrwt>
<pdfrwt beam="2">  1       21 0.17610289E-01 0.74665905E+02</pdfrwt>
<totfact> 0.19375107E+06</totfact>
</mgrwt>
</event>
<event>
 5    1  0.1696945E+000  0.7491547E+02  0.7546771E-02  0.1344133E+00
         21   -1    0    0  503  502  0.00000000000E+00  0.00000000000E+00  0.37862651314E+02  0.37862651314E+02  0.00000000000E+00 0. -1.
         21   -1    0    0  501  503 -0.00000000000E+00 -0.00000000000E+00 -0.24008648758E+03  0.24008648758E+03  0.00000000000E+00 0. -1.
         24    1    1    2    0    0  0.36444214239E+02  0.38791137760E+02 -0.72627957774E+02  0.12072683763E+03  0.80419002446E+02 0. -1.
          1    1    1    2  501    0 -0.23281620693E+02 -0.21745938226E+02 -0.13177985957E+03  0.13557599743E+03  0.00000000000E+00 0. -1.
         -2    1    1    2    0  502 -0.13162593546E+02 -0.17045199534E+02  0.21839810784E+01  0.21646303827E+02  0.00000000000E+00 0.  1.
<mgrwt>
<rscale>  2 0.74915466E+02</rscale>
<asrwt>0</asrwt>
<pdfrwt beam="1">  1       21 0.58250234E-02 0.74915466E+02</pdfrwt>
<pdfrwt beam="2">  1       21 0.36936382E-01 0.74915466E+02</pdfrwt>
<totfact> 0.14431936E+06</totfact>
</mgrwt>
</event>
<event>
 5    1  0.1696945E+000  0.1092536E+03  0.7546771E-02  0.1261958E+00
         21   -1    0    0  503  502  0.00000000000E+00  0.00000000000E+00  0.94616639812E+03  0.94616639812E+03  0.00000000000E+00 0.  1.
         21   -1    0    0  501  503 -0.00000000000E+00 -0.00000000000E+00 -0.25602194052E+02  0.25602194052E+02  0.00000000000E+00 0. -1.
         24    1    1    2    0    0  0.52847204185E+02 -0.78275725564E+02  0.19666571298E+03  0.23251781613E+03  0.80419002446E+02 0. -1.
          1    1    1    2  501    0 -0.34820158872E+02  0.53082157371E+02  0.13128734985E+03  0.14583047393E+03  0.00000000000E+00 0. -1.
         -2    1    1    2    0  502 -0.18027045312E+02  0.25193568193E+02  0.59261114124E+03  0.59342030211E+03  0.00000000000E+00 0.  1.
<mgrwt>
<rscale>  2 0.10925364E+03</rscale>
<asrwt>0</asrwt>
<pdfrwt beam="1">  1       21 0.14556403E+00 0.10925364E+03</pdfrwt>
<pdfrwt beam="2">  1       21 0.39387998E-02 0.10925364E+03</pdfrwt>
<totfact> 0.13517313E+05</totfact>
</mgrwt>
</event>
<event>
 5    1  0.1696945E+000  0.9954033E+02  0.7546771E-02  0.1281266E+00
         21   -1    0    0  503  502  0.00000000000E+00  0.00000000000E+00  0.32448195837E+02  0.32448195837E+02  0.00000000000E+00 0.  1.
         21   -1    0    0  501  503 -0.00000000000E+00 -0.00000000000E+00 -0.12299227600E+04  0.12299227600E+04  0.00000000000E+00 0. -1.
         24    1    1    2    0    0  0.11143330262E+01 -0.97261441053E+01 -0.81512333546E+03  0.81913924799E+03  0.80419002446E+02 0. -1.
          1    1    1    2  501    0 -0.36734314468E+02 -0.41660607795E+02 -0.37634194095E+03  0.38041854925E+03  0.00000000000E+00 0. -1.
         -2    1    1    2    0  502  0.35619981442E+02  0.51386751900E+02 -0.60092877097E+01  0.62813158554E+02  0.00000000000E+00 0.  1.
<mgrwt>
<rscale>  2 0.99540327E+02</rscale>
<asrwt>0</asrwt>
<pdfrwt beam="1">  1       21 0.49920306E-02 0.99540327E+02</pdfrwt>
<pdfrwt beam="2">  1       21 0.18921887E+00 0.99540327E+02</pdfrwt>
<totfact> 0.45747760E+04</totfact>
</mgrwt>
</event>
<event>
 5    1  0.1696945E+000  0.6837926E+02  0.7546771E-02  0.1365693E+00
         21   -1    0    0  501  502  0.00000000000E+00  0.00000000000E+00  0.13435185474E+03  0.13435185474E+03  0.00000000000E+00 0. -1.
         21   -1    0    0  502  503 -0.00000000000E+00 -0.00000000000E+00 -0.17914368302E+03  0.17914368302E+03  0.00000000000E+00 0.  1.
         24    1    1    2    0    0 -0.13264193901E+02 -0.12555300889E+02  0.32939724749E+02  0.88802116198E+02  0.80419002446E+02 0.  0.
          1    1    1    2  501    0  0.42420575272E+01  0.32303106040E+02  0.69031212729E+02  0.76333439873E+02  0.00000000000E+00 0. -1.
         -2    1    1    2    0  503  0.90221363735E+01 -0.19747805151E+02 -0.14676276576E+03  0.14835998169E+03  0.00000000000E+00 0.  1.
<mgrwt>
<rscale>  2 0.68379261E+02</rscale>
<asrwt>0</asrwt>
<pdfrwt beam="1">  1       21 0.20669516E-01 0.68379261E+02</pdfrwt>
<pdfrwt beam="2">  1       21 0.27560567E-01 0.68379261E+02</pdfrwt>
<totfact> 0.27965684E+05</totfact>
</mgrwt>
</event>
<event>
 5    1  0.1696945E+000  0.9661849E+02  0.7546771E-02  0.1287572E+00
         21   -1    0    0  501  502  0.00000000000E+00  0.00000000000E+00  0.31395000823E+03  0.31395000823E+03  0.00000000000E+00 0. -1.
         21   -1    0    0  502  503 -0.00000000000E+00 -0.00000000000E+00 -0.12696770129E+03  0.12696770129E+03  0.00000000000E+00 0.  1.
         24    1    1    2    0    0  0.62308764711E+02  0.49630805711E+02 -0.80470403727E+02  0.13888232741E+03  0.80419002446E+02 0.  1.
          1    1    1    2  501    0 -0.35434428031E+02 -0.23227431277E+02  0.26025284390E+03  0.26367907579E+03  0.00000000000E+00 0. -1.
         -2    1    1    2    0  503 -0.26874336679E+02 -0.26403374434E+02  0.71998667721E+01  0.38356306326E+02  0.00000000000E+00 0.  1.
<mgrwt>
<rscale>  2 0.96618487E+02</rscale>
<asrwt>0</asrwt>
<pdfrwt beam="1">  1       21 0.48300001E-01 0.96618487E+02</pdfrwt>
<pdfrwt beam="2">  1       21 0.19533493E-01 0.96618487E+02</pdfrwt>
<totfact> 0.10271806E+05</totfact>
</mgrwt>
</event>
<event>
 5    1  0.1696945E+000  0.1082504E+03  0.7546771E-02  0.1263845E+00
         21   -1    0    0  501  502  0.00000000000E+00  0.00000000000E+00  0.63328133703E+02  0.63328133703E+02  0.00000000000E+00 0.  1.
         21   -1    0    0  502  503 -0.00000000000E+00 -0.00000000000E+00 -0.20905945542E+03  0.20905945542E+03  0.00000000000E+00 0. -1.
         24    1    1    2    0    0 -0.41824455558E+01  0.11655459059E+02 -0.10158901510E+03  0.13015716085E+03  0.80419002446E+02 0. -1.
          1    1    1    2  501    0  0.24252249138E+02 -0.69657009316E+02 -0.26420949485E+02  0.78347540528E+02  0.00000000000E+00 0. -1.
         -2    1    1    2    0  503 -0.20069803582E+02  0.58001550257E+02 -0.17721357131E+02  0.63882887745E+02  0.00000000000E+00 0.  1.
<mgrwt>
<rscale>  2 0.10825035E+03</rscale>
<asrwt>0</asrwt>
<pdfrwt beam="1">  1       21 0.97427898E-02 0.10825035E+03</pdfrwt>
<pdfrwt beam="2">  1       21 0.32162993E-01 0.10825035E+03</pdfrwt>
<totfact> 0.79236412E+05</totfact>
</mgrwt>
</event>
<event>
 5    1  0.1696945E+000  0.6650578E+02  0.7546771E-02  0.1372395E+00
         21   -1    0    0  501  502  0.00000000000E+00  0.00000000000E+00  0.17848833574E+04  0.17848833574E+04  0.00000000000E+00 0. -1.
         21   -1    0    0  502  503 -0.00000000000E+00 -0.00000000000E+00 -0.59824101654E+01  0.59824101654E+01  0.00000000000E+00 0. -1.
         24    1    1    2    0    0  0.11962841522E+02 -0.24422612040E+02  0.49078194504E+03  0.49806998212E+03  0.80419002446E+02 0. -1.
          1    1    1    2  501    0 -0.25472697257E+02  0.76800712121E+01  0.12376105763E+04  0.12378965144E+04  0.00000000000E+00 0. -1.
         -2    1    1    2    0  503  0.13509855736E+02  0.16742540828E+02  0.50508425954E+02  0.54899271104E+02  0.00000000000E+00 0.  1.
<mgrwt>
<rscale>  2 0.66505783E+02</rscale>
<asrwt>0</asrwt>
<pdfrwt beam="1">  1       21 0.27459701E+00 0.66505783E+02</pdfrwt>
<pdfrwt beam="2">  1       21 0.92037222E-03 0.66505783E+02</pdfrwt>
<totfact> 0.23049687E+05</totfact>
</mgrwt>
</event>
<event>
 5    1  0.3170706E+000  0.9426789E+02  0.7546771E-02  0.1292834E+00
         21   -1    0    0  501  502  0.00000000000E+00  0.00000000000E+00  0.29894595812E+03  0.29894595812E+03  0.00000000000E+00 0.  1.
         21   -1    0    0  502  503 -0.00000000000E+00 -0.00000000000E+00 -0.18684627161E+03  0.18684627161E+03  0.00000000000E+00 0.  1.
         24    1    1    2    0    0 -0.15850858792E+02  0.14480775121E+02  0.13788486002E+03  0.16106021591E+03  0.80419002446E+02 0.  1.
          1    1    1    2  501    0  0.58901185753E+02 -0.19296272138E+02  0.14014557466E+03  0.15323993572E+03  0.00000000000E+00 0. -1.
         -2    1    1    2    0  503 -0.43050326960E+02  0.48154970166E+01 -0.16593074817E+03  0.17149207810E+03  0.00000000000E+00 0.  1.
<mgrwt>
<rscale>  2 0.94267895E+02</rscale>
<asrwt>0</asrwt>
<pdfrwt beam="1">  1       21 0.45991686E-01 0.94267895E+02</pdfrwt>
<pdfrwt beam="2">  1       21 0.28745580E-01 0.94267895E+02</pdfrwt>
<totfact> 0.55270412E+04</totfact>
</mgrwt>
</event>
<event>
 5    1  0.1696945E+000  0.8608439E+02  0.7546771E-02  0.1312621E+00
         21   -1    0    0  501  502  0.00000000000E+00  0.00000000000E+00  0.42868917069E+03  0.42868917069E+03  0.00000000000E+00 0. -1.
         21   -1    0    0  502  503 -0.00000000000E+00 -0.00000000000E+00 -0.59799162563E+02  0.59799162563E+02  0.00000000000E+00 0. -1.
         24    1    1    2    0    0  0.36443371886E+02 -0.56292485637E+02  0.86830743212E+02  0.13602851618E+03  0.80419002446E+02 0.  0.
          1    1    1    2  501    0 -0.21850757325E+02  0.27011089310E+02  0.30846593067E+03  0.31041630905E+03  0.00000000000E+00 0. -1.
         -2    1    1    2    0  503 -0.14592614560E+02  0.29281396327E+02 -0.26406665752E+02  0.42043508021E+02  0.00000000000E+00 0.  1.
<mgrwt>
<rscale>  2 0.86084394E+02</rscale>
<asrwt>0</asrwt>
<pdfrwt beam="1">  1       21 0.65952178E-01 0.86084394E+02</pdfrwt>
<pdfrwt beam="2">  1       21 0.91998715E-02 0.86084394E+02</pdfrwt>
<totfact> 0.20475649E+05</totfact>
</mgrwt>
</event>
<event>
 5    1  0.1696945E+000  0.1561082E+03  0.7546771E-02  0.1193162E+00
         21   -1    0    0  501  502  0.00000000000E+00  0.00000000000E+00  0.88404231313E+03  0.88404231313E+03  0.00000000000E+00 0.  1.
         21   -1    0    0  502  503 -0.00000000000E+00 -0.00000000000E+00 -0.33376778100E+02  0.33376778100E+02  0.00000000000E+00 0.  1.
         24    1    1    2    0    0 -0.99591971371E+02  0.85940629526E+02  0.45252389923E+03  0.47806845524E+03  0.80419002446E+02 0.  1.
          1    1    1    2  501    0  0.25559243654E+02  0.17395517164E+02  0.21016421679E+03  0.21242616829E+03  0.00000000000E+00 0. -1.
         -2    1    1    2    0  503  0.74032727717E+02 -0.10333614669E+03  0.18797741900E+03  0.22692446770E+03  0.00000000000E+00 0.  1.
<mgrwt>
<rscale>  2 0.15610823E+03</rscale>
<asrwt>0</asrwt>
<pdfrwt beam="1">  1       21 0.13600649E+00 0.15610823E+03</pdfrwt>
<pdfrwt beam="2">  1       21 0.51348896E-02 0.15610823E+03</pdfrwt>
<totfact> 0.10082738E+05</totfact>
</mgrwt>
</event>
<event>
 5    1  0.1696945E+000  0.7176709E+02  0.7546771E-02  0.1354185E+00
         21   -1    0    0  501  502  0.00000000000E+00  0.00000000000E+00  0.25275861742E+02  0.25275861742E+02  0.00000000000E+00 0. -1.
         21   -1    0    0  502  503 -0.00000000000E+00 -0.00000000000E+00 -0.48389447656E+03  0.48389447656E+03  0.00000000000E+00 0.  1.
         24    1    1    2    0    0  0.20240229016E+02 -0.18404584616E+02 -0.12940107743E+03  0.15479098941E+03  0.80419002446E+02 0. -1.
          1    1    1    2  501    0 -0.37289354040E+02  0.66417787921E+01 -0.17069576308E+02  0.41544910466E+02  0.00000000000E+00 0. -1.
         -2    1    1    2    0  503  0.17049125024E+02  0.11762805824E+02 -0.31214796107E+03  0.31283443843E+03  0.00000000000E+00 0.  1.
<mgrwt>
<rscale>  2 0.71767091E+02</rscale>
<asrwt>0</asrwt>
<pdfrwt beam="1">  1       21 0.38885940E-02 0.71767091E+02</pdfrwt>
<pdfrwt beam="2">  1       21 0.74445306E-01 0.71767091E+02</pdfrwt>
<totfact> 0.66881392E+05</totfact>
</mgrwt>
</event>
<event>
 5    1  0.1696945E+000  0.9320205E+02  0.7546771E-02  0.1295278E+00
         21   -1    0    0  503  502  0.00000000000E+00  0.00000000000E+00  0.60853280824E+02  0.60853280824E+02  0.00000000000E+00 0. -1.
         21   -1    0    0  501  503 -0.00000000000E+00 -0.00000000000E+00 -0.22048209631E+03  0.22048209631E+03  0.00000000000E+00 0. -1.
         24    1    1    2    0    0  0.48003029628E+02 -0.48834700787E+02 -0.10437628718E+03  0.14849492966E+03  0.80419002446E+02 0. -1.
          1    1    1    2  501    0 -0.36652066342E+02  0.68476938148E+01 -0.75997991243E+02  0.84651990825E+02  0.00000000000E+00 0. -1.
         -2    1    1    2    0  502 -0.11350963287E+02  0.41987006972E+02  0.20745462935E+02  0.48188456651E+02  0.00000000000E+00 0.  1.
<mgrwt>
<rscale>  2 0.93202048E+02</rscale>
<asrwt>0</asrwt>
<pdfrwt beam="1">  1       21 0.93620432E-02 0.93202048E+02</pdfrwt>
<pdfrwt beam="2">  1       21 0.33920322E-01 0.93202048E+02</pdfrwt>
<totfact> 0.76494567E+05</totfact>
</mgrwt>
</event>
<event>
 5    1  0.1696945E+000  0.7519173E+02  0.7546771E-02  0.1343278E+00
         21   -1    0    0  501  502  0.00000000000E+00  0.00000000000E+00  0.17744020405E+02  0.17744020405E+02  0.00000000000E+00 0.  1.
         21   -1    0    0  502  503 -0.00000000000E+00 -0.00000000000E+00 -0.83257181282E+03  0.83257181282E+03  0.00000000000E+00 0. -1.
         24    1    1    2    0    0 -0.21982558061E+02  0.23799306772E+02 -0.11188111217E+03  0.14154235789E+03  0.80419002446E+02 0.  1.
          1    1    1    2  501    0  0.37241772124E+02 -0.22908906515E+01 -0.13075784437E+03  0.13597724675E+03  0.00000000000E+00 0. -1.
         -2    1    1    2    0  503 -0.15259214062E+02 -0.21508416120E+02 -0.57218883587E+03  0.57279622858E+03  0.00000000000E+00 0.  1.
<mgrwt>
<rscale>  2 0.75191731E+02</rscale>
<asrwt>0</asrwt>
<pdfrwt beam="1">  1       21 0.27298487E-02 0.75191731E+02</pdfrwt>
<pdfrwt beam="2">  1       21 0.12808800E+00 0.75191731E+02</pdfrwt>
<totfact> 0.34317516E+05</totfact>
</mgrwt>
</event>
<event>
 5    1  0.1696945E+000  0.1004557E+03  0.7546771E-02  0.1279340E+00
         21   -1    0    0  501  502  0.00000000000E+00  0.00000000000E+00  0.19284350261E+03  0.19284350261E+03  0.00000000000E+00 0.  1.
         21   -1    0    0  502  503 -0.00000000000E+00 -0.00000000000E+00 -0.65955537031E+02  0.65955537031E+02  0.00000000000E+00 0.  1.
         24    1    1    2    0    0 -0.67610087435E+02 -0.43559208781E+02  0.13871369895E+02  0.11457818051E+03  0.80419002446E+02 0.  1.
          1    1    1    2  501    0  0.85498197498E+01  0.23167179149E+02  0.48402326752E+02  0.54337858280E+02  0.00000000000E+00 0. -1.
         -2    1    1    2    0  503  0.59060267685E+02  0.20392029631E+02  0.64614268928E+02  0.89883000844E+02  0.00000000000E+00 0.  1.
<mgrwt>
<rscale>  2 0.10045575E+03</rscale>
<asrwt>0</asrwt>
<pdfrwt beam="1">  1       21 0.29668231E-01 0.10045575E+03</pdfrwt>
<pdfrwt beam="2">  1       21 0.10147006E-01 0.10045575E+03</pdfrwt>
<totfact> 0.86172123E+05</totfact>
</mgrwt>
</event>
<event>
 5    1  0.1696945E+000  0.8136751E+02  0.7546771E-02  0.1325215E+00
         21   -1    0    0  503  502  0.00000000000E+00  0.00000000000E+00  0.18066797347E+04  0.18066797347E+04  0.00000000000E+00 0.  1.
         21   -1    0    0  501  503 -0.00000000000E+00 -0.00000000000E+00 -0.58903818327E+01  0.58903818327E+01  0.00000000000E+00 0.  1.
         24    1    1    2    0    0  0.50963985014E+02  0.11925049706E+02  0.47983337356E+03  0.48933303273E+03  0.80419002446E+02 0.  1.
          1    1    1    2  501    0 -0.11235945881E+02 -0.22950770997E+02  0.21506115552E+03  0.21657397116E+03  0.00000000000E+00 0. -1.
         -2    1    1    2    0  502 -0.39728039133E+02  0.11025721290E+02  0.11058948238E+04  0.11066631127E+04  0.00000000000E+00 0.  1.
<mgrwt>
<rscale>  2 0.81367509E+02</rscale>
<asrwt>0</asrwt>
<pdfrwt beam="1">  1       21 0.27795029E+00 0.81367509E+02</pdfrwt>
<pdfrwt beam="2">  1       21 0.90621403E-03 0.81367509E+02</pdfrwt>
<totfact> 0.22165321E+05</totfact>
</mgrwt>
</event>
<event>
 5    1  0.1696945E+000  0.1209920E+03  0.7546771E-02  0.1241470E+00
         21   -1    0    0  501  502  0.00000000000E+00  0.00000000000E+00  0.17468218365E+03  0.17468218365E+03  0.00000000000E+00 0.  1.
         21   -1    0    0  502  503 -0.00000000000E+00 -0.00000000000E+00 -0.12452298872E+03  0.12452298872E+03  0.00000000000E+00 0. -1.
         24    1    1    2    0    0 -0.47870889290E+02  0.73544620015E+02  0.17705579255E+02  0.12033759457E+03  0.80419002446E+02 0.  1.
          1    1    1    2  501    0  0.73088465951E+02 -0.58265466039E+02  0.79926110030E+02  0.12298362270E+03  0.00000000000E+00 0. -1.
         -2    1    1    2    0  503 -0.25217576660E+02 -0.15279153977E+02 -0.47472494349E+02  0.55883955109E+02  0.00000000000E+00 0.  1.
<mgrwt>
<rscale>  2 0.12099198E+03</rscale>
<asrwt>0</asrwt>
<pdfrwt beam="1">  1       21 0.26874182E-01 0.12099198E+03</pdfrwt>
<pdfrwt beam="2">  1       21 0.19157383E-01 0.12099198E+03</pdfrwt>
<totfact> 0.33425321E+05</totfact>
</mgrwt>
</event>
<event>
 5    1  0.1696945E+000  0.7339439E+02  0.7546771E-02  0.1348916E+00
         21   -1    0    0  503  502  0.00000000000E+00  0.00000000000E+00  0.56232601115E+02  0.56232601115E+02  0.00000000000E+00 0.  1.
         21   -1    0    0  501  503 -0.00000000000E+00 -0.00000000000E+00 -0.19427915512E+03  0.19427915512E+03  0.00000000000E+00 0. -1.
         24    1    1    2    0    0 -0.43203573254E+02  0.57822781109E+01 -0.12405963613E+03  0.15413627981E+03  0.80419002446E+02 0. -1.
          1    1    1    2  501    0  0.16292744247E+02  0.14347723091E+02 -0.45431374569E+02  0.50351965882E+02  0.00000000000E+00 0. -1.
         -2    1    1    2    0  502  0.26910829007E+02 -0.20130001202E+02  0.31444456693E+02  0.46023510546E+02  0.00000000000E+00 0.  1.
<mgrwt>
<rscale>  2 0.73394389E+02</rscale>
<asrwt>0</asrwt>
<pdfrwt beam="1">  1       21 0.86511694E-02 0.73394389E+02</pdfrwt>
<pdfrwt beam="2">  1       21 0.29889101E-01 0.73394389E+02</pdfrwt>
<totfact> 0.11114091E+06</totfact>
</mgrwt>
</event>
<event>
 5    1  0.1696945E+000  0.9070810E+02  0.7546771E-02  0.1301146E+00
         21   -1    0    0  501  502  0.00000000000E+00  0.00000000000E+00  0.76524952646E+02  0.76524952646E+02  0.00000000000E+00 0. -1.
         21   -1    0    0  502  503 -0.00000000000E+00 -0.00000000000E+00 -0.47623137953E+03  0.47623137953E+03  0.00000000000E+00 0.  1.
         24    1    1    2    0    0  0.48544727629E+02  0.35909422552E+01 -0.41282067809E+02  0.10266893651E+03  0.80419002446E+02 0. -1.
          1    1    1    2  501    0 -0.63456744782E+02 -0.18729325353E+02  0.21500465935E+02  0.69568786981E+02  0.00000000000E+00 0. -1.
         -2    1    1    2    0  503  0.14912017153E+02  0.15138383098E+02 -0.37992482501E+03  0.38051860868E+03  0.00000000000E+00 0.  1.
<mgrwt>
<rscale>  2 0.90708101E+02</rscale>
<asrwt>0</asrwt>
<pdfrwt beam="1">  1       21 0.11773070E-01 0.90708101E+02</pdfrwt>
<pdfrwt beam="2">  1       21 0.73266365E-01 0.90708101E+02</pdfrwt>
<totfact> 0.10618550E+05</totfact>
</mgrwt>
</event>
<event>
 5    1  0.1696945E+000  0.1378026E+03  0.7546771E-02  0.1216317E+00
         21   -1    0    0  501  502  0.00000000000E+00  0.00000000000E+00  0.83005504035E+02  0.83005504035E+02  0.00000000000E+00 0.  1.
         21   -1    0    0  502  503 -0.00000000000E+00 -0.00000000000E+00 -0.66764079114E+03  0.66764079114E+03  0.00000000000E+00 0.  1.
         24    1    1    2    0    0  0.65435091266E+02  0.60206060809E+02 -0.11246140750E+03  0.16438158370E+03  0.80419002446E+02 0.  1.
          1    1    1    2  501    0 -0.77201785531E+01 -0.90297045381E+02  0.17485873259E+02  0.92297959485E+02  0.00000000000E+00 0. -1.
         -2    1    1    2    0  503 -0.57714912713E+02  0.30090984572E+02 -0.48965975286E+03  0.49396675199E+03  0.00000000000E+00 0.  1.
<mgrwt>
<rscale>  2 0.13780261E+03</rscale>
<asrwt>0</asrwt>
<pdfrwt beam="1">  1       21 0.12770078E-01 0.13780261E+03</pdfrwt>
<pdfrwt beam="2">  1       21 0.10271397E+00 0.13780261E+03</pdfrwt>
<totfact> 0.41675328E+04</totfact>
</mgrwt>
</event>
<event>
 5    1  0.1696945E+000  0.1383631E+03  0.7546771E-02  0.1215549E+00
         21   -1    0    0  503  502  0.00000000000E+00  0.00000000000E+00  0.51530281542E+03  0.51530281542E+03  0.00000000000E+00 0.  1.
         21   -1    0    0  501  503 -0.00000000000E+00 -0.00000000000E+00 -0.67966444227E+02  0.67966444227E+02  0.00000000000E+00 0. -1.
         24    1    1    2    0    0 -0.46180352968E+02 -0.23676845405E+02  0.16386879732E+03  0.18977201242E+03  0.80419002446E+02 0.  1.
          1    1    1    2  501    0 -0.57637696152E+02 -0.29084676526E+02 -0.20700485573E+02  0.67797732479E+02  0.00000000000E+00 0. -1.
         -2    1    1    2    0  502  0.10381804912E+03  0.52761521931E+02  0.30416805944E+03  0.32569951474E+03  0.00000000000E+00 0.  1.
<mgrwt>
<rscale>  2 0.13836312E+03</rscale>
<asrwt>0</asrwt>
<pdfrwt beam="1">  1       21 0.79277354E-01 0.13836312E+03</pdfrwt>
<pdfrwt beam="2">  1       21 0.10456376E-01 0.13836312E+03</pdfrwt>
<totfact> 0.10752754E+05</totfact>
</mgrwt>
</event>
<event>
 5    1  0.1696945E+000  0.8077597E+02  0.7546771E-02  0.1326864E+00
         21   -1    0    0  501  502  0.00000000000E+00  0.00000000000E+00  0.26133665471E+02  0.26133665471E+02  0.00000000000E+00 0. -1.
         21   -1    0    0  502  503 -0.00000000000E+00 -0.00000000000E+00 -0.26073062527E+03  0.26073062527E+03  0.00000000000E+00 0. -1.
         24    1    1    2    0    0  0.58363413172E+02  0.11301756930E+02 -0.13144385289E+03  0.16516270803E+03  0.80419002446E+02 0. -1.
          1    1    1    2  501    0 -0.36663523496E+02 -0.14851770076E+02 -0.47207759931E+02  0.61590272180E+02  0.00000000000E+00 0. -1.
         -2    1    1    2    0  503 -0.21699889676E+02  0.35500131460E+01 -0.55945346973E+02  0.60111310526E+02  0.00000000000E+00 0.  1.
<mgrwt>
<rscale>  2 0.80775969E+02</rscale>
<asrwt>0</asrwt>
<pdfrwt beam="1">  1       21 0.40205641E-02 0.80775969E+02</pdfrwt>
<pdfrwt beam="2">  1       21 0.40112403E-01 0.80775969E+02</pdfrwt>
<totfact> 0.22742811E+06</totfact>
</mgrwt>
</event>
<event>
 5    1  0.1696945E+000  0.1067570E+03  0.7546771E-02  0.1266696E+00
         21   -1    0    0  503  502  0.00000000000E+00  0.00000000000E+00  0.16347695741E+04  0.16347695741E+04  0.00000000000E+00 0.  1.
         21   -1    0    0  501  503 -0.00000000000E+00 -0.00000000000E+00 -0.71280930485E+01  0.71280930485E+01  0.00000000000E+00 0.  1.
         24    1    1    2    0    0  0.39670032017E+02  0.44270729877E+02  0.88485036506E+03  0.89048357282E+03  0.80419002446E+02 0.  1.
          1    1    1    2  501    0  0.15332597479E+02 -0.55322488817E+02  0.37532575750E+03  0.37969078282E+03  0.00000000000E+00 0. -1.
         -2    1    1    2    0  502 -0.55002629496E+02  0.11051758940E+02  0.36746535845E+03  0.37172331146E+03  0.00000000000E+00 0.  1.
<mgrwt>
<rscale>  2 0.10675699E+03</rscale>
<asrwt>0</asrwt>
<pdfrwt beam="1">  1       21 0.25150271E+00 0.10675699E+03</pdfrwt>
<pdfrwt beam="2">  1       21 0.10966310E-02 0.10675699E+03</pdfrwt>
<totfact> 0.22427670E+05</totfact>
</mgrwt>
</event>
<event>
 5    1  0.1696945E+000  0.7100758E+02  0.7546771E-02  0.1356700E+00
         21   -1    0    0  501  502  0.00000000000E+00  0.00000000000E+00  0.11933739875E+03  0.11933739875E+03  0.00000000000E+00 0.  1.
         21   -1    0    0  502  503 -0.00000000000E+00 -0.00000000000E+00 -0.12000819847E+03  0.12000819847E+03  0.00000000000E+00 0. -1.
         24    1    1    2    0    0 -0.15227681956E+02  0.99292547684E+01 -0.82542524596E+00  0.82452226648E+02  0.80419002446E+02 0. -1.
          1    1    1    2  501    0 -0.21664374966E+02 -0.59143847545E+01  0.72330260217E+02  0.75736329676E+02  0.00000000000E+00 0. -1.
         -2    1    1    2    0  503  0.36892056922E+02 -0.40148700139E+01 -0.72175634686E+02  0.81157040899E+02  0.00000000000E+00 0.  1.
<mgrwt>
<rscale>  2 0.71007578E+02</rscale>
<asrwt>0</asrwt>
<pdfrwt beam="1">  1       21 0.18359600E-01 0.71007578E+02</pdfrwt>
<pdfrwt beam="2">  1       21 0.18462800E-01 0.71007578E+02</pdfrwt>
<totfact> 0.72413606E+05</totfact>
</mgrwt>
</event>
<event>
 5    1  0.1696945E+000  0.1026605E+03  0.7546771E-02  0.1274799E+00
         21   -1    0    0  503  502  0.00000000000E+00  0.00000000000E+00  0.73474187362E+01  0.73474187362E+01  0.00000000000E+00 0.  1.
         21   -1    0    0  501  503 -0.00000000000E+00 -0.00000000000E+00 -0.15994483103E+04  0.15994483103E+04  0.00000000000E+00 0. -1.
         24    1    1    2    0    0 -0.54231626200E+02 -0.47961796760E+02 -0.87230829428E+03  0.87899395871E+03  0.80419002446E+02 0. -1.
          1    1    1    2  501    0  0.33043688507E+02  0.62994902046E+02 -0.63870509690E+03  0.64265421795E+03  0.00000000000E+00 0. -1.
         -2    1    1    2    0  502  0.21187937694E+02 -0.15033105286E+02 -0.81087500421E+02  0.85147552418E+02  0.00000000000E+00 0.  1.
<mgrwt>
<rscale>  2 0.10266052E+03</rscale>
<asrwt>0</asrwt>
<pdfrwt beam="1">  1       21 0.11303707E-02 0.10266052E+03</pdfrwt>
<pdfrwt beam="2">  1       21 0.24606928E+00 0.10266052E+03</pdfrwt>
<totfact> 0.23041571E+05</totfact>
</mgrwt>
</event>
<event>
 5    1  0.1696945E+000  0.7916390E+02  0.7546771E-02  0.1331441E+00
         21   -1    0    0  503  502  0.00000000000E+00  0.00000000000E+00  0.54567329966E+03  0.54567329966E+03  0.00000000000E+00 0.  1.
         21   -1    0    0  501  503 -0.00000000000E+00 -0.00000000000E+00 -0.15784570519E+02  0.15784570519E+02  0.00000000000E+00 0. -1.
         24    1    1    2    0    0  0.15811905270E+02  0.26824334585E+02  0.24778852536E+03  0.26236602396E+03  0.80419002446E+02 0. -1.
          1    1    1    2  501    0  0.23898088945E+02 -0.21273452100E+02  0.30121537317E+02  0.43942979301E+02  0.00000000000E+00 0. -1.
         -2    1    1    2    0  502 -0.39709994215E+02 -0.55508824850E+01  0.25197866646E+03  0.25514886692E+03  0.00000000000E+00 0.  1.
<mgrwt>
<rscale>  2 0.79163905E+02</rscale>
<asrwt>0</asrwt>
<pdfrwt beam="1">  1       21 0.83949724E-01 0.79163905E+02</pdfrwt>
<pdfrwt beam="2">  1       21 0.24283959E-02 0.79163905E+02</pdfrwt>
<totfact> 0.11033193E+06</totfact>
</mgrwt>
</event>
<event>
 5    1  0.1696945E+000  0.7948585E+02  0.7546771E-02  0.1330517E+00
         21   -1    0    0  501  502  0.00000000000E+00  0.00000000000E+00  0.11440947823E+03  0.11440947823E+03  0.00000000000E+00 0.  1.
         21   -1    0    0  502  503 -0.00000000000E+00 -0.00000000000E+00 -0.65716238274E+02  0.65716238274E+02  0.00000000000E+00 0. -1.
         24    1    1    2    0    0 -0.11834301323E+02 -0.24481446946E+02  0.15017470750E+02  0.86209815650E+02  0.80419002446E+02 0. -1.
          1    1    1    2  501    0 -0.10206795840E+02 -0.21105618646E+02  0.36299589155E+02  0.43212104700E+02  0.00000000000E+00 0. -1.
         -2    1    1    2    0  503  0.22041097163E+02  0.45587065592E+02 -0.26238199474E+01  0.50703796156E+02  0.00000000000E+00 0.  1.
<mgrwt>
<rscale>  2 0.79485852E+02</rscale>
<asrwt>0</asrwt>
<pdfrwt beam="1">  1       21 0.17601458E-01 0.79485852E+02</pdfrwt>
<pdfrwt beam="2">  1       21 0.10110191E-01 0.79485852E+02</pdfrwt>
<totfact> 0.22685524E+06</totfact>
</mgrwt>
</event>
<event>
 5    1  0.1696945E+000  0.6857834E+02  0.7546771E-02  0.1364995E+00
         21   -1    0    0  503  502  0.00000000000E+00  0.00000000000E+00  0.68703513991E+01  0.68703513991E+01  0.00000000000E+00 0. -1.
         21   -1    0    0  501  503 -0.00000000000E+00 -0.00000000000E+00 -0.79261723926E+03  0.79261723926E+03  0.00000000000E+00 0.  1.
         24    1    1    2    0    0 -0.10978057813E+02 -0.27941604469E+02 -0.40638658983E+03  0.41535349687E+03  0.80419002446E+02 0.  0.
          1    1    1    2  501    0 -0.11721703824E+02  0.26017066757E+02 -0.30576117402E+03  0.30708985923E+03  0.00000000000E+00 0. -1.
         -2    1    1    2    0  502  0.22699761638E+02  0.19245377127E+01 -0.73599124007E+02  0.77044234557E+02  0.00000000000E+00 0.  1.
<mgrwt>
<rscale>  2 0.68578336E+02</rscale>
<asrwt>0</asrwt>
<pdfrwt beam="1">  1       21 0.10569776E-02 0.68578336E+02</pdfrwt>
<pdfrwt beam="2">  1       21 0.12194107E+00 0.68578336E+02</pdfrwt>
<totfact> 0.17325298E+06</totfact>
</mgrwt>
</event>
<event>
 5    1  0.1696945E+000  0.8526634E+02  0.7546771E-02  0.1314738E+00
         21   -1    0    0  503  502  0.00000000000E+00  0.00000000000E+00  0.16936705568E+04  0.16936705568E+04  0.00000000000E+00 0.  1.
         21   -1    0    0  501  503 -0.00000000000E+00 -0.00000000000E+00 -0.14051403152E+02  0.14051403152E+02  0.00000000000E+00 0. -1.
         24    1    1    2    0    0 -0.40956341654E+02 -0.15209086252E+02  0.17760567746E+03  0.19979922635E+03  0.80419002446E+02 0. -1.
          1    1    1    2  501    0  0.36529707105E+01 -0.24359662913E+02  0.59666493058E+02  0.64550970296E+02  0.00000000000E+00 0. -1.
         -2    1    1    2    0  502  0.37303370943E+02  0.39568749165E+02  0.14423469831E+04  0.14433717633E+04  0.00000000000E+00 0.  1.
<mgrwt>
<rscale>  2 0.85266337E+02</rscale>
<asrwt>0</asrwt>
<pdfrwt beam="1">  1       21 0.26056454E+00 0.85266337E+02</pdfrwt>
<pdfrwt beam="2">  1       21 0.21617557E-02 0.85266337E+02</pdfrwt>
<totfact> 0.69686127E+04</totfact>
</mgrwt>
</event>
<event>
 5    1  0.3351587E+000  0.1391703E+03  0.7546771E-02  0.1214450E+00
         21   -1    0    0  503  502  0.00000000000E+00  0.00000000000E+00  0.76204497750E+03  0.76204497750E+03  0.00000000000E+00 0. -1.
         21   -1    0    0  501  503 -0.00000000000E+00 -0.00000000000E+00 -0.98728309200E+02  0.98728309200E+02  0.00000000000E+00 0. -1.
         24    1    1    2    0    0  0.50185037850E+02  0.45681219903E+02  0.44170460152E+03  0.45406550500E+03  0.80419002446E+02 0. -1.
          1    1    1    2  501    0 -0.47371387508E+02 -0.10423428729E+03 -0.52815893657E+02  0.12608867365E+03  0.00000000000E+00 0. -1.
         -2    1    1    2    0  502 -0.28136503413E+01  0.58553067386E+02  0.27442796044E+03  0.28061910805E+03  0.00000000000E+00 0.  1.
<mgrwt>
<rscale>  2 0.13917027E+03</rscale>
<asrwt>0</asrwt>
<pdfrwt beam="1">  1       21 0.11723768E+00 0.13917027E+03</pdfrwt>
<pdfrwt beam="2">  1       21 0.15188971E-01 0.13917027E+03</pdfrwt>
<totfact> 0.22221090E+04</totfact>
</mgrwt>
</event>
<event>
 5    1  0.1696945E+000  0.6714310E+02  0.7546771E-02  0.1370087E+00
         21   -1    0    0  501  502  0.00000000000E+00  0.00000000000E+00  0.12842968607E+04  0.12842968607E+04  0.00000000000E+00 0. -1.
         21   -1    0    0  502  503 -0.00000000000E+00 -0.00000000000E+00 -0.13280150696E+02  0.13280150696E+02  0.00000000000E+00 0.  1.
         24    1    1    2    0    0  0.14144993490E+01 -0.23551682998E+01  0.85771408321E+03  0.86148024476E+03  0.80419002446E+02 0.  0.
          1    1    1    2  501    0  0.13366122390E+02 -0.21759191958E+02  0.40611096666E+03  0.40691305325E+03  0.00000000000E+00 0. -1.
         -2    1    1    2    0  503 -0.14780621738E+02  0.24114360258E+02  0.71916600931E+01  0.29183713344E+02  0.00000000000E+00 0.  1.
<mgrwt>
<rscale>  2 0.67143098E+02</rscale>
<asrwt>0</asrwt>
<pdfrwt beam="1">  1       21 0.19758403E+00 0.67143098E+02</pdfrwt>
<pdfrwt beam="2">  1       21 0.20431011E-02 0.67143098E+02</pdfrwt>
<totfact> 0.17926723E+05</totfact>
</mgrwt>
</event>
<event>
 5    1  0.1696945E+000  0.9310252E+02  0.7546771E-02  0.1295508E+00
         21   -1    0    0  501  502  0.00000000000E+00  0.00000000000E+00  0.56433490732E+03  0.56433490732E+03  0.00000000000E+00 0. -1.
         21   -1    0    0  502  503 -0.00000000000E+00 -0.00000000000E+00 -0.18138164361E+03  0.18138164361E+03  0.00000000000E+00 0.  1.
         24    1    1    2    0    0 -0.24357791788E+02 -0.32788804216E+02 -0.10959597892E+02  0.90861083215E+02  0.80419002446E+02 0.  0.
          1    1    1    2  501    0 -0.18252738672E+02 -0.20714897492E+02  0.51502469936E+03  0.51576420038E+03  0.00000000000E+00 0. -1.
         -2    1    1    2    0  503  0.42610530460E+02  0.53503701708E+02 -0.12111183776E+03  0.13909126733E+03  0.00000000000E+00 0.  1.
<mgrwt>
<rscale>  2 0.93102522E+02</rscale>
<asrwt>0</asrwt>
<pdfrwt beam="1">  1       21 0.86820754E-01 0.93102522E+02</pdfrwt>
<pdfrwt beam="2">  1       21 0.27904869E-01 0.93102522E+02</pdfrwt>
<totfact> 0.15167527E+04</totfact>
</mgrwt>
</event>
<event>
 5    1  0.1696945E+000  0.1057923E+03  0.7546771E-02  0.1268566E+00
         21   -1    0    0  503  502  0.00000000000E+00  0.00000000000E+00  0.33310006159E+03  0.33310006159E+03  0.00000000000E+00 0. -1.
         21   -1    0    0  501  503 -0.00000000000E+00 -0.00000000000E+00 -0.53753616371E+02  0.53753616371E+02  0.00000000000E+00 0. -1.
         24    1    1    2    0    0 -0.87798979176E+02  0.85339786933E+01  0.20060171696E+03  0.23343040577E+03  0.80419002446E+02 0. -1.
          1    1    1    2  501    0  0.67517625357E+02  0.52080075080E+01 -0.33004668919E+01  0.67798570469E+02  0.00000000000E+00 0. -1.
         -2    1    1    2    0  502  0.20281353820E+02 -0.13741986201E+02  0.82045195152E+02  0.85624701723E+02  0.00000000000E+00 0.  1.
<mgrwt>
<rscale>  2 0.10579230E+03</rscale>
<asrwt>0</asrwt>
<pdfrwt beam="1">  1       21 0.51246162E-01 0.10579230E+03</pdfrwt>
<pdfrwt beam="2">  1       21 0.82697874E-02 0.10579230E+03</pdfrwt>
<totfact> 0.41550686E+05</totfact>
</mgrwt>
</event>
<event>
 5    1  0.1696945E+000  0.1424089E+03  0.7546771E-02  0.1210124E+00
         21   -1    0    0  501  502  0.00000000000E+00  0.00000000000E+00  0.54798801486E+02  0.54798801486E+02  0.00000000000E+00 0.  1.
         21   -1    0    0  502  503 -0.00000000000E+00 -0.00000000000E+00 -0.61214039664E+03  0.61214039664E+03  0.00000000000E+00 0.  1.
         24    1    1    2    0    0 -0.22284607632E+02  0.11578212924E+03 -0.10802893786E+03  0.17899601268E+03  0.80419002446E+02 0.  1.
          1    1    1    2  501    0 -0.27252012130E+02 -0.68056503895E+02 -0.66430458344E+02  0.98931115850E+02  0.00000000000E+00 0. -1.
         -2    1    1    2    0  503  0.49536619762E+02 -0.47725625345E+02 -0.38288219896E+03  0.38901206959E+03  0.00000000000E+00 0.  1.
<mgrwt>
<rscale>  2 0.14240894E+03</rscale>
<asrwt>0</asrwt>
<pdfrwt beam="1">  1       21 0.84305843E-02 0.14240894E+03</pdfrwt>
<pdfrwt beam="2">  1       21 0.94175451E-01 0.14240894E+03</pdfrwt>
<totfact> 0.10568209E+05</totfact>
</mgrwt>
</event>
<event>
 5    1  0.1696945E+000  0.8532145E+02  0.7546771E-02  0.1314594E+00
         21   -1    0    0  503  502  0.00000000000E+00  0.00000000000E+00  0.29012267349E+03  0.29012267349E+03  0.00000000000E+00 0.  1.
         21   -1    0    0  501  503 -0.00000000000E+00 -0.00000000000E+00 -0.29483646326E+02  0.29483646326E+02  0.00000000000E+00 0. -1.
         24    1    1    2    0    0 -0.13155490375E+01 -0.27037735935E+01  0.65929074511E+02  0.10403316722E+03  0.80419002446E+02 0. -1.
          1    1    1    2  501    0  0.10263258319E+02 -0.42686977308E+02  0.70794603463E+02  0.83302991438E+02  0.00000000000E+00 0. -1.
         -2    1    1    2    0  502 -0.89477092811E+01  0.45390750901E+02  0.12391534919E+03  0.13227016117E+03  0.00000000000E+00 0.  1.
<mgrwt>
<rscale>  2 0.85321450E+02</rscale>
<asrwt>0</asrwt>
<pdfrwt beam="1">  1       21 0.44634256E-01 0.85321450E+02</pdfrwt>
<pdfrwt beam="2">  1       21 0.45359458E-02 0.85321450E+02</pdfrwt>
<totfact> 0.15105327E+06</totfact>
</mgrwt>
</event>
<event>
 5    1  0.1696945E+000  0.2971614E+03  0.7546771E-02  0.1086668E+00
         21   -1    0    0  501  502  0.00000000000E+00  0.00000000000E+00  0.13367756567E+04  0.13367756567E+04  0.00000000000E+00 0.  1.
         21   -1    0    0  502  503 -0.00000000000E+00 -0.00000000000E+00 -0.12708704797E+03  0.12708704797E+03  0.00000000000E+00 0.  1.
         24    1    1    2    0    0 -0.39532849046E+02  0.21025547196E+03  0.12925708637E+03  0.26257345634E+03  0.80419002446E+02 0.  1.
          1    1    1    2  501    0 -0.12515194503E+03 -0.46462954694E+02  0.89273286151E+03  0.90265928097E+03  0.00000000000E+00 0. -1.
         -2    1    1    2    0  503  0.16468479408E+03 -0.16379251727E+03  0.18769866081E+03  0.29862996733E+03  0.00000000000E+00 0.  1.
<mgrwt>
<rscale>  2 0.29716142E+03</rscale>
<asrwt>0</asrwt>
<pdfrwt beam="1">  1       21 0.20565778E+00 0.29716142E+03</pdfrwt>
<pdfrwt beam="2">  1       21 0.19551854E-01 0.29716142E+03</pdfrwt>
<totfact> 0.27321688E+03</totfact>
</mgrwt>
</event>
<event>
 5    1  0.1696945E+000  0.9534675E+02  0.7546771E-02  0.1290397E+00
         21   -1    0    0  501  502  0.00000000000E+00  0.00000000000E+00  0.34428272981E+03  0.34428272981E+03  0.00000000000E+00 0. -1.
         21   -1    0    0  502  503 -0.00000000000E+00 -0.00000000000E+00 -0.42154515161E+02  0.42154515161E+02  0.00000000000E+00 0. -1.
         24    1    1    2    0    0  0.37121166617E+02 -0.57277609980E+02  0.54616270591E+02  0.11878071638E+03  0.80419002446E+02 0. -1.
          1    1    1    2  501    0 -0.26734604937E+01  0.49917210546E+02  0.21132094437E+03  0.21715298025E+03  0.00000000000E+00 0. -1.
         -2    1    1    2    0  503 -0.34447706124E+02  0.73603994336E+01  0.36190999683E+02  0.50503548341E+02  0.00000000000E+00 0.  1.
<mgrwt>
<rscale>  2 0.95346755E+02</rscale>
<asrwt>0</asrwt>
<pdfrwt beam="1">  1       21 0.52966572E-01 0.95346755E+02</pdfrwt>
<pdfrwt beam="2">  1       21 0.64853102E-02 0.95346755E+02</pdfrwt>
<totfact> 0.58774348E+05</totfact>
</mgrwt>
</event>
<event>
 5    1  0.1696945E+000  0.8986289E+02  0.7546771E-02  0.1303184E+00
         21   -1    0    0  503  502  0.00000000000E+00  0.00000000000E+00  0.10314230485E+03  0.10314230485E+03  0.00000000000E+00 0.  1.
         21   -1    0    0  501  503 -0.00000000000E+00 -0.00000000000E+00 -0.97742451931E+02  0.97742451931E+02  0.00000000000E+00 0. -1.
         24    1    1    2    0    0 -0.32405722240E+02  0.23921887006E+02  0.45827893387E+02  0.10094453565E+03  0.80419002446E+02 0.  1.
          1    1    1    2  501    0  0.51202159648E+02 -0.40058750213E+02 -0.37352033828E+02  0.74976923465E+02  0.00000000000E+00 0. -1.
         -2    1    1    2    0  502 -0.18796437408E+02  0.16136863206E+02 -0.30760066381E+01  0.24963297663E+02  0.00000000000E+00 0.  1.
<mgrwt>
<rscale>  2 0.89862889E+02</rscale>
<asrwt>0</asrwt>
<pdfrwt beam="1">  1       21 0.15868047E-01 0.89862889E+02</pdfrwt>
<pdfrwt beam="2">  1       21 0.15037300E-01 0.89862889E+02</pdfrwt>
<totfact> 0.13680161E+06</totfact>
</mgrwt>
</event>
<event>
 5    1  0.1696945E+000  0.1099957E+03  0.7546771E-02  0.1260578E+00
         21   -1    0    0  501  502  0.00000000000E+00  0.00000000000E+00  0.42050293404E+03  0.42050293404E+03  0.00000000000E+00 0.  1.
         21   -1    0    0  502  503 -0.00000000000E+00 -0.00000000000E+00 -0.57279042369E+02  0.57279042369E+02  0.00000000000E+00 0.  1.
         24    1    1    2    0    0  0.50325478770E+02 -0.69322867287E+02  0.22270253683E+03  0.25179743765E+03  0.80419002446E+02 0.  1.
          1    1    1    2  501    0 -0.34452114209E+02  0.33222870715E+01  0.15308508643E+03  0.15694913014E+03  0.00000000000E+00 0. -1.
         -2    1    1    2    0  503 -0.15873364561E+02  0.66000580215E+02 -0.12563731591E+02  0.69035408615E+02  0.00000000000E+00 0.  1.
<mgrwt>
<rscale>  2 0.10999571E+03</rscale>
<asrwt>0</asrwt>
<pdfrwt beam="1">  1       21 0.64692757E-01 0.10999571E+03</pdfrwt>
<pdfrwt beam="2">  1       21 0.88121606E-02 0.10999571E+03</pdfrwt>
<totfact> 0.22820487E+05</totfact>
</mgrwt>
</event>
<event>
 5    1  0.1696945E+000  0.7938264E+02  0.7546771E-02  0.1330813E+00
         21   -1    0    0  501  502  0.00000000000E+00  0.00000000000E+00  0.28162571748E+03  0.28162571748E+03  0.00000000000E+00 0. -1.
         21   -1    0    0  502  503 -0.00000000000E+00 -0.00000000000E+00 -0.34678050684E+02  0.34678050684E+02  0.00000000000E+00 0. -1.
         24    1    1    2    0    0  0.32825574376E+02  0.72044169058E+01  0.46592796302E+02  0.98830797719E+02  0.80419002446E+02 0. -1.
          1    1    1    2  501    0 -0.49664768964E+02  0.62446372030E+01  0.18323709321E+03  0.18995109133E+03  0.00000000000E+00 0. -1.
         -2    1    1    2    0  503  0.16839194588E+02 -0.13449054109E+02  0.17117777284E+02  0.27521879113E+02  0.00000000000E+00 0.  1.
<mgrwt>
<rscale>  2 0.79382638E+02</rscale>
<asrwt>0</asrwt>
<pdfrwt beam="1">  1       21 0.43327032E-01 0.79382638E+02</pdfrwt>
<pdfrwt beam="2">  1       21 0.53350849E-02 0.79382638E+02</pdfrwt>
<totfact> 0.12222070E+06</totfact>
</mgrwt>
</event>
<event>
 5    1  0.1696945E+000  0.8447211E+02  0.7546771E-02  0.1316819E+00
         21   -1    0    0  503  502  0.00000000000E+00  0.00000000000E+00  0.96791511844E+03  0.96791511844E+03  0.00000000000E+00 0.  1.
         21   -1    0    0  501  503 -0.00000000000E+00 -0.00000000000E+00 -0.13734712999E+02  0.13734712999E+02  0.00000000000E+00 0. -1.
         24    1    1    2    0    0 -0.58343044653E+02 -0.19302633998E+02  0.84652555917E+03  0.85255453833E+03  0.80419002446E+02 0.  1.
          1    1    1    2  501    0  0.21808901619E+02  0.22154371489E+02  0.29877277109E+02  0.43117236151E+02  0.00000000000E+00 0. -1.
         -2    1    1    2    0  502  0.36534143034E+02 -0.28517374909E+01  0.77777569163E+02  0.85978056961E+02  0.00000000000E+00 0.  1.
<mgrwt>
<rscale>  2 0.84472109E+02</rscale>
<asrwt>0</asrwt>
<pdfrwt beam="1">  1       21 0.14890996E+00 0.84472109E+02</pdfrwt>
<pdfrwt beam="2">  1       21 0.21130335E-02 0.84472109E+02</pdfrwt>
<totfact> 0.35529977E+05</totfact>
</mgrwt>
</event>
<event>
 5    1  0.1696945E+000  0.9372439E+02  0.7546771E-02  0.1294075E+00
         21   -1    0    0  501  502  0.00000000000E+00  0.00000000000E+00  0.90593546784E+02  0.90593546784E+02  0.00000000000E+00 0. -1.
         21   -1    0    0  502  503 -0.00000000000E+00 -0.00000000000E+00 -0.22180610132E+03  0.22180610132E+03  0.00000000000E+00 0.  1.
         24    1    1    2    0    0 -0.35052036683E+02  0.11366233263E+01  0.40725767587E+01  0.87827894339E+02  0.80419002446E+02 0. -1.
          1    1    1    2  501    0  0.20526299973E+01 -0.44876592008E+02  0.27595526584E+02  0.52722242817E+02  0.00000000000E+00 0. -1.
         -2    1    1    2    0  503  0.32999406686E+02  0.43739968682E+02 -0.16288065788E+03  0.17184951095E+03  0.00000000000E+00 0.  1.
<mgrwt>
<rscale>  2 0.93724386E+02</rscale>
<asrwt>0</asrwt>
<pdfrwt beam="1">  1       21 0.13937469E-01 0.93724386E+02</pdfrwt>
<pdfrwt beam="2">  1       21 0.34124016E-01 0.93724386E+02</pdfrwt>
<totfact> 0.37672402E+05</totfact>
</mgrwt>
</event>
<event>
 5    1  0.1696945E+000  0.1705043E+03  0.7546771E-02  0.1177323E+00
         21   -1    0    0  503  502  0.00000000000E+00  0.00000000000E+00  0.47780352781E+02  0.47780352781E+02  0.00000000000E+00 0.  1.
         21   -1    0    0  501  503 -0.00000000000E+00 -0.00000000000E+00 -0.77191243842E+03  0.77191243842E+03  0.00000000000E+00 0. -1.
         24    1    1    2    0    0  0.25403949488E+02  0.57993718909E+02 -0.10657393198E+03  0.14776282014E+03  0.80419002446E+02 0.  1.
          1    1    1    2  501    0  0.82847000604E+02 -0.93319037104E+02 -0.46565695401E+03  0.48208761342E+03  0.00000000000E+00 0. -1.
         -2    1    1    2    0  502 -0.10825095009E+03  0.35325318195E+02 -0.15190119965E+03  0.18984235764E+03  0.00000000000E+00 0.  1.
<mgrwt>
<rscale>  2 0.17050434E+03</rscale>
<asrwt>0</asrwt>
<pdfrwt beam="1">  1       21 0.73508244E-02 0.17050434E+03</pdfrwt>
<pdfrwt beam="2">  1       21 0.11875575E+00 0.17050434E+03</pdfrwt>
<totfact> 0.76121074E+04</totfact>
</mgrwt>
</event>
<event>
 5    1  0.1696945E+000  0.1032233E+03  0.7546771E-02  0.1273660E+00
         21   -1    0    0  503  502  0.00000000000E+00  0.00000000000E+00  0.20022265728E+03  0.20022265728E+03  0.00000000000E+00 0.  1.
         21   -1    0    0  501  503 -0.00000000000E+00 -0.00000000000E+00 -0.99918234600E+02  0.99918234600E+02  0.00000000000E+00 0. -1.
         24    1    1    2    0    0 -0.61225474573E+02  0.27974753058E+02  0.10495143815E+03  0.14836834524E+03  0.80419002446E+02 0.  1.
          1    1    1    2  501    0 -0.17645973887E+02 -0.11313829812E+02 -0.53536513956E+02  0.57493838505E+02  0.00000000000E+00 0. -1.
         -2    1    1    2    0  502  0.78871448460E+02 -0.16660923246E+02  0.48889498493E+02  0.94278708140E+02  0.00000000000E+00 0.  1.
<mgrwt>
<rscale>  2 0.10322326E+03</rscale>
<asrwt>0</asrwt>
<pdfrwt beam="1">  1       21 0.30803486E-01 0.10322326E+03</pdfrwt>
<pdfrwt beam="2">  1       21 0.15372036E-01 0.10322326E+03</pdfrwt>
<totfact> 0.38498198E+05</totfact>
</mgrwt>
</event>
<event>
 5    1  0.1696945E+000  0.7300781E+02  0.7546771E-02  0.1350154E+00
         21   -1    0    0  501  502  0.00000000000E+00  0.00000000000E+00  0.32308378064E+03  0.32308378064E+03  0.00000000000E+00 0.  1.
         21   -1    0    0  502  503 -0.00000000000E+00 -0.00000000000E+00 -0.26996639988E+02  0.26996639988E+02  0.00000000000E+00 0.  1.
         24    1    1    2    0    0  0.15664813648E+02 -0.31353077525E+02  0.59759245806E+02  0.10614511421E+03  0.80419002446E+02 0.  1.
          1    1    1    2  501    0  0.88676233905E+01  0.32543134315E+02  0.16734339147E+03  0.17070881935E+03  0.00000000000E+00 0. -1.
         -2    1    1    2    0  503 -0.24532437038E+02 -0.11900567901E+01  0.68984503379E+02  0.73226487070E+02  0.00000000000E+00 0.  1.
<mgrwt>
<rscale>  2 0.73007810E+02</rscale>
<asrwt>0</asrwt>
<pdfrwt beam="1">  1       21 0.49705194E-01 0.73007810E+02</pdfrwt>
<pdfrwt beam="2">  1       21 0.41533295E-02 0.73007810E+02</pdfrwt>
<totfact> 0.13989917E+06</totfact>
</mgrwt>
</event>
<event>
 5    1  0.1696945E+000  0.9177459E+02  0.7546771E-02  0.1298610E+00
         21   -1    0    0  501  502  0.00000000000E+00  0.00000000000E+00  0.39616041174E+02  0.39616041174E+02  0.00000000000E+00 0. -1.
         21   -1    0    0  502  503 -0.00000000000E+00 -0.00000000000E+00 -0.65451155144E+03  0.65451155144E+03  0.00000000000E+00 0.  1.
         24    1    1    2    0    0  0.19138919449E+02 -0.63768770333E+02 -0.41623592357E+03  0.42912971737E+03  0.80419002446E+02 0.  1.
          1    1    1    2  501    0  0.13775051312E+02  0.15668204577E+02  0.25751340930E+02  0.33141759655E+02  0.00000000000E+00 0. -1.
         -2    1    1    2    0  503 -0.32913970761E+02  0.48100565755E+02 -0.22441092762E+03  0.23185611559E+03  0.00000000000E+00 0.  1.
<mgrwt>
<rscale>  2 0.91774589E+02</rscale>
<asrwt>0</asrwt>
<pdfrwt beam="1">  1       21 0.60947759E-02 0.91774589E+02</pdfrwt>
<pdfrwt beam="2">  1       21 0.10069408E+00 0.91774589E+02</pdfrwt>
<totfact> 0.16098237E+05</totfact>
</mgrwt>
</event>
<event>
 5    1  0.1696945E+000  0.6812845E+02  0.7546771E-02  0.1366576E+00
         21   -1    0    0  501  502  0.00000000000E+00  0.00000000000E+00  0.17239438883E+04  0.17239438883E+04  0.00000000000E+00 0. -1.
         21   -1    0    0  502  503 -0.00000000000E+00 -0.00000000000E+00 -0.11666620003E+02  0.11666620003E+02  0.00000000000E+00 0. -1.
         24    1    1    2    0    0 -0.97297105073E+01 -0.36332024605E+02  0.22268670852E+03  0.23973166121E+03  0.80419002446E+02 0. -1.
          1    1    1    2  501    0 -0.91243424026E+01  0.21926865668E+02  0.14464404476E+04  0.14466354100E+04  0.00000000000E+00 0. -1.
         -2    1    1    2    0  503  0.18854052910E+02  0.14405158937E+02  0.43150112212E+02  0.49243437116E+02  0.00000000000E+00 0.  1.
<mgrwt>
<rscale>  2 0.68128446E+02</rscale>
<asrwt>0</asrwt>
<pdfrwt beam="1">  1       21 0.26522193E+00 0.68128446E+02</pdfrwt>
<pdfrwt beam="2">  1       21 0.17948660E-02 0.68128446E+02</pdfrwt>
<totfact> 0.90871974E+04</totfact>
</mgrwt>
</event>
<event>
 5    1  0.1696945E+000  0.7558262E+02  0.7546771E-02  0.1342076E+00
         21   -1    0    0  503  502  0.00000000000E+00  0.00000000000E+00  0.99258701904E+03  0.99258701904E+03  0.00000000000E+00 0.  1.
         21   -1    0    0  501  503 -0.00000000000E+00 -0.00000000000E+00 -0.43182990115E+02  0.43182990115E+02  0.00000000000E+00 0. -1.
         24    1    1    2    0    0  0.32044174242E+02  0.36799462298E+02  0.28184842143E+03  0.29713091079E+03  0.80419002446E+02 0.  0.
          1    1    1    2  501    0 -0.31701842918E+02 -0.14607264201E+02 -0.26751386296E+02  0.43977445134E+02  0.00000000000E+00 0. -1.
         -2    1    1    2    0  502 -0.34233132408E+00 -0.22192198097E+02  0.69430699379E+03  0.69466165323E+03  0.00000000000E+00 0.  1.
<mgrwt>
<rscale>  2 0.75582619E+02</rscale>
<asrwt>0</asrwt>
<pdfrwt beam="1">  1       21 0.15270568E+00 0.75582619E+02</pdfrwt>
<pdfrwt beam="2">  1       21 0.66435377E-02 0.75582619E+02</pdfrwt>
<totfact> 0.51381539E+04</totfact>
</mgrwt>
</event>
<event>
 5    1  0.2588114E+000  0.1730820E+03  0.7546771E-02  0.1174671E+00
         21   -1    0    0  503  502  0.00000000000E+00  0.00000000000E+00  0.11911037407E+03  0.11911037407E+03  0.00000000000E+00 0.  1.
         21   -1    0    0  501  503 -0.00000000000E+00 -0.00000000000E+00 -0.58076694484E+03  0.58076694484E+03  0.00000000000E+00 0. -1.
         24    1    1    2    0    0 -0.15853510851E+03 -0.34394177399E+02  0.22122513518E+02  0.18240877618E+03  0.80419002446E+02 0.  1.
          1    1    1    2  501    0  0.11528857137E+03  0.38773440275E+02 -0.43699783289E+03  0.45360989883E+03  0.00000000000E+00 0. -1.
         -2    1    1    2    0  502  0.43246537138E+02 -0.43792628761E+01 -0.46781251396E+02  0.63858643894E+02  0.00000000000E+00 0.  1.
<mgrwt>
<rscale>  2 0.17308201E+03</rscale>
<asrwt>0</asrwt>
<pdfrwt beam="1">  1       21 0.18324673E-01 0.17308201E+03</pdfrwt>
<pdfrwt beam="2">  1       21 0.89348762E-01 0.17308201E+03</pdfrwt>
<totfact> 0.29344534E+04</totfact>
</mgrwt>
</event>
<event>
 5    1  0.1696945E+000  0.7773575E+02  0.7546771E-02  0.1335603E+00
         21   -1    0    0  503  502  0.00000000000E+00  0.00000000000E+00  0.29299121666E+03  0.29299121666E+03  0.00000000000E+00 0.  1.
         21   -1    0    0  501  503 -0.00000000000E+00 -0.00000000000E+00 -0.57992913309E+02  0.57992913309E+02  0.00000000000E+00 0.  1.
         24    1    1    2    0    0 -0.99213585957E+01  0.54268703693E+02  0.37664047073E+01  0.97595734106E+02  0.80419002446E+02 0.  1.
          1    1    1    2  501    0 -0.48228652075E+01 -0.21200425151E+02  0.25880128511E+01  0.21895567266E+02  0.00000000000E+00 0. -1.
         -2    1    1    2    0  502  0.14744223803E+02 -0.33068278542E+02  0.22864388580E+03  0.23149282860E+03  0.00000000000E+00 0.  1.
<mgrwt>
<rscale>  2 0.77735754E+02</rscale>
<asrwt>0</asrwt>
<pdfrwt beam="1">  1       21 0.45075571E-01 0.77735754E+02</pdfrwt>
<pdfrwt beam="2">  1       21 0.89219868E-02 0.77735754E+02</pdfrwt>
<totfact> 0.47415336E+05</totfact>
</mgrwt>
</event>
<event>
 5    1  0.1696945E+000  0.9766828E+02  0.7546771E-02  0.1285277E+00
         21   -1    0    0  501  502  0.00000000000E+00  0.00000000000E+00  0.10846599901E+03  0.10846599901E+03  0.00000000000E+00 0.  1.
         21   -1    0    0  502  503 -0.00000000000E+00 -0.00000000000E+00 -0.21671791955E+03  0.21671791955E+03  0.00000000000E+00 0.  1.
         24    1    1    2    0    0 -0.12121949184E+02 -0.78351343396E+02  0.44663458073E+02  0.12144099434E+03  0.80419002446E+02 0.  1.
          1    1    1    2  501    0  0.14089163138E+02  0.22673735675E+02  0.12296302743E+02  0.29390506436E+02  0.00000000000E+00 0. -1.
         -2    1    1    2    0  503 -0.19672139544E+01  0.55677607721E+02 -0.16521168136E+03  0.17435241779E+03  0.00000000000E+00 0.  1.
<mgrwt>
<rscale>  2 0.97668277E+02</rscale>
<asrwt>0</asrwt>
<pdfrwt beam="1">  1       21 0.16687077E-01 0.97668277E+02</pdfrwt>
<pdfrwt beam="2">  1       21 0.33341218E-01 0.97668277E+02</pdfrwt>
<totfact> 0.28527622E+05</totfact>
</mgrwt>
</event>
<event>
 5    1  0.1696945E+000  0.7808609E+02  0.7546771E-02  0.1334572E+00
         21   -1    0    0  503  502  0.00000000000E+00  0.00000000000E+00  0.34080983594E+02  0.34080983594E+02  0.00000000000E+00 0. -1.
         21   -1    0    0  501  503 -0.00000000000E+00 -0.00000000000E+00 -0.23964957546E+03  0.23964957546E+03  0.00000000000E+00 0.  1.
         24    1    1    2    0    0  0.27651142679E+02 -0.50202166741E+01 -0.10807864195E+03  0.13761539546E+03  0.80419002446E+02 0.  1.
          1    1    1    2  501    0 -0.47269118416E+02  0.14155931999E+02 -0.10262696233E+03  0.11387297029E+03  0.00000000000E+00 0. -1.
         -2    1    1    2    0  502  0.19617975738E+02 -0.91357153253E+01  0.51370124095E+01  0.22242193306E+02  0.00000000000E+00 0.  1.
<mgrwt>
<rscale>  2 0.78086093E+02</rscale>
<asrwt>0</asrwt>
<pdfrwt beam="1">  1       21 0.52432284E-02 0.78086093E+02</pdfrwt>
<pdfrwt beam="2">  1       21 0.36869164E-01 0.78086093E+02</pdfrwt>
<totfact> 0.17281896E+06</totfact>
</mgrwt>
</event>
<event>
 5    1  0.1696945E+000  0.7876687E+02  0.7546771E-02  0.1332588E+00
         21   -1    0    0  501  502  0.00000000000E+00  0.00000000000E+00  0.88828296904E+02  0.88828296904E+02  0.00000000000E+00 0. -1.
         21   -1    0    0  502  503 -0.00000000000E+00 -0.00000000000E+00 -0.10186671713E+03  0.10186671713E+03  0.00000000000E+00 0. -1.
         24    1    1    2    0    0  0.16608578093E+01 -0.46409832223E+02 -0.48921518552E+02  0.10496266911E+03  0.80419002446E+02 0. -1.
          1    1    1    2  501    0 -0.21057612238E+02  0.38172969797E+02  0.45104649273E+02  0.62729801868E+02  0.00000000000E+00 0. -1.
         -2    1    1    2    0  503  0.19396754429E+02  0.82368624255E+01 -0.92215509473E+01  0.23002543052E+02  0.00000000000E+00 0.  1.
<mgrwt>
<rscale>  2 0.78766866E+02</rscale>
<asrwt>0</asrwt>
<pdfrwt beam="1">  1       21 0.13665892E-01 0.78766866E+02</pdfrwt>
<pdfrwt beam="2">  1       21 0.15671803E-01 0.78766866E+02</pdfrwt>
<totfact> 0.16501739E+06</totfact>
</mgrwt>
</event>
<event>
 5    1  0.1696945E+000  0.7418518E+02  0.7546771E-02  0.1346413E+00
         21   -1    0    0  501  502  0.00000000000E+00  0.00000000000E+00  0.16840929795E+03  0.16840929795E+03  0.00000000000E+00 0. -1.
         21   -1    0    0  502  503 -0.00000000000E+00 -0.00000000000E+00 -0.40000645149E+02  0.40000645149E+02  0.00000000000E+00 0. -1.
         24    1    1    2    0    0  0.32260995707E+02  0.30272389782E+02  0.11989822187E+03  0.15099665225E+03  0.80419002446E+02 0. -1.
          1    1    1    2  501    0 -0.44471477997E+01 -0.28359698899E+02  0.66830280876E+01  0.29473929321E+02  0.00000000000E+00 0. -1.
         -2    1    1    2    0  503 -0.27813847908E+02 -0.19126908832E+01  0.18274028433E+01  0.27939361535E+02  0.00000000000E+00 0.  1.
<mgrwt>
<rscale>  2 0.74185180E+02</rscale>
<asrwt>0</asrwt>
<pdfrwt beam="1">  1       21 0.25909122E-01 0.74185180E+02</pdfrwt>
<pdfrwt beam="2">  1       21 0.61539455E-02 0.74185180E+02</pdfrwt>
<totfact> 0.25869066E+06</totfact>
</mgrwt>
</event>
<event>
 5    1  0.1696945E+000  0.7207453E+02  0.7546771E-02  0.1353177E+00
         21   -1    0    0  503  502  0.00000000000E+00  0.00000000000E+00  0.71784786714E+03  0.71784786714E+03  0.00000000000E+00 0.  1.
         21   -1    0    0  501  503 -0.00000000000E+00 -0.00000000000E+00 -0.84315418904E+01  0.84315418904E+01  0.00000000000E+00 0.  1.
         24    1    1    2    0    0  0.24507405008E+02 -0.28834519604E+02  0.42343400906E+03  0.43266108954E+03  0.80419002446E+02 0.  1.
          1    1    1    2  501    0 -0.33514363981E+02  0.10968999195E+02  0.90704598401E+02  0.97318321541E+02  0.00000000000E+00 0. -1.
         -2    1    1    2    0  502  0.90069589735E+01  0.17865520410E+02  0.19527771779E+03  0.19629999795E+03  0.00000000000E+00 0.  1.
<mgrwt>
<rscale>  2 0.72074533E+02</rscale>
<asrwt>0</asrwt>
<pdfrwt beam="1">  1       21 0.11043809E+00 0.72074533E+02</pdfrwt>
<pdfrwt beam="2">  1       21 0.12971609E-02 0.72074533E+02</pdfrwt>
<totfact> 0.15925992E+06</totfact>
</mgrwt>
</event>
<event>
 5    1  0.1696945E+000  0.8098072E+02  0.7546771E-02  0.1326291E+00
         21   -1    0    0  501  502  0.00000000000E+00  0.00000000000E+00  0.34504850637E+03  0.34504850637E+03  0.00000000000E+00 0.  1.
         21   -1    0    0  502  503 -0.00000000000E+00 -0.00000000000E+00 -0.20394918044E+02  0.20394918044E+02  0.00000000000E+00 0.  1.
         24    1    1    2    0    0  0.40014195941E+02 -0.46058281182E+02  0.22385639551E+03  0.24556343968E+03  0.80419002446E+02 0.  1.
          1    1    1    2  501    0 -0.19204013240E+02  0.22700526909E+02  0.69666383459E+02  0.75746373053E+02  0.00000000000E+00 0. -1.
         -2    1    1    2    0  503 -0.20810182701E+02  0.23357754273E+02  0.31130809357E+02  0.44133611680E+02  0.00000000000E+00 0.  1.
<mgrwt>
<rscale>  2 0.80980720E+02</rscale>
<asrwt>0</asrwt>
<pdfrwt beam="1">  1       21 0.53084381E-01 0.80980720E+02</pdfrwt>
<pdfrwt beam="2">  1       21 0.31376800E-02 0.80980720E+02</pdfrwt>
<totfact> 0.19401655E+06</totfact>
</mgrwt>
</event>
<event>
 5    1  0.1696945E+000  0.1394653E+03  0.7546771E-02  0.1214050E+00
         21   -1    0    0  503  502  0.00000000000E+00  0.00000000000E+00  0.11959822497E+03  0.11959822497E+03  0.00000000000E+00 0.  1.
         21   -1    0    0  501  503 -0.00000000000E+00 -0.00000000000E+00 -0.18099139318E+03  0.18099139318E+03  0.00000000000E+00 0.  1.
         24    1    1    2    0    0  0.22041222177E+02  0.12493477453E+03 -0.11371853824E+00  0.15020566650E+03  0.80419002446E+02 0.  1.
          1    1    1    2  501    0  0.44323746927E+01 -0.21862220316E+02 -0.33762021455E+02  0.40465747433E+02  0.00000000000E+00 0. -1.
         -2    1    1    2    0  502 -0.26473596870E+02 -0.10307255421E+03 -0.27517428217E+02  0.10991820422E+03  0.00000000000E+00 0.  1.
<mgrwt>
<rscale>  2 0.13946534E+03</rscale>
<asrwt>0</asrwt>
<pdfrwt beam="1">  1       21 0.18399727E-01 0.13946534E+03</pdfrwt>
<pdfrwt beam="2">  1       21 0.27844830E-01 0.13946534E+03</pdfrwt>
<totfact> 0.33544926E+05</totfact>
</mgrwt>
</event>
<event>
 5    1  0.1696945E+000  0.1020634E+03  0.7546771E-02  0.1276016E+00
         21   -1    0    0  503  502  0.00000000000E+00  0.00000000000E+00  0.40781402444E+02  0.40781402444E+02  0.00000000000E+00 0. -1.
         21   -1    0    0  501  503 -0.00000000000E+00 -0.00000000000E+00 -0.30790986919E+03  0.30790986919E+03  0.00000000000E+00 0. -1.
         24    1    1    2    0    0 -0.74385274254E+01 -0.65214758149E+02 -0.16996754984E+03  0.19915943443E+03  0.80419002446E+02 0. -1.
          1    1    1    2  501    0 -0.25473108513E+02  0.62269810257E+02 -0.95010127836E+02  0.11641878250E+03  0.00000000000E+00 0. -1.
         -2    1    1    2    0  502  0.32911635939E+02  0.29449478911E+01 -0.21507890711E+01  0.33113054705E+02  0.00000000000E+00 0.  1.
<mgrwt>
<rscale>  2 0.10206344E+03</rscale>
<asrwt>0</asrwt>
<pdfrwt beam="1">  1       21 0.62740618E-02 0.10206344E+03</pdfrwt>
<pdfrwt beam="2">  1       21 0.47370750E-01 0.10206344E+03</pdfrwt>
<totfact> 0.78141522E+05</totfact>
</mgrwt>
</event>
<event>
 5    1  0.1696945E+000  0.1124780E+03  0.7546771E-02  0.1256049E+00
         21   -1    0    0  503  502  0.00000000000E+00  0.00000000000E+00  0.27487894757E+03  0.27487894757E+03  0.00000000000E+00 0.  1.
         21   -1    0    0  501  503 -0.00000000000E+00 -0.00000000000E+00 -0.93896247589E+02  0.93896247589E+02  0.00000000000E+00 0.  1.
         24    1    1    2    0    0 -0.80696084413E+01  0.76925676405E+02  0.40429970142E+02  0.11867803803E+03  0.80419002446E+02 0.  1.
          1    1    1    2  501    0 -0.23248040573E+02  0.66051423308E+01 -0.41124018706E+02  0.47699939311E+02  0.00000000000E+00 0. -1.
         -2    1    1    2    0  502  0.31317649015E+02 -0.83530818736E+02  0.18167674854E+03  0.20239721782E+03  0.00000000000E+00 0.  1.
<mgrwt>
<rscale>  2 0.11247797E+03</rscale>
<asrwt>0</asrwt>
<pdfrwt beam="1">  1       21 0.42289068E-01 0.11247797E+03</pdfrwt>
<pdfrwt beam="2">  1       21 0.14445577E-01 0.11247797E+03</pdfrwt>
<totfact> 0.23065158E+05</totfact>
</mgrwt>
</event>
<event>
 5    1  0.1696945E+000  0.1001132E+03  0.7546771E-02  0.1280058E+00
         21   -1    0    0  503  502  0.00000000000E+00  0.00000000000E+00  0.12057157896E+03  0.12057157896E+03  0.00000000000E+00 0. -1.
         21   -1    0    0  501  503 -0.00000000000E+00 -0.00000000000E+00 -0.22287389254E+03  0.22287389254E+03  0.00000000000E+00 0. -1.
         24    1    1    2    0    0  0.49593079871E+02  0.24035643903E+02  0.72190642496E+02  0.12130907042E+03  0.80419002446E+02 0. -1.
          1    1    1    2  501    0 -0.32687772026E+02 -0.56989659991E+02 -0.17301587140E+03  0.18506972617E+03  0.00000000000E+00 0. -1.
         -2    1    1    2    0  502 -0.16905307845E+02  0.32954016088E+02 -0.14770846688E+01  0.37066674909E+02  0.00000000000E+00 0.  1.
<mgrwt>
<rscale>  2 0.10011320E+03</rscale>
<asrwt>0</asrwt>
<pdfrwt beam="1">  1       21 0.18549474E-01 0.10011320E+03</pdfrwt>
<pdfrwt beam="2">  1       21 0.34288291E-01 0.10011320E+03</pdfrwt>
<totfact> 0.22287477E+05</totfact>
</mgrwt>
</event>
<event>
 5    1  0.1696945E+000  0.1504950E+03  0.7546771E-02  0.1199866E+00
         21   -1    0    0  503  502  0.00000000000E+00  0.00000000000E+00  0.24227173799E+03  0.24227173799E+03  0.00000000000E+00 0.  1.
         21   -1    0    0  501  503 -0.00000000000E+00 -0.00000000000E+00 -0.11528707828E+03  0.11528707828E+03  0.00000000000E+00 0.  1.
         24    1    1    2    0    0  0.92664644611E+02 -0.68152494417E+02  0.13437000469E+03  0.19430391908E+03  0.80419002446E+02 0.  1.
          1    1    1    2  501    0  0.18209947976E+02 -0.13729043289E+02 -0.11119671376E+02  0.25371951569E+02  0.00000000000E+00 0. -1.
         -2    1    1    2    0  502 -0.11087459259E+03  0.81881537706E+02  0.37343263947E+01  0.13788294562E+03  0.00000000000E+00 0.  1.
<mgrwt>
<rscale>  2 0.15049497E+03</rscale>
<asrwt>0</asrwt>
<pdfrwt beam="1">  1       21 0.37272575E-01 0.15049497E+03</pdfrwt>
<pdfrwt beam="2">  1       21 0.17736474E-01 0.15049497E+03</pdfrwt>
<totfact> 0.20268002E+05</totfact>
</mgrwt>
</event>
<event>
 5    1  0.1696945E+000  0.7272620E+02  0.7546771E-02  0.1351060E+00
         21   -1    0    0  503  502  0.00000000000E+00  0.00000000000E+00  0.90140343929E+02  0.90140343929E+02  0.00000000000E+00 0. -1.
         21   -1    0    0  501  503 -0.00000000000E+00 -0.00000000000E+00 -0.10825946471E+03  0.10825946471E+03  0.00000000000E+00 0.  1.
         24    1    1    2    0    0 -0.26620674055E+02 -0.38621767738E+02  0.55212143308E+02  0.10824000163E+03  0.80419002446E+02 0. -1.
          1    1    1    2  501    0  0.20182073895E+02  0.91028712069E+01 -0.28282772375E+02  0.35917872768E+02  0.00000000000E+00 0. -1.
         -2    1    1    2    0  502  0.64386001596E+01  0.29518896531E+02 -0.45048491712E+02  0.54241934238E+02  0.00000000000E+00 0.  1.
<mgrwt>
<rscale>  2 0.72726199E+02</rscale>
<asrwt>0</asrwt>
<pdfrwt beam="1">  1       21 0.13867745E-01 0.72726199E+02</pdfrwt>
<pdfrwt beam="2">  1       21 0.16655302E-01 0.72726199E+02</pdfrwt>
<totfact> 0.14378885E+06</totfact>
</mgrwt>
</event>
<event>
 5    1  0.1696945E+000  0.1070418E+03  0.7546771E-02  0.1266148E+00
         21   -1    0    0  503  502  0.00000000000E+00  0.00000000000E+00  0.13491690382E+04  0.13491690382E+04  0.00000000000E+00 0.  1.
         21   -1    0    0  501  503 -0.00000000000E+00 -0.00000000000E+00 -0.10830746924E+04  0.10830746924E+04  0.00000000000E+00 0. -1.
         24    1    1    2    0    0 -0.30681633405E+02  0.43940466564E+01  0.86527899715E+03  0.86956059544E+03  0.80419002446E+02 0.  0.
          1    1    1    2  501    0 -0.47958891840E+02  0.68943407768E+01 -0.10771101422E+04  0.10781993534E+04  0.00000000000E+00 0. -1.
         -2    1    1    2    0  502  0.78640525245E+02 -0.11288387433E+02  0.47792549094E+03  0.48448378176E+03  0.00000000000E+00 0.  1.
<mgrwt>
<rscale>  2 0.10704184E+03</rscale>
<asrwt>0</asrwt>
<pdfrwt beam="1">  1       21 0.20756447E+00 0.10704184E+03</pdfrwt>
<pdfrwt beam="2">  1       21 0.16662688E+00 0.10704184E+03</pdfrwt>
<totfact> 0.32787150E+01</totfact>
</mgrwt>
</event>
<event>
 5    1  0.1696945E+000  0.8973144E+02  0.7546771E-02  0.1303503E+00
         21   -1    0    0  503  502  0.00000000000E+00  0.00000000000E+00  0.16867518881E+02  0.16867518881E+02  0.00000000000E+00 0. -1.
         21   -1    0    0  501  503 -0.00000000000E+00 -0.00000000000E+00 -0.66522354843E+03  0.66522354843E+03  0.00000000000E+00 0. -1.
         24    1    1    2    0    0  0.25972903249E+02  0.63998393734E+02 -0.46882022283E+03  0.48065580553E+03  0.80419002446E+02 0. -1.
          1    1    1    2  501    0 -0.34569062200E+01 -0.41436398176E+02 -0.15696293368E+03  0.16237699296E+03  0.00000000000E+00 0. -1.
         -2    1    1    2    0  502 -0.22515997029E+02 -0.22561995558E+02 -0.22572873044E+02  0.39058268820E+02  0.00000000000E+00 0.  1.
<mgrwt>
<rscale>  2 0.89731437E+02</rscale>
<asrwt>0</asrwt>
<pdfrwt beam="1">  1       21 0.25950024E-02 0.89731437E+02</pdfrwt>
<pdfrwt beam="2">  1       21 0.10234211E+00 0.89731437E+02</pdfrwt>
<totfact> 0.63292680E+05</totfact>
</mgrwt>
</event>
<event>
 5    1  0.1696945E+000  0.1160822E+03  0.7546771E-02  0.1249704E+00
         21   -1    0    0  501  502  0.00000000000E+00  0.00000000000E+00  0.13628830639E+03  0.13628830639E+03  0.00000000000E+00 0. -1.
         21   -1    0    0  502  503 -0.00000000000E+00 -0.00000000000E+00 -0.59562640247E+03  0.59562640247E+03  0.00000000000E+00 0.  1.
         24    1    1    2    0    0 -0.48613597860E+02 -0.28225361679E+02 -0.28304811088E+03  0.29957203134E+03  0.80419002446E+02 0.  0.
          1    1    1    2  501    0  0.18243348797E+02  0.75601533384E+02  0.11325112695E+03  0.13738351204E+03  0.00000000000E+00 0. -1.
         -2    1    1    2    0  503  0.30370249063E+02 -0.47376171705E+02 -0.28954111216E+03  0.29495916548E+03  0.00000000000E+00 0.  1.
<mgrwt>
<rscale>  2 0.11608224E+03</rscale>
<asrwt>0</asrwt>
<pdfrwt beam="1">  1       21 0.20967432E-01 0.11608224E+03</pdfrwt>
<pdfrwt beam="2">  1       21 0.91634830E-01 0.11608224E+03</pdfrwt>
<totfact> 0.22420846E+04</totfact>
</mgrwt>
</event>
<event>
 5    1  0.1696945E+000  0.7557368E+02  0.7546771E-02  0.1342104E+00
         21   -1    0    0  501  502  0.00000000000E+00  0.00000000000E+00  0.77251643932E+01  0.77251643932E+01  0.00000000000E+00 0.  1.
         21   -1    0    0  502  503 -0.00000000000E+00 -0.00000000000E+00 -0.17228339859E+04  0.17228339859E+04  0.00000000000E+00 0.  1.
         24    1    1    2    0    0  0.67831160588E+01  0.36426461888E+02 -0.14114068572E+04  0.14141815408E+04  0.80419002446E+02 0.  1.
          1    1    1    2  501    0 -0.20788163394E+02  0.27771558420E+01 -0.17939341337E+02  0.27598556112E+02  0.00000000000E+00 0. -1.
         -2    1    1    2    0  503  0.14005047335E+02 -0.39203617730E+02 -0.28576262293E+03  0.28877905336E+03  0.00000000000E+00 0.  1.
<mgrwt>
<rscale>  2 0.75573681E+02</rscale>
<asrwt>0</asrwt>
<pdfrwt beam="1">  1       21 0.11884855E-02 0.75573681E+02</pdfrwt>
<pdfrwt beam="2">  1       21 0.26505168E+00 0.75573681E+02</pdfrwt>
<totfact> 0.17208045E+05</totfact>
</mgrwt>
</event>
<event>
 5    1  0.1696945E+000  0.9072506E+02  0.7546771E-02  0.1301105E+00
         21   -1    0    0  501  502  0.00000000000E+00  0.00000000000E+00  0.15008844254E+02  0.15008844254E+02  0.00000000000E+00 0.  1.
         21   -1    0    0  502  503 -0.00000000000E+00 -0.00000000000E+00 -0.85343983230E+03  0.85343983230E+03  0.00000000000E+00 0.  1.
         24    1    1    2    0    0 -0.46514607624E+02  0.55688775799E+02 -0.54372429521E+03  0.55440794874E+03  0.80419002446E+02 0.  0.
          1    1    1    2  501    0  0.19479778103E+02 -0.16513795621E+02 -0.13600690820E+02  0.28933475275E+02  0.00000000000E+00 0. -1.
         -2    1    1    2    0  503  0.27034829522E+02 -0.39174980178E+02 -0.28110600202E+03  0.28510725254E+03  0.00000000000E+00 0.  1.
<mgrwt>
<rscale>  2 0.90725065E+02</rscale>
<asrwt>0</asrwt>
<pdfrwt beam="1">  1       21 0.23090523E-02 0.90725065E+02</pdfrwt>
<pdfrwt beam="2">  1       21 0.13129847E+00 0.90725065E+02</pdfrwt>
<totfact> 0.42121743E+05</totfact>
</mgrwt>
</event>
<event>
 5    1  0.1696945E+000  0.7895673E+02  0.7546771E-02  0.1332038E+00
         21   -1    0    0  503  502  0.00000000000E+00  0.00000000000E+00  0.10797326975E+02  0.10797326975E+02  0.00000000000E+00 0.  1.
         21   -1    0    0  501  503 -0.00000000000E+00 -0.00000000000E+00 -0.15620177775E+04  0.15620177775E+04  0.00000000000E+00 0. -1.
         24    1    1    2    0    0  0.59434803143E+01 -0.12703652001E+02 -0.98351239619E+03  0.98689440020E+03  0.80419002446E+02 0.  0.
          1    1    1    2  501    0 -0.40129752549E+02  0.98584665549E+00 -0.53699686638E+03  0.53849512852E+03  0.00000000000E+00 0. -1.
         -2    1    1    2    0  502  0.34186272234E+02  0.11717805346E+02 -0.30711187983E+02  0.47425575787E+02  0.00000000000E+00 0.  1.
<mgrwt>
<rscale>  2 0.78956727E+02</rscale>
<asrwt>0</asrwt>
<pdfrwt beam="1">  1       21 0.16611268E-02 0.78956727E+02</pdfrwt>
<pdfrwt beam="2">  1       21 0.24031049E+00 0.78956727E+02</pdfrwt>
<totfact> 0.13861871E+05</totfact>
</mgrwt>
</event>
<event>
 5    1  0.1696945E+000  0.6600417E+02  0.7546771E-02  0.1374234E+00
         21   -1    0    0  501  502  0.00000000000E+00  0.00000000000E+00  0.20754887735E+03  0.20754887735E+03  0.00000000000E+00 0. -1.
         21   -1    0    0  502  503 -0.00000000000E+00 -0.00000000000E+00 -0.34233166183E+02  0.34233166183E+02  0.00000000000E+00 0.  1.
         24    1    1    2    0    0  0.19884824616E+02  0.10939494612E+02  0.12387888363E+03  0.14942647876E+03  0.80419002446E+02 0.  0.
          1    1    1    2  501    0  0.37855735967E+01 -0.21998466599E+02  0.60119389567E+02  0.64129588351E+02  0.00000000000E+00 0. -1.
         -2    1    1    2    0  503 -0.23670398213E+02  0.11058971986E+02 -0.10682562032E+02  0.28225976414E+02  0.00000000000E+00 0.  1.
<mgrwt>
<rscale>  2 0.66004166E+02</rscale>
<asrwt>0</asrwt>
<pdfrwt beam="1">  1       21 0.31930596E-01 0.66004166E+02</pdfrwt>
<pdfrwt beam="2">  1       21 0.52666411E-02 0.66004166E+02</pdfrwt>
<totfact> 0.22456271E+06</totfact>
</mgrwt>
</event>
<event>
 5    1  0.1696945E+000  0.7175780E+02  0.7546771E-02  0.1354216E+00
         21   -1    0    0  503  502  0.00000000000E+00  0.00000000000E+00  0.46151730007E+03  0.46151730007E+03  0.00000000000E+00 0.  1.
         21   -1    0    0  501  503 -0.00000000000E+00 -0.00000000000E+00 -0.14480690927E+02  0.14480690927E+02  0.00000000000E+00 0. -1.
         24    1    1    2    0    0  0.48128080912E+02 -0.12693625864E+01  0.28440363332E+03  0.29945044006E+03  0.80419002446E+02 0.  1.
          1    1    1    2  501    0 -0.27741588457E+02 -0.55468817190E+01  0.26617584162E+02  0.38844039614E+02  0.00000000000E+00 0. -1.
         -2    1    1    2    0  502 -0.20386492455E+02  0.68162443055E+01  0.13601539167E+03  0.13770351133E+03  0.00000000000E+00 0.  1.
<mgrwt>
<rscale>  2 0.71757796E+02</rscale>
<asrwt>0</asrwt>
<pdfrwt beam="1">  1       21 0.71002650E-01 0.71757796E+02</pdfrwt>
<pdfrwt beam="2">  1       21 0.22277990E-02 0.71757796E+02</pdfrwt>
<totfact> 0.18207149E+06</totfact>
</mgrwt>
</event>
<event>
 5    1  0.1696945E+000  0.8556479E+02  0.7546771E-02  0.1313962E+00
         21   -1    0    0  503  502  0.00000000000E+00  0.00000000000E+00  0.31861359718E+02  0.31861359718E+02  0.00000000000E+00 0. -1.
         21   -1    0    0  501  503 -0.00000000000E+00 -0.00000000000E+00 -0.26134201394E+03  0.26134201394E+03  0.00000000000E+00 0.  1.
         24    1    1    2    0    0 -0.43434362501E+02 -0.26246743757E+02 -0.78951092686E+02  0.12359581868E+03  0.80419002446E+02 0. -1.
          1    1    1    2  501    0  0.48817015397E+02 -0.43349696330E+00 -0.11433427083E+03  0.12432061132E+03  0.00000000000E+00 0. -1.
         -2    1    1    2    0  502 -0.53826528962E+01  0.26680240721E+02 -0.36195290703E+02  0.45286943661E+02  0.00000000000E+00 0.  1.
<mgrwt>
<rscale>  2 0.85564794E+02</rscale>
<asrwt>0</asrwt>
<pdfrwt beam="1">  1       21 0.49017476E-02 0.85564794E+02</pdfrwt>
<pdfrwt beam="2">  1       21 0.40206464E-01 0.85564794E+02</pdfrwt>
<totfact> 0.16357114E+06</totfact>
</mgrwt>
</event>
<event>
 5    1  0.1696945E+000  0.1429288E+03  0.7546771E-02  0.1209442E+00
         21   -1    0    0  503  502  0.00000000000E+00  0.00000000000E+00  0.16908162801E+03  0.16908162801E+03  0.00000000000E+00 0.  1.
         21   -1    0    0  501  503 -0.00000000000E+00 -0.00000000000E+00 -0.19022628647E+03  0.19022628647E+03  0.00000000000E+00 0.  1.
         24    1    1    2    0    0  0.96335934683E+02 -0.45282055438E+01  0.67017533546E+01  0.12575073125E+03  0.80419002446E+02 0.  1.
          1    1    1    2  501    0 -0.59553911270E+01  0.55973236894E+02 -0.94528586876E+02  0.11001874235E+03  0.00000000000E+00 0. -1.
         -2    1    1    2    0  502 -0.90380543556E+02 -0.51445031350E+02  0.66682175063E+02  0.12353844088E+03  0.00000000000E+00 0.  1.
<mgrwt>
<rscale>  2 0.14292875E+03</rscale>
<asrwt>0</asrwt>
<pdfrwt beam="1">  1       21 0.26012558E-01 0.14292875E+03</pdfrwt>
<pdfrwt beam="2">  1       21 0.29265582E-01 0.14292875E+03</pdfrwt>
<totfact> 0.15943788E+05</totfact>
</mgrwt>
</event>
<event>
 5    1  0.1696945E+000  0.1297548E+03  0.7546771E-02  0.1227820E+00
         21   -1    0    0  503  502  0.00000000000E+00  0.00000000000E+00  0.44687551802E+02  0.44687551802E+02  0.00000000000E+00 0.  1.
         21   -1    0    0  501  503 -0.00000000000E+00 -0.00000000000E+00 -0.37885654174E+03  0.37885654174E+03  0.00000000000E+00 0.  1.
         24    1    1    2    0    0  0.46731579740E+02  0.40598831656E+02 -0.13777387909E+03  0.17111681213E+03  0.80419002446E+02 0.  1.
          1    1    1    2  501    0  0.23820938172E+02  0.42679788173E+02 -0.70800340226E+02  0.86033072652E+02  0.00000000000E+00 0. -1.
         -2    1    1    2    0  502 -0.70552517912E+02 -0.83278619829E+02 -0.12559477062E+03  0.16639420877E+03  0.00000000000E+00 0.  1.
<mgrwt>
<rscale>  2 0.12975481E+03</rscale>
<asrwt>0</asrwt>
<pdfrwt beam="1">  1       21 0.68750082E-02 0.12975481E+03</pdfrwt>
<pdfrwt beam="2">  1       21 0.58285620E-01 0.12975481E+03</pdfrwt>
<totfact> 0.43475276E+05</totfact>
</mgrwt>
</event>
<event>
 5    1  0.1696945E+000  0.9668436E+02  0.7546771E-02  0.1287427E+00
         21   -1    0    0  503  502  0.00000000000E+00  0.00000000000E+00  0.18078667235E+03  0.18078667235E+03  0.00000000000E+00 0. -1.
         21   -1    0    0  501  503 -0.00000000000E+00 -0.00000000000E+00 -0.62618510488E+02  0.62618510488E+02  0.00000000000E+00 0.  1.
         24    1    1    2    0    0 -0.16823164275E+02  0.44344327996E+02  0.73943138993E+01  0.93655379525E+02  0.80419002446E+02 0.  1.
          1    1    1    2  501    0  0.33664198280E+02 -0.65092800360E+02  0.88936376544E+02  0.11523901239E+03  0.00000000000E+00 0. -1.
         -2    1    1    2    0  502 -0.16841034005E+02  0.20748472364E+02  0.21837471414E+02  0.34510790915E+02  0.00000000000E+00 0.  1.
<mgrwt>
<rscale>  2 0.96684359E+02</rscale>
<asrwt>0</asrwt>
<pdfrwt beam="1">  1       21 0.27813334E-01 0.96684359E+02</pdfrwt>
<pdfrwt beam="2">  1       21 0.96336171E-02 0.96684359E+02</pdfrwt>
<totfact> 0.10658224E+06</totfact>
</mgrwt>
</event>
<event>
 5    1  0.1696945E+000  0.1252190E+03  0.7546771E-02  0.1234727E+00
         21   -1    0    0  503  502  0.00000000000E+00  0.00000000000E+00  0.22028228503E+02  0.22028228503E+02  0.00000000000E+00 0.  1.
         21   -1    0    0  501  503 -0.00000000000E+00 -0.00000000000E+00 -0.76339370256E+03  0.76339370256E+03  0.00000000000E+00 0.  1.
         24    1    1    2    0    0 -0.72951686654E+02 -0.37983416097E+02 -0.30761514706E+03  0.32841891410E+03  0.80419002446E+02 0.  1.
          1    1    1    2  501    0  0.92418549242E+02 -0.34501824604E+00 -0.35966021617E+03  0.37134455480E+03  0.00000000000E+00 0. -1.
         -2    1    1    2    0  502 -0.19466862588E+02  0.38328434343E+02 -0.74090110823E+02  0.85658462162E+02  0.00000000000E+00 0.  1.
<mgrwt>
<rscale>  2 0.12521895E+03</rscale>
<asrwt>0</asrwt>
<pdfrwt beam="1">  1       21 0.33889586E-02 0.12521895E+03</pdfrwt>
<pdfrwt beam="2">  1       21 0.11744517E+00 0.12521895E+03</pdfrwt>
<totfact> 0.29346090E+05</totfact>
</mgrwt>
</event>
<event>
 5    1  0.1696945E+000  0.1530919E+03  0.7546771E-02  0.1196724E+00
         21   -1    0    0  501  502  0.00000000000E+00  0.00000000000E+00  0.10128439512E+03  0.10128439512E+03  0.00000000000E+00 0.  1.
         21   -1    0    0  502  503 -0.00000000000E+00 -0.00000000000E+00 -0.33282867724E+03  0.33282867724E+03  0.00000000000E+00 0.  1.
         24    1    1    2    0    0  0.29453489845E+02 -0.11856311629E+03  0.45873532113E+01  0.14633174766E+03  0.80419002446E+02 0.  1.
          1    1    1    2  501    0 -0.41720075401E+02  0.10096106585E+01 -0.34876993566E+02  0.54387394544E+02  0.00000000000E+00 0. -1.
         -2    1    1    2    0  503  0.12266585556E+02  0.11755350563E+03 -0.20125464176E+03  0.23339393016E+03  0.00000000000E+00 0.  1.
<mgrwt>
<rscale>  2 0.15309195E+03</rscale>
<asrwt>0</asrwt>
<pdfrwt beam="1">  1       21 0.15582215E-01 0.15309195E+03</pdfrwt>
<pdfrwt beam="2">  1       21 0.51204410E-01 0.15309195E+03</pdfrwt>
<totfact> 0.13452198E+05</totfact>
</mgrwt>
</event>
<event>
 5    1  0.1696945E+000  0.7759015E+02  0.7546771E-02  0.1336033E+00
         21   -1    0    0  501  502  0.00000000000E+00  0.00000000000E+00  0.65237990610E+02  0.65237990610E+02  0.00000000000E+00 0. -1.
         21   -1    0    0  502  503 -0.00000000000E+00 -0.00000000000E+00 -0.10759518847E+03  0.10759518847E+03  0.00000000000E+00 0.  1.
         24    1    1    2    0    0 -0.26507554237E+02  0.47784052710E+02  0.29854286197E+01  0.97273299848E+02  0.80419002446E+02 0. -1.
          1    1    1    2  501    0  0.24249061863E+01 -0.23942092193E+02 -0.85488848105E+01  0.25537959591E+02  0.00000000000E+00 0. -1.
         -2    1    1    2    0  503  0.24082648050E+02 -0.23841960517E+02 -0.36793741665E+02  0.50021919637E+02  0.00000000000E+00 0.  1.
<mgrwt>
<rscale>  2 0.77590149E+02</rscale>
<asrwt>0</asrwt>
<pdfrwt beam="1">  1       21 0.10036614E-01 0.77590149E+02</pdfrwt>
<pdfrwt beam="2">  1       21 0.16553106E-01 0.77590149E+02</pdfrwt>
<totfact> 0.25624094E+06</totfact>
</mgrwt>
</event>
<event>
 5    1  0.1696945E+000  0.1037059E+03  0.7546771E-02  0.1272690E+00
         21   -1    0    0  503  502  0.00000000000E+00  0.00000000000E+00  0.11175631434E+03  0.11175631434E+03  0.00000000000E+00 0.  1.
         21   -1    0    0  501  503 -0.00000000000E+00 -0.00000000000E+00 -0.20437103841E+03  0.20437103841E+03  0.00000000000E+00 0.  1.
         24    1    1    2    0    0  0.81317707878E+02  0.52991220310E+01 -0.10910184215E+03  0.15814891155E+03  0.80419002446E+02 0.  1.
          1    1    1    2  501    0 -0.67296806556E+02  0.14324367396E+02 -0.51432982957E+02  0.85903430722E+02  0.00000000000E+00 0. -1.
         -2    1    1    2    0  502 -0.14020901322E+02 -0.19623489427E+02  0.67920101038E+02  0.72075010483E+02  0.00000000000E+00 0.  1.
<mgrwt>
<rscale>  2 0.10370589E+03</rscale>
<asrwt>0</asrwt>
<pdfrwt beam="1">  1       21 0.17193279E-01 0.10370589E+03</pdfrwt>
<pdfrwt beam="2">  1       21 0.31441698E-01 0.10370589E+03</pdfrwt>
<totfact> 0.30237514E+05</totfact>
</mgrwt>
</event>
<event>
 5    1  0.1696945E+000  0.7112788E+02  0.7546771E-02  0.1356299E+00
         21   -1    0    0  501  502  0.00000000000E+00  0.00000000000E+00  0.18859565267E+03  0.18859565267E+03  0.00000000000E+00 0.  1.
         21   -1    0    0  502  503 -0.00000000000E+00 -0.00000000000E+00 -0.36279592088E+02  0.36279592088E+02  0.00000000000E+00 0. -1.
         24    1    1    2    0    0 -0.26770266890E+02 -0.35913105963E+02  0.12287523852E+03  0.15353155560E+03  0.80419002446E+02 0.  0.
          1    1    1    2  501    0  0.30424126180E+01  0.22978773258E+02  0.36658749021E+02  0.43372158982E+02  0.00000000000E+00 0. -1.
         -2    1    1    2    0  503  0.23727854272E+02  0.12934332706E+02 -0.72179269567E+01  0.27971530177E+02  0.00000000000E+00 0.  1.
<mgrwt>
<rscale>  2 0.71127878E+02</rscale>
<asrwt>0</asrwt>
<pdfrwt beam="1">  1       21 0.29014715E-01 0.71127878E+02</pdfrwt>
<pdfrwt beam="2">  1       21 0.55814758E-02 0.71127878E+02</pdfrwt>
<totfact> 0.24555815E+06</totfact>
</mgrwt>
</event>
<event>
 5    1  0.1696945E+000  0.6905421E+02  0.7546771E-02  0.1363339E+00
         21   -1    0    0  501  502  0.00000000000E+00  0.00000000000E+00  0.88924977087E+01  0.88924977087E+01  0.00000000000E+00 0.  1.
         21   -1    0    0  502  503 -0.00000000000E+00 -0.00000000000E+00 -0.63404094154E+03  0.63404094154E+03  0.00000000000E+00 0.  1.
         24    1    1    2    0    0  0.19618790779E+02  0.40158126185E+02 -0.30797185935E+03  0.32142099209E+03  0.80419002446E+02 0.  1.
          1    1    1    2  501    0 -0.13880783323E+02 -0.15586328674E+02 -0.69836110700E+02  0.72888216777E+02  0.00000000000E+00 0. -1.
         -2    1    1    2    0  503 -0.57380074562E+01 -0.24571797510E+02 -0.24734047378E+03  0.24862423038E+03  0.00000000000E+00 0.  1.
<mgrwt>
<rscale>  2 0.69054212E+02</rscale>
<asrwt>0</asrwt>
<pdfrwt beam="1">  1       21 0.13680769E-02 0.69054212E+02</pdfrwt>
<pdfrwt beam="2">  1       21 0.97544735E-01 0.69054212E+02</pdfrwt>
<totfact> 0.19497474E+06</totfact>
</mgrwt>
</event>
<event>
 5    1  0.1696945E+000  0.7756361E+02  0.7546771E-02  0.1336111E+00
         21   -1    0    0  503  502  0.00000000000E+00  0.00000000000E+00  0.36055323690E+02  0.36055323690E+02  0.00000000000E+00 0.  1.
         21   -1    0    0  501  503 -0.00000000000E+00 -0.00000000000E+00 -0.17931583033E+03  0.17931583033E+03  0.00000000000E+00 0.  1.
         24    1    1    2    0    0 -0.31200097895E+02 -0.28487266416E+02 -0.11099699316E+03  0.14343123405E+03  0.80419002446E+02 0.  1.
          1    1    1    2  501    0 -0.73318121418E+01  0.24470149298E+02 -0.13550081712E+02  0.28916230570E+02  0.00000000000E+00 0. -1.
         -2    1    1    2    0  502  0.38531910036E+02  0.40171171171E+01 -0.18713431768E+02  0.43023689399E+02  0.00000000000E+00 0.  1.
<mgrwt>
<rscale>  2 0.77563613E+02</rscale>
<asrwt>0</asrwt>
<pdfrwt beam="1">  1       21 0.55469729E-02 0.77563613E+02</pdfrwt>
<pdfrwt beam="2">  1       21 0.27587051E-01 0.77563613E+02</pdfrwt>
<totfact> 0.27415567E+06</totfact>
</mgrwt>
</event>
<event>
 5    1  0.1696945E+000  0.7081042E+02  0.7546771E-02  0.1357359E+00
         21   -1    0    0  501  502  0.00000000000E+00  0.00000000000E+00  0.33780213812E+02  0.33780213812E+02  0.00000000000E+00 0. -1.
         21   -1    0    0  502  503 -0.00000000000E+00 -0.00000000000E+00 -0.48785692858E+03  0.48785692858E+03  0.00000000000E+00 0. -1.
         24    1    1    2    0    0  0.79268468543E+01  0.34562781528E+02 -0.12998635851E+03  0.15691108986E+03  0.80419002446E+02 0. -1.
          1    1    1    2  501    0 -0.24290454054E+02 -0.16535712667E+02  0.90117149247E+01  0.30735434883E+02  0.00000000000E+00 0. -1.
         -2    1    1    2    0  503  0.16363607200E+02 -0.18027068862E+02 -0.33310207118E+03  0.33399061765E+03  0.00000000000E+00 0.  1.
<mgrwt>
<rscale>  2 0.70810422E+02</rscale>
<asrwt>0</asrwt>
<pdfrwt beam="1">  1       21 0.51969560E-02 0.70810422E+02</pdfrwt>
<pdfrwt beam="2">  1       21 0.75054911E-01 0.70810422E+02</pdfrwt>
<totfact> 0.40777024E+05</totfact>
</mgrwt>
</event>
<event>
 5    1  0.1696945E+000  0.1160964E+03  0.7546771E-02  0.1249679E+00
         21   -1    0    0  503  502  0.00000000000E+00  0.00000000000E+00  0.13310608047E+02  0.13310608047E+02  0.00000000000E+00 0.  1.
         21   -1    0    0  501  503 -0.00000000000E+00 -0.00000000000E+00 -0.10302432492E+04  0.10302432492E+04  0.00000000000E+00 0.  1.
         24    1    1    2    0    0 -0.35333303105E+02  0.89017918773E+02 -0.48128510735E+03  0.49726773742E+03  0.80419002446E+02 0.  1.
          1    1    1    2  501    0 -0.11129857795E+02 -0.30148004774E+02 -0.17432253412E+03  0.17726004013E+03  0.00000000000E+00 0. -1.
         -2    1    1    2    0  502  0.46463160900E+02 -0.58869913999E+02 -0.36132499969E+03  0.36902607970E+03  0.00000000000E+00 0.  1.
<mgrwt>
<rscale>  2 0.11609641E+03</rscale>
<asrwt>0</asrwt>
<pdfrwt beam="1">  1       21 0.20477856E-02 0.11609641E+03</pdfrwt>
<pdfrwt beam="2">  1       21 0.15849898E+00 0.11609641E+03</pdfrwt>
<totfact> 0.31428410E+05</totfact>
</mgrwt>
</event>
<event>
 5    1  0.1696945E+000  0.9046296E+02  0.7546771E-02  0.1301734E+00
         21   -1    0    0  503  502  0.00000000000E+00  0.00000000000E+00  0.49372463594E+02  0.49372463594E+02  0.00000000000E+00 0. -1.
         21   -1    0    0  501  503 -0.00000000000E+00 -0.00000000000E+00 -0.18225132624E+03  0.18225132624E+03  0.00000000000E+00 0.  1.
         24    1    1    2    0    0 -0.52219547155E+02 -0.10994789564E+02 -0.51167208695E+02  0.10923857241E+03  0.80419002446E+02 0. -1.
          1    1    1    2  501    0  0.58256330834E+01 -0.25013945123E+02 -0.48591223480E+02  0.54961281378E+02  0.00000000000E+00 0. -1.
         -2    1    1    2    0  502  0.46393914072E+02  0.36008734687E+02 -0.33120430467E+02  0.67423936039E+02  0.00000000000E+00 0.  1.
<mgrwt>
<rscale>  2 0.90462960E+02</rscale>
<asrwt>0</asrwt>
<pdfrwt beam="1">  1       21 0.75957636E-02 0.90462960E+02</pdfrwt>
<pdfrwt beam="2">  1       21 0.28038666E-01 0.90462960E+02</pdfrwt>
<totfact> 0.15761067E+06</totfact>
</mgrwt>
</event>
<event>
 5    1  0.1696945E+000  0.7277627E+02  0.7546771E-02  0.1350899E+00
         21   -1    0    0  501  502  0.00000000000E+00  0.00000000000E+00  0.25742735180E+03  0.25742735180E+03  0.00000000000E+00 0.  1.
         21   -1    0    0  502  503 -0.00000000000E+00 -0.00000000000E+00 -0.36458206139E+02  0.36458206139E+02  0.00000000000E+00 0. -1.
         24    1    1    2    0    0  0.28249979370E+01  0.30959408873E+02  0.31935478896E+02  0.91943223665E+02  0.80419002446E+02 0. -1.
          1    1    1    2  501    0  0.23804385906E+02 -0.12105662800E+02  0.14327292095E+03  0.14574061115E+03  0.00000000000E+00 0. -1.
         -2    1    1    2    0  503 -0.26629383843E+02 -0.18853746074E+02  0.45760745810E+02  0.56201723122E+02  0.00000000000E+00 0.  1.
<mgrwt>
<rscale>  2 0.72776275E+02</rscale>
<asrwt>0</asrwt>
<pdfrwt beam="1">  1       21 0.39604207E-01 0.72776275E+02</pdfrwt>
<pdfrwt beam="2">  1       21 0.56089549E-02 0.72776275E+02</pdfrwt>
<totfact> 0.13397241E+06</totfact>
</mgrwt>
</event>
<event>
 5    1  0.1696945E+000  0.7610959E+02  0.7546771E-02  0.1340469E+00
         21   -1    0    0  501  502  0.00000000000E+00  0.00000000000E+00  0.14822906501E+02  0.14822906501E+02  0.00000000000E+00 0. -1.
         21   -1    0    0  502  503 -0.00000000000E+00 -0.00000000000E+00 -0.10378673126E+04  0.10378673126E+04  0.00000000000E+00 0.  1.
         24    1    1    2    0    0  0.39183945047E+02  0.18008037359E+02 -0.24745317330E+03  0.26374222243E+03  0.80419002446E+02 0. -1.
          1    1    1    2  501    0 -0.28212801624E+02  0.10747076109E+02 -0.29460349652E+02  0.42182627016E+02  0.00000000000E+00 0. -1.
         -2    1    1    2    0  503 -0.10971143423E+02 -0.28755113468E+02 -0.74613088313E+03  0.74676536964E+03  0.00000000000E+00 0.  1.
<mgrwt>
<rscale>  2 0.76109592E+02</rscale>
<asrwt>0</asrwt>
<pdfrwt beam="1">  1       21 0.22804477E-02 0.76109592E+02</pdfrwt>
<pdfrwt beam="2">  1       21 0.15967185E+00 0.76109592E+02</pdfrwt>
<totfact> 0.26403322E+05</totfact>
</mgrwt>
</event>
<event>
 5    1  0.1696945E+000  0.1201104E+03  0.7546771E-02  0.1242915E+00
         21   -1    0    0  503  502  0.00000000000E+00  0.00000000000E+00  0.11106372842E+02  0.11106372842E+02  0.00000000000E+00 0.  1.
         21   -1    0    0  501  503 -0.00000000000E+00 -0.00000000000E+00 -0.25560339003E+04  0.25560339003E+04  0.00000000000E+00 0.  1.
         24    1    1    2    0    0  0.24540274764E+02 -0.55207793540E+02 -0.17842972641E+04  0.17871301207E+04  0.80419002446E+02 0.  1.
          1    1    1    2  501    0  0.22659525266E+02 -0.32743692398E+02 -0.48903539987E+03  0.49065387576E+03  0.00000000000E+00 0. -1.
         -2    1    1    2    0  502 -0.47199800030E+02  0.87951485938E+02 -0.27159486353E+03  0.28935627675E+03  0.00000000000E+00 0.  1.
<mgrwt>
<rscale>  2 0.12011044E+03</rscale>
<asrwt>0</asrwt>
<pdfrwt beam="1">  1       21 0.17086743E-02 0.12011044E+03</pdfrwt>
<pdfrwt beam="2">  1       21 0.39323564E+00 0.12011044E+03</pdfrwt>
<totfact> 0.17000170E+04</totfact>
</mgrwt>
</event>
<event>
 5    1  0.1696945E+000  0.9869924E+02  0.7546771E-02  0.1283055E+00
         21   -1    0    0  501  502  0.00000000000E+00  0.00000000000E+00  0.85389090196E+01  0.85389090196E+01  0.00000000000E+00 0.  1.
         21   -1    0    0  502  503 -0.00000000000E+00 -0.00000000000E+00 -0.12802346897E+04  0.12802346897E+04  0.00000000000E+00 0. -1.
         24    1    1    2    0    0  0.13886624116E+02 -0.37002450161E+02 -0.37521316485E+03  0.38576437715E+03  0.80419002446E+02 0.  1.
          1    1    1    2  501    0 -0.14467258595E+02  0.71672252773E+02 -0.56278300928E+03  0.56751293283E+03  0.00000000000E+00 0. -1.
         -2    1    1    2    0  503  0.58063447922E+00 -0.34669802611E+02 -0.33369960656E+03  0.33549628876E+03  0.00000000000E+00 0.  1.
<mgrwt>
<rscale>  2 0.98699236E+02</rscale>
<asrwt>0</asrwt>
<pdfrwt beam="1">  1       21 0.13136794E-02 0.98699236E+02</pdfrwt>
<pdfrwt beam="2">  1       21 0.19695902E+00 0.98699236E+02</pdfrwt>
<totfact> 0.35592669E+05</totfact>
</mgrwt>
</event>
<event>
 5    1  0.1696945E+000  0.9342936E+02  0.7546771E-02  0.1294753E+00
         21   -1    0    0  503  502  0.00000000000E+00  0.00000000000E+00  0.16997394877E+03  0.16997394877E+03  0.00000000000E+00 0.  1.
         21   -1    0    0  501  503 -0.00000000000E+00 -0.00000000000E+00 -0.10564015904E+04  0.10564015904E+04  0.00000000000E+00 0. -1.
         24    1    1    2    0    0 -0.27184427377E+02 -0.22085531717E+02 -0.18660802893E+03  0.20619538360E+03  0.80419002446E+02 0.  1.
          1    1    1    2  501    0 -0.23870336019E+02 -0.21415797914E+02 -0.85266351279E+03  0.85326636837E+03  0.00000000000E+00 0. -1.
         -2    1    1    2    0  502  0.51054763396E+02  0.43501329632E+02  0.15284390012E+03  0.16691378718E+03  0.00000000000E+00 0.  1.
<mgrwt>
<rscale>  2 0.93429357E+02</rscale>
<asrwt>0</asrwt>
<pdfrwt beam="1">  1       21 0.26149839E-01 0.93429357E+02</pdfrwt>
<pdfrwt beam="2">  1       21 0.16252332E+00 0.93429357E+02</pdfrwt>
<totfact> 0.37735391E+03</totfact>
</mgrwt>
</event>
<event>
 5    1  0.1696945E+000  0.6750220E+02  0.7546771E-02  0.1368799E+00
         21   -1    0    0  501  502  0.00000000000E+00  0.00000000000E+00  0.37553597768E+03  0.37553597768E+03  0.00000000000E+00 0.  1.
         21   -1    0    0  502  503 -0.00000000000E+00 -0.00000000000E+00 -0.13243212373E+02  0.13243212373E+02  0.00000000000E+00 0. -1.
         24    1    1    2    0    0  0.88796219232E+01 -0.21713351235E+01  0.23023841827E+03  0.24405021529E+03  0.80419002446E+02 0.  1.
          1    1    1    2  501    0 -0.21544531834E+02 -0.19439970819E+02  0.99546584159E+02  0.10368993073E+03  0.00000000000E+00 0. -1.
         -2    1    1    2    0  503  0.12664909911E+02  0.21611305942E+02  0.32507762878E+02  0.41039044030E+02  0.00000000000E+00 0.  1.
<mgrwt>
<rscale>  2 0.67502202E+02</rscale>
<asrwt>0</asrwt>
<pdfrwt beam="1">  1       21 0.57774758E-01 0.67502202E+02</pdfrwt>
<pdfrwt beam="2">  1       21 0.20374176E-02 0.67502202E+02</pdfrwt>
<totfact> 0.32317096E+06</totfact>
</mgrwt>
</event>
<event>
 5    1  0.1696945E+000  0.8679836E+02  0.7546771E-02  0.1310796E+00
         21   -1    0    0  501  502  0.00000000000E+00  0.00000000000E+00  0.74688475238E+03  0.74688475238E+03  0.00000000000E+00 0. -1.
         21   -1    0    0  502  503 -0.00000000000E+00 -0.00000000000E+00 -0.13245562706E+02  0.13245562706E+02  0.00000000000E+00 0.  1.
         24    1    1    2    0    0  0.18858685722E-01  0.42513959877E+02  0.23702988452E+03  0.25388544513E+03  0.80419002446E+02 0.  0.
          1    1    1    2  501    0 -0.23185092065E+02 -0.52509992711E+02  0.44616790378E+03  0.44984513578E+03  0.00000000000E+00 0. -1.
         -2    1    1    2    0  503  0.23166233380E+02  0.99960328337E+01  0.50441401373E+02  0.56399734165E+02  0.00000000000E+00 0.  1.
<mgrwt>
<rscale>  2 0.86798360E+02</rscale>
<asrwt>0</asrwt>
<pdfrwt beam="1">  1       21 0.11490531E+00 0.86798360E+02</pdfrwt>
<pdfrwt beam="2">  1       21 0.20377795E-02 0.86798360E+02</pdfrwt>
<totfact> 0.71108413E+05</totfact>
</mgrwt>
</event>
<event>
 5    1  0.1696945E+000  0.7426518E+02  0.7546771E-02  0.1346162E+00
         21   -1    0    0  501  502  0.00000000000E+00  0.00000000000E+00  0.80466236951E+03  0.80466236951E+03  0.00000000000E+00 0. -1.
         21   -1    0    0  502  503 -0.00000000000E+00 -0.00000000000E+00 -0.13986701907E+02  0.13986701907E+02  0.00000000000E+00 0.  1.
         24    1    1    2    0    0  0.10607692130E+02 -0.26899134184E+01  0.13428766602E+03  0.15690810038E+03  0.80419002446E+02 0.  1.
          1    1    1    2  501    0  0.27295586871E+02  0.94174002879E+01  0.49436724858E+03  0.49520976662E+03  0.00000000000E+00 0. -1.
         -2    1    1    2    0  503 -0.37903279001E+02 -0.67274868695E+01  0.16202075300E+03  0.16653120441E+03  0.00000000000E+00 0.  1.
<mgrwt>
<rscale>  2 0.74265179E+02</rscale>
<asrwt>0</asrwt>
<pdfrwt beam="1">  1       21 0.12379417E+00 0.74265179E+02</pdfrwt>
<pdfrwt beam="2">  1       21 0.21518009E-02 0.74265179E+02</pdfrwt>
<totfact> 0.54590255E+05</totfact>
</mgrwt>
</event>
<event>
 5    1  0.1696945E+000  0.1463282E+03  0.7546771E-02  0.1205059E+00
         21   -1    0    0  503  502  0.00000000000E+00  0.00000000000E+00  0.16540318748E+03  0.16540318748E+03  0.00000000000E+00 0. -1.
         21   -1    0    0  501  503 -0.00000000000E+00 -0.00000000000E+00 -0.36511996178E+03  0.36511996178E+03  0.00000000000E+00 0. -1.
         24    1    1    2    0    0 -0.12691560672E+03 -0.21922927691E+02 -0.94588852191E+02  0.17889229413E+03  0.80419002446E+02 0. -1.
          1    1    1    2  501    0  0.57627140694E+02  0.38838056154E+02 -0.21202557864E+03  0.22312357103E+03  0.00000000000E+00 0. -1.
         -2    1    1    2    0  502  0.69288466023E+02 -0.16915128463E+02  0.10689765653E+03  0.12850728410E+03  0.00000000000E+00 0.  1.
<mgrwt>
<rscale>  2 0.14632819E+03</rscale>
<asrwt>0</asrwt>
<pdfrwt beam="1">  1       21 0.25446645E-01 0.14632819E+03</pdfrwt>
<pdfrwt beam="2">  1       21 0.56172301E-01 0.14632819E+03</pdfrwt>
<totfact> 0.44718669E+04</totfact>
</mgrwt>
</event>
<event>
 5    1  0.1696945E+000  0.7616077E+02  0.7546771E-02  0.1340314E+00
         21   -1    0    0  503  502  0.00000000000E+00  0.00000000000E+00  0.41266271760E+02  0.41266271760E+02  0.00000000000E+00 0. -1.
         21   -1    0    0  501  503 -0.00000000000E+00 -0.00000000000E+00 -0.29622248452E+03  0.29622248452E+03  0.00000000000E+00 0. -1.
         24    1    1    2    0    0  0.24183611479E+02  0.47921683669E+02 -0.63103566517E+02  0.11545826472E+03  0.80419002446E+02 0. -1.
          1    1    1    2  501    0 -0.31245716174E+01 -0.22069957121E+02 -0.18701396592E+03  0.18833764733E+03  0.00000000000E+00 0. -1.
         -2    1    1    2    0  502 -0.21059039862E+02 -0.25851726548E+02 -0.48386803319E+01  0.33692844236E+02  0.00000000000E+00 0.  1.
<mgrwt>
<rscale>  2 0.76160767E+02</rscale>
<asrwt>0</asrwt>
<pdfrwt beam="1">  1       21 0.63486570E-02 0.76160767E+02</pdfrwt>
<pdfrwt beam="2">  1       21 0.45572691E-01 0.76160767E+02</pdfrwt>
<totfact> 0.82551371E+05</totfact>
</mgrwt>
</event>
<event>
 5    1  0.1696945E+000  0.6394305E+02  0.7546771E-02  0.1381992E+00
         21   -1    0    0  503  502  0.00000000000E+00  0.00000000000E+00  0.73599483203E+03  0.73599483203E+03  0.00000000000E+00 0.  1.
         21   -1    0    0  501  503 -0.00000000000E+00 -0.00000000000E+00 -0.43971441240E+03  0.43971441240E+03  0.00000000000E+00 0.  1.
         24    1    1    2    0    0  0.37662011226E+01  0.36604824381E+01 -0.41752012322E+03  0.42522682494E+03  0.80419002446E+02 0.  1.
          1    1    1    2  501    0  0.20530556369E+02 -0.90042664207E+01 -0.11196435347E+02  0.25058745441E+02  0.00000000000E+00 0. -1.
         -2    1    1    2    0  502 -0.24296757492E+02  0.53437839825E+01  0.72499697820E+03  0.72542367404E+03  0.00000000000E+00 0.  1.
<mgrwt>
<rscale>  2 0.63943048E+02</rscale>
<asrwt>0</asrwt>
<pdfrwt beam="1">  1       21 0.11322997E+00 0.63943048E+02</pdfrwt>
<pdfrwt beam="2">  1       21 0.67648371E-01 0.63943048E+02</pdfrwt>
<totfact> 0.14832875E+03</totfact>
</mgrwt>
</event>
<event>
 5    1  0.1696945E+000  0.7258842E+02  0.7546771E-02  0.1351506E+00
         21   -1    0    0  503  502  0.00000000000E+00  0.00000000000E+00  0.53095934508E+02  0.53095934508E+02  0.00000000000E+00 0. -1.
         21   -1    0    0  501  503 -0.00000000000E+00 -0.00000000000E+00 -0.17146624641E+03  0.17146624641E+03  0.00000000000E+00 0.  1.
         24    1    1    2    0    0  0.57098397692E+01  0.10540093148E+02 -0.21088586223E+02  0.83997858645E+02  0.80419002446E+02 0. -1.
          1    1    1    2  501    0  0.13998488952E+02  0.21852887581E+02 -0.99258889614E+02  0.10259548507E+03  0.00000000000E+00 0. -1.
         -2    1    1    2    0  502 -0.19708328721E+02 -0.32392980729E+02  0.19771639366E+01  0.37968837205E+02  0.00000000000E+00 0.  1.
<mgrwt>
<rscale>  2 0.72588419E+02</rscale>
<asrwt>0</asrwt>
<pdfrwt beam="1">  1       21 0.81686054E-02 0.72588419E+02</pdfrwt>
<pdfrwt beam="2">  1       21 0.26379422E-01 0.72588419E+02</pdfrwt>
<totfact> 0.15499164E+06</totfact>
</mgrwt>
</event>
<event>
 5    1  0.1696945E+000  0.7055924E+02  0.7546771E-02  0.1358202E+00
         21   -1    0    0  501  502  0.00000000000E+00  0.00000000000E+00  0.10441869178E+03  0.10441869178E+03  0.00000000000E+00 0. -1.
         21   -1    0    0  502  503 -0.00000000000E+00 -0.00000000000E+00 -0.10993856111E+03  0.10993856111E+03  0.00000000000E+00 0.  1.
         24    1    1    2    0    0  0.28673348896E+02  0.34002700350E+01  0.62882903360E+02  0.10609051919E+03  0.80419002446E+02 0.  0.
          1    1    1    2  501    0 -0.74724034334E+01  0.21621947397E+02  0.87027695299E+01  0.24476184747E+02  0.00000000000E+00 0. -1.
         -2    1    1    2    0  503 -0.21200945462E+02 -0.25022217432E+02 -0.77105542221E+02  0.83790548959E+02  0.00000000000E+00 0.  1.
<mgrwt>
<rscale>  2 0.70559243E+02</rscale>
<asrwt>0</asrwt>
<pdfrwt beam="1">  1       21 0.16064414E-01 0.70559243E+02</pdfrwt>
<pdfrwt beam="2">  1       21 0.16913625E-01 0.70559243E+02</pdfrwt>
<totfact> 0.10766922E+06</totfact>
</mgrwt>
</event>
<event>
 5    1  0.1696945E+000  0.2259268E+03  0.7546771E-02  0.1129540E+00
         21   -1    0    0  503  502  0.00000000000E+00  0.00000000000E+00  0.16187061099E+04  0.16187061099E+04  0.00000000000E+00 0. -1.
         21   -1    0    0  501  503 -0.00000000000E+00 -0.00000000000E+00 -0.49398411495E+02  0.49398411495E+02  0.00000000000E+00 0. -1.
         24    1    1    2    0    0 -0.13835446169E+03 -0.96508544266E+02  0.88564233402E+03  0.90514386478E+03  0.80419002446E+02 0. -1.
          1    1    1    2  501    0  0.68315744733E+02 -0.61639493318E+02  0.47202462760E+02  0.10341441198E+03  0.00000000000E+00 0. -1.
         -2    1    1    2    0  502  0.70038716955E+02  0.15814803758E+03  0.63646290162E+03  0.65954624462E+03  0.00000000000E+00 0.  1.
<mgrwt>
<rscale>  2 0.22592682E+03</rscale>
<asrwt>0</asrwt>
<pdfrwt beam="1">  1       21 0.24903167E+00 0.22592682E+03</pdfrwt>
<pdfrwt beam="2">  1       21 0.75997569E-02 0.22592682E+03</pdfrwt>
<totfact> 0.85739186E+03</totfact>
</mgrwt>
</event>
<event>
 5    1  0.1696945E+000  0.1001022E+03  0.7546771E-02  0.1280081E+00
         21   -1    0    0  501  502  0.00000000000E+00  0.00000000000E+00  0.25631475042E+03  0.25631475042E+03  0.00000000000E+00 0.  1.
         21   -1    0    0  502  503 -0.00000000000E+00 -0.00000000000E+00 -0.51996416767E+02  0.51996416767E+02  0.00000000000E+00 0.  1.
         24    1    1    2    0    0  0.56139373982E+01  0.21334163624E+02  0.15040049700E+03  0.17197147520E+03  0.80419002446E+02 0.  1.
          1    1    1    2  501    0  0.25988921009E+02  0.40066991872E+02  0.46885713348E+02  0.66925764613E+02  0.00000000000E+00 0. -1.
         -2    1    1    2    0  503 -0.31602858407E+02 -0.61401155495E+02  0.70321233071E+01  0.69413927377E+02  0.00000000000E+00 0.  1.
<mgrwt>
<rscale>  2 0.10010216E+03</rscale>
<asrwt>0</asrwt>
<pdfrwt beam="1">  1       21 0.39433038E-01 0.10010216E+03</pdfrwt>
<pdfrwt beam="2">  1       21 0.79994489E-02 0.10010216E+03</pdfrwt>
<totfact> 0.74676023E+05</totfact>
</mgrwt>
</event>
<event>
 5    1  0.1696945E+000  0.7916982E+02  0.7546771E-02  0.1331424E+00
         21   -1    0    0  503  502  0.00000000000E+00  0.00000000000E+00  0.42744796071E+01  0.42744796071E+01  0.00000000000E+00 0.  1.
         21   -1    0    0  501  503 -0.00000000000E+00 -0.00000000000E+00 -0.16034168866E+04  0.16034168866E+04  0.00000000000E+00 0. -1.
         24    1    1    2    0    0  0.27280186239E+02  0.12352017974E+02 -0.92655879561E+03  0.93052415261E+03  0.80419002446E+02 0. -1.
          1    1    1    2  501    0 -0.25858415695E+01  0.26426212724E+02 -0.38671222435E+03  0.38762272348E+03  0.00000000000E+00 0. -1.
         -2    1    1    2    0  502 -0.24694344670E+02 -0.38778230698E+02 -0.28587138699E+03  0.28954449008E+03  0.00000000000E+00 0.  1.
<mgrwt>
<rscale>  2 0.79169825E+02</rscale>
<asrwt>0</asrwt>
<pdfrwt beam="1">  1       21 0.65761240E-03 0.79169825E+02</pdfrwt>
<pdfrwt beam="2">  1       21 0.24667946E+00 0.79169825E+02</pdfrwt>
<totfact> 0.54209606E+05</totfact>
</mgrwt>
</event>
<event>
 5    1  0.1696945E+000  0.8206251E+02  0.7546771E-02  0.1323298E+00
         21   -1    0    0  501  502  0.00000000000E+00  0.00000000000E+00  0.19073772258E+03  0.19073772258E+03  0.00000000000E+00 0. -1.
         21   -1    0    0  502  503 -0.00000000000E+00 -0.00000000000E+00 -0.60002563086E+02  0.60002563086E+02  0.00000000000E+00 0.  1.
         24    1    1    2    0    0  0.32369916709E+02 -0.15877019801E+02  0.79493477231E+02  0.11868580430E+03  0.80419002446E+02 0. -1.
          1    1    1    2  501    0 -0.77599950518E+01 -0.26157898756E+02  0.73573657954E+02  0.78469970914E+02  0.00000000000E+00 0. -1.
         -2    1    1    2    0  503 -0.24609921657E+02  0.42034918557E+02 -0.22331975693E+02  0.53584510452E+02  0.00000000000E+00 0.  1.
<mgrwt>
<rscale>  2 0.82062513E+02</rscale>
<asrwt>0</asrwt>
<pdfrwt beam="1">  1       21 0.29344265E-01 0.82062513E+02</pdfrwt>
<pdfrwt beam="2">  1       21 0.92311637E-02 0.82062513E+02</pdfrwt>
<totfact> 0.10327805E+06</totfact>
</mgrwt>
</event>
<event>
 5    1  0.1696945E+000  0.7579848E+02  0.7546771E-02  0.1341416E+00
         21   -1    0    0  501  502  0.00000000000E+00  0.00000000000E+00  0.46390569881E+02  0.46390569881E+02  0.00000000000E+00 0. -1.
         21   -1    0    0  502  503 -0.00000000000E+00 -0.00000000000E+00 -0.13790692744E+03  0.13790692744E+03  0.00000000000E+00 0.  1.
         24    1    1    2    0    0  0.19392239703E+02 -0.31615588487E+02 -0.28015625821E+02  0.92885389812E+02  0.80419002446E+02 0. -1.
          1    1    1    2  501    0  0.20596550615E+01  0.39964803826E+02 -0.27054454201E+02  0.48304981275E+02  0.00000000000E+00 0. -1.
         -2    1    1    2    0  503 -0.21451894764E+02 -0.83492153393E+01 -0.36446277538E+02  0.43107126234E+02  0.00000000000E+00 0.  1.
<mgrwt>
<rscale>  2 0.75798475E+02</rscale>
<asrwt>0</asrwt>
<pdfrwt beam="1">  1       21 0.71370110E-02 0.75798475E+02</pdfrwt>
<pdfrwt beam="2">  1       21 0.21216450E-01 0.75798475E+02</pdfrwt>
<totfact> 0.29212926E+06</totfact>
</mgrwt>
</event>
<event>
 5    1  0.1696945E+000  0.6923846E+02  0.7546771E-02  0.1362702E+00
         21   -1    0    0  503  502  0.00000000000E+00  0.00000000000E+00  0.15450701747E+04  0.15450701747E+04  0.00000000000E+00 0.  1.
         21   -1    0    0  501  503 -0.00000000000E+00 -0.00000000000E+00 -0.45637242099E+01  0.45637242099E+01  0.00000000000E+00 0. -1.
         24    1    1    2    0    0 -0.88975105770E+00  0.21674325095E+02  0.63771197294E+03  0.64312855979E+03  0.80419002446E+02 0. -1.
          1    1    1    2  501    0  0.25654864413E+02 -0.14161650079E+02  0.12934316863E+03  0.13262118862E+03  0.00000000000E+00 0. -1.
         -2    1    1    2    0  502 -0.24765113355E+02 -0.75126750159E+01  0.77345130892E+03  0.77388415050E+03  0.00000000000E+00 0.  1.
<mgrwt>
<rscale>  2 0.69238456E+02</rscale>
<asrwt>0</asrwt>
<pdfrwt beam="1">  1       21 0.23770269E+00 0.69238456E+02</pdfrwt>
<pdfrwt beam="2">  1       21 0.70211265E-03 0.69238456E+02</pdfrwt>
<totfact> 0.55466614E+05</totfact>
</mgrwt>
</event>
<event>
 5    1  0.2369451E+000  0.7232519E+02  0.7546771E-02  0.1352360E+00
         21   -1    0    0  503  502  0.00000000000E+00  0.00000000000E+00  0.58392279464E+02  0.58392279464E+02  0.00000000000E+00 0. -1.
         21   -1    0    0  501  503 -0.00000000000E+00 -0.00000000000E+00 -0.91372250435E+03  0.91372250435E+03  0.00000000000E+00 0. -1.
         24    1    1    2    0    0 -0.22829714109E+02 -0.44401553157E+02 -0.11712895688E+02  0.95378727444E+02  0.80419002446E+02 0. -1.
          1    1    1    2  501    0  0.12100198716E+02  0.26320425973E+02 -0.85315657961E+03  0.85364824662E+03  0.00000000000E+00 0. -1.
         -2    1    1    2    0  502  0.10729515393E+02  0.18081127184E+02  0.95392504071E+01  0.23087809752E+02  0.00000000000E+00 0.  1.
<mgrwt>
<rscale>  2 0.72325187E+02</rscale>
<asrwt>0</asrwt>
<pdfrwt beam="1">  1       21 0.89834275E-02 0.72325187E+02</pdfrwt>
<pdfrwt beam="2">  1       21 0.14057269E+00 0.72325187E+02</pdfrwt>
<totfact> 0.38068820E+04</totfact>
</mgrwt>
</event>
<event>
 5    1  0.1696945E+000  0.7938944E+02  0.7546771E-02  0.1330793E+00
         21   -1    0    0  503  502  0.00000000000E+00  0.00000000000E+00  0.39958335579E+02  0.39958335579E+02  0.00000000000E+00 0.  1.
         21   -1    0    0  501  503 -0.00000000000E+00 -0.00000000000E+00 -0.49715948841E+03  0.49715948841E+03  0.00000000000E+00 0.  1.
         24    1    1    2    0    0  0.21383058000E+02  0.10088195076E+02 -0.41570541047E+03  0.42407217675E+03  0.80419002446E+02 0.  1.
          1    1    1    2  501    0 -0.28015658225E+02  0.26025399515E+02 -0.60599638606E+02  0.71655528223E+02  0.00000000000E+00 0. -1.
         -2    1    1    2    0  502  0.66326002247E+01 -0.36113594591E+02  0.19103896246E+02  0.41390119011E+02  0.00000000000E+00 0.  1.
<mgrwt>
<rscale>  2 0.79389442E+02</rscale>
<asrwt>0</asrwt>
<pdfrwt beam="1">  1       21 0.61474356E-02 0.79389442E+02</pdfrwt>
<pdfrwt beam="2">  1       21 0.76486083E-01 0.79389442E+02</pdfrwt>
<totfact> 0.29548240E+05</totfact>
</mgrwt>
</event>
<event>
 5    1  0.1696945E+000  0.7574909E+02  0.7546771E-02  0.1341567E+00
         21   -1    0    0  503  502  0.00000000000E+00  0.00000000000E+00  0.30260751482E+02  0.30260751482E+02  0.00000000000E+00 0. -1.
         21   -1    0    0  501  503 -0.00000000000E+00 -0.00000000000E+00 -0.58421021714E+03  0.58421021714E+03  0.00000000000E+00 0. -1.
         24    1    1    2    0    0  0.21096406620E+02  0.29688080872E+01 -0.52806965929E+03  0.53458269071E+03  0.80419002446E+02 0. -1.
          1    1    1    2  501    0 -0.31517548378E+02 -0.27388292449E+02 -0.32042035308E+02  0.52632370702E+02  0.00000000000E+00 0. -1.
         -2    1    1    2    0  502  0.10421141758E+02  0.24419484362E+02  0.61622289413E+01  0.27255907205E+02  0.00000000000E+00 0.  1.
<mgrwt>
<rscale>  2 0.75749089E+02</rscale>
<asrwt>0</asrwt>
<pdfrwt beam="1">  1       21 0.46555010E-02 0.75749089E+02</pdfrwt>
<pdfrwt beam="2">  1       21 0.89878480E-01 0.75749089E+02</pdfrwt>
<totfact> 0.32851090E+05</totfact>
</mgrwt>
</event>
<event>
 5    1  0.1696945E+000  0.9773892E+02  0.7546771E-02  0.1285124E+00
         21   -1    0    0  503  502  0.00000000000E+00  0.00000000000E+00  0.12480616515E+02  0.12480616515E+02  0.00000000000E+00 0.  1.
         21   -1    0    0  501  503 -0.00000000000E+00 -0.00000000000E+00 -0.16879097160E+04  0.16879097160E+04  0.00000000000E+00 0. -1.
         24    1    1    2    0    0  0.23355388813E+02  0.38087546371E+01 -0.89447807567E+03  0.89839758715E+03  0.80419002446E+02 0.  0.
          1    1    1    2  501    0  0.28630973419E+02  0.36125552576E+02 -0.68040280268E+03  0.68196243451E+03  0.00000000000E+00 0. -1.
         -2    1    1    2    0  502 -0.51986362231E+02 -0.39934307213E+02 -0.10054822118E+03  0.12003031089E+03  0.00000000000E+00 0.  1.
<mgrwt>
<rscale>  2 0.97738915E+02</rscale>
<asrwt>0</asrwt>
<pdfrwt beam="1">  1       21 0.19200960E-02 0.97738915E+02</pdfrwt>
<pdfrwt beam="2">  1       21 0.25967826E+00 0.97738915E+02</pdfrwt>
<totfact> 0.83768469E+04</totfact>
</mgrwt>
</event>
<event>
 5    1  0.1696945E+000  0.7586089E+02  0.7546771E-02  0.1341226E+00
         21   -1    0    0  501  502  0.00000000000E+00  0.00000000000E+00  0.53286023717E+03  0.53286023717E+03  0.00000000000E+00 0. -1.
         21   -1    0    0  502  503 -0.00000000000E+00 -0.00000000000E+00 -0.30255209255E+02  0.30255209255E+02  0.00000000000E+00 0.  1.
         24    1    1    2    0    0  0.45697321392E+02  0.22465355760E+02  0.49051382375E+03  0.49966385164E+03  0.80419002446E+02 0. -1.
          1    1    1    2  501    0 -0.21551800727E+02  0.26302683261E+01  0.17907679673E+02  0.28143976573E+02  0.00000000000E+00 0. -1.
         -2    1    1    2    0  503 -0.24145520665E+02 -0.25095624086E+02 -0.58164755092E+01  0.35307618211E+02  0.00000000000E+00 0.  1.
<mgrwt>
<rscale>  2 0.75860889E+02</rscale>
<asrwt>0</asrwt>
<pdfrwt beam="1">  1       21 0.81978491E-01 0.75860889E+02</pdfrwt>
<pdfrwt beam="2">  1       21 0.46546480E-02 0.75860889E+02</pdfrwt>
<totfact> 0.40329473E+05</totfact>
</mgrwt>
</event>
<event>
 5    1  0.1696945E+000  0.8039646E+02  0.7546771E-02  0.1327930E+00
         21   -1    0    0  503  502  0.00000000000E+00  0.00000000000E+00  0.70796635096E+03  0.70796635096E+03  0.00000000000E+00 0.  1.
         21   -1    0    0  501  503 -0.00000000000E+00 -0.00000000000E+00 -0.39623631922E+02  0.39623631922E+02  0.00000000000E+00 0. -1.
         24    1    1    2    0    0 -0.75959391921E+01 -0.43062226921E+01  0.14055072116E+03  0.16216646700E+03  0.80419002446E+02 0.  1.
          1    1    1    2  501    0 -0.24641603362E+02 -0.25881628727E+02 -0.16486757774E+02  0.39355819185E+02  0.00000000000E+00 0. -1.
         -2    1    1    2    0  502  0.32237542554E+02  0.30187851420E+02  0.54427875565E+03  0.54606769669E+03  0.00000000000E+00 0.  1.
<mgrwt>
<rscale>  2 0.80396464E+02</rscale>
<asrwt>0</asrwt>
<pdfrwt beam="1">  1       21 0.10891789E+00 0.80396464E+02</pdfrwt>
<pdfrwt beam="2">  1       21 0.60959439E-02 0.80396464E+02</pdfrwt>
<totfact> 0.13472691E+05</totfact>
</mgrwt>
</event>
<event>
 5    1  0.1696945E+000  0.1118171E+03  0.7546771E-02  0.1257241E+00
         21   -1    0    0  501  502  0.00000000000E+00  0.00000000000E+00  0.33117559325E+02  0.33117559325E+02  0.00000000000E+00 0. -1.
         21   -1    0    0  502  503 -0.00000000000E+00 -0.00000000000E+00 -0.58601576129E+03  0.58601576129E+03  0.00000000000E+00 0.  1.
         24    1    1    2    0    0 -0.35357736842E+02  0.28657097498E+02 -0.28697302367E+03  0.30148321854E+03  0.80419002446E+02 0.  0.
          1    1    1    2  501    0  0.79417946377E+02 -0.34865387621E+02 -0.56415196014E+02  0.10346728856E+03  0.00000000000E+00 0. -1.
         -2    1    1    2    0  503 -0.44060209536E+02  0.62082901234E+01 -0.20950998228E+03  0.21418281351E+03  0.00000000000E+00 0.  1.
<mgrwt>
<rscale>  2 0.11181709E+03</rscale>
<asrwt>0</asrwt>
<pdfrwt beam="1">  1       21 0.50950092E-02 0.11181709E+03</pdfrwt>
<pdfrwt beam="2">  1       21 0.90156269E-01 0.11181709E+03</pdfrwt>
<totfact> 0.27838992E+05</totfact>
</mgrwt>
</event>
<event>
 5    1  0.1696945E+000  0.1187616E+03  0.7546771E-02  0.1245154E+00
         21   -1    0    0  501  502  0.00000000000E+00  0.00000000000E+00  0.76091100439E+03  0.76091100439E+03  0.00000000000E+00 0.  1.
         21   -1    0    0  502  503 -0.00000000000E+00 -0.00000000000E+00 -0.21938262152E+02  0.21938262152E+02  0.00000000000E+00 0. -1.
         24    1    1    2    0    0 -0.33909409252E+02 -0.99152599845E+02  0.50797971844E+03  0.52487302883E+03  0.80419002446E+02 0.  1.
          1    1    1    2  501    0  0.27469923646E+02  0.63278993798E+02  0.19462159138E+03  0.20648581450E+03  0.00000000000E+00 0. -1.
         -2    1    1    2    0  503  0.64394856058E+01  0.35873606048E+02  0.36371432416E+02  0.51490423204E+02  0.00000000000E+00 0.  1.
<mgrwt>
<rscale>  2 0.11876163E+03</rscale>
<asrwt>0</asrwt>
<pdfrwt beam="1">  1       21 0.11706321E+00 0.11876163E+03</pdfrwt>
<pdfrwt beam="2">  1       21 0.33751178E-02 0.11876163E+03</pdfrwt>
<totfact> 0.29831735E+05</totfact>
</mgrwt>
</event>
<event>
 5    1  0.1696945E+000  0.8204174E+02  0.7546771E-02  0.1323355E+00
         21   -1    0    0  501  502  0.00000000000E+00  0.00000000000E+00  0.48026651561E+03  0.48026651561E+03  0.00000000000E+00 0.  1.
         21   -1    0    0  502  503 -0.00000000000E+00 -0.00000000000E+00 -0.19534949945E+02  0.19534949945E+02  0.00000000000E+00 0.  1.
         24    1    1    2    0    0  0.19614899135E+02 -0.91981872114E+01  0.35160310861E+03  0.36133268999E+03  0.80419002446E+02 0.  1.
          1    1    1    2  501    0  0.83846268582E+01 -0.30829191514E+02  0.65913443078E+02  0.73248365138E+02  0.00000000000E+00 0. -1.
         -2    1    1    2    0  503 -0.27999525993E+02  0.40027378725E+02  0.43215013975E+02  0.65220410427E+02  0.00000000000E+00 0.  1.
<mgrwt>
<rscale>  2 0.82041738E+02</rscale>
<asrwt>0</asrwt>
<pdfrwt beam="1">  1       21 0.73887147E-01 0.82041738E+02</pdfrwt>
<pdfrwt beam="2">  1       21 0.30053773E-02 0.82041738E+02</pdfrwt>
<totfact> 0.10358296E+06</totfact>
</mgrwt>
</event>
<event>
 5    1  0.1696945E+000  0.7158822E+02  0.7546771E-02  0.1354774E+00
         21   -1    0    0  501  502  0.00000000000E+00  0.00000000000E+00  0.37631835484E+03  0.37631835484E+03  0.00000000000E+00 0. -1.
         21   -1    0    0  502  503 -0.00000000000E+00 -0.00000000000E+00 -0.26835260290E+02  0.26835260290E+02  0.00000000000E+00 0. -1.
         24    1    1    2    0    0  0.36214214245E+02 -0.28124166805E+02  0.13092244667E+03  0.16034444508E+03  0.80419002446E+02 0. -1.
          1    1    1    2  501    0 -0.19979991378E+02  0.23150263844E+01  0.21024536122E+03  0.21120528241E+03  0.00000000000E+00 0. -1.
         -2    1    1    2    0  503 -0.16234222866E+02  0.25809140421E+02  0.83152866492E+01  0.31603887631E+02  0.00000000000E+00 0.  1.
<mgrwt>
<rscale>  2 0.71588221E+02</rscale>
<asrwt>0</asrwt>
<pdfrwt beam="1">  1       21 0.57895128E-01 0.71588221E+02</pdfrwt>
<pdfrwt beam="2">  1       21 0.41285019E-02 0.71588221E+02</pdfrwt>
<totfact> 0.10328901E+06</totfact>
</mgrwt>
</event>
<event>
 5    1  0.1696945E+000  0.8869311E+02  0.7546771E-02  0.1306048E+00
         21   -1    0    0  503  502  0.00000000000E+00  0.00000000000E+00  0.31141302121E+02  0.31141302121E+02  0.00000000000E+00 0.  1.
         21   -1    0    0  501  503 -0.00000000000E+00 -0.00000000000E+00 -0.10925691619E+04  0.10925691619E+04  0.00000000000E+00 0. -1.
         24    1    1    2    0    0  0.26515221517E+02 -0.12164621824E+02 -0.20746093435E+03  0.22440652894E+03  0.80419002446E+02 0. -1.
          1    1    1    2  501    0  0.23072301626E+02  0.31130750315E+02 -0.84448440818E+03  0.84537291793E+03  0.00000000000E+00 0. -1.
         -2    1    1    2    0  502 -0.49587523143E+02 -0.18966128491E+02 -0.94825173001E+01  0.53931017196E+02  0.00000000000E+00 0.  1.
<mgrwt>
<rscale>  2 0.88693109E+02</rscale>
<asrwt>0</asrwt>
<pdfrwt beam="1">  1       21 0.47909698E-02 0.88693109E+02</pdfrwt>
<pdfrwt beam="2">  1       21 0.16808756E+00 0.88693109E+02</pdfrwt>
<totfact> 0.68259534E+04</totfact>
</mgrwt>
</event>
<event>
 5    1  0.1696945E+000  0.1082894E+03  0.7546771E-02  0.1263771E+00
         21   -1    0    0  503  502  0.00000000000E+00  0.00000000000E+00  0.23714551439E+03  0.23714551439E+03  0.00000000000E+00 0.  1.
         21   -1    0    0  501  503 -0.00000000000E+00 -0.00000000000E+00 -0.79045796066E+02  0.79045796066E+02  0.00000000000E+00 0.  1.
         24    1    1    2    0    0  0.47179555787E+00 -0.66783500560E+02  0.50776635059E+02  0.11621420378E+03  0.80419002446E+02 0.  1.
          1    1    1    2  501    0  0.17260270426E+02 -0.18286472118E+02 -0.28955691204E+02  0.38350280974E+02  0.00000000000E+00 0. -1.
         -2    1    1    2    0  502 -0.17732065984E+02  0.85069972678E+02  0.13627877447E+03  0.16162682570E+03  0.00000000000E+00 0.  1.
<mgrwt>
<rscale>  2 0.10828937E+03</rscale>
<asrwt>0</asrwt>
<pdfrwt beam="1">  1       21 0.36483925E-01 0.10828937E+03</pdfrwt>
<pdfrwt beam="2">  1       21 0.12160892E-01 0.10828937E+03</pdfrwt>
<totfact> 0.42028214E+05</totfact>
</mgrwt>
</event>
<event>
 5    1  0.1696945E+000  0.6963455E+02  0.7546771E-02  0.1361340E+00
         21   -1    0    0  503  502  0.00000000000E+00  0.00000000000E+00  0.11916165266E+04  0.11916165266E+04  0.00000000000E+00 0. -1.
         21   -1    0    0  501  503 -0.00000000000E+00 -0.00000000000E+00 -0.10963818416E+02  0.10963818416E+02  0.00000000000E+00 0.  1.
         24    1    1    2    0    0  0.36638747016E+02 -0.10944878825E+02  0.59286530475E+03  0.59951536568E+03  0.80419002446E+02 0. -1.
          1    1    1    2  501    0 -0.28360526163E+02 -0.80673497952E+01  0.21729739585E+02  0.36627628362E+02  0.00000000000E+00 0. -1.
         -2    1    1    2    0  502 -0.82782208527E+01  0.19012228620E+02  0.56605766389E+03  0.56643735102E+03  0.00000000000E+00 0.  1.
<mgrwt>
<rscale>  2 0.69634555E+02</rscale>
<asrwt>0</asrwt>
<pdfrwt beam="1">  1       21 0.18332552E+00 0.69634555E+02</pdfrwt>
<pdfrwt beam="2">  1       21 0.16867422E-02 0.69634555E+02</pdfrwt>
<totfact> 0.29741486E+05</totfact>
</mgrwt>
</event>
<event>
 5    1  0.1696945E+000  0.6476221E+02  0.7546771E-02  0.1378868E+00
         21   -1    0    0  503  502  0.00000000000E+00  0.00000000000E+00  0.41611191429E+03  0.41611191429E+03  0.00000000000E+00 0. -1.
         21   -1    0    0  501  503 -0.00000000000E+00 -0.00000000000E+00 -0.25637143318E+02  0.25637143318E+02  0.00000000000E+00 0.  1.
         24    1    1    2    0    0 -0.73605810720E+01  0.23198004066E+02  0.37844272343E+03  0.38765762784E+03  0.80419002446E+02 0. -1.
          1    1    1    2  501    0 -0.15502441743E+02 -0.13901524425E+02 -0.79977590425E+01  0.22305654688E+02  0.00000000000E+00 0. -1.
         -2    1    1    2    0  502  0.22863022815E+02 -0.92964796409E+01  0.20029806582E+02  0.31785775084E+02  0.00000000000E+00 0.  1.
<mgrwt>
<rscale>  2 0.64762212E+02</rscale>
<asrwt>0</asrwt>
<pdfrwt beam="1">  1       21 0.64017213E-01 0.64762212E+02</pdfrwt>
<pdfrwt beam="2">  1       21 0.39441762E-02 0.64762212E+02</pdfrwt>
<totfact> 0.90009467E+05</totfact>
</mgrwt>
</event>
<event>
 5    1  0.1696945E+000  0.7379627E+02  0.7546771E-02  0.1347640E+00
         21   -1    0    0  503  502  0.00000000000E+00  0.00000000000E+00  0.73359246695E+03  0.73359246695E+03  0.00000000000E+00 0.  1.
         21   -1    0    0  501  503 -0.00000000000E+00 -0.00000000000E+00 -0.71787860129E+02  0.71787860129E+02  0.00000000000E+00 0. -1.
         24    1    1    2    0    0  0.93930751736E+01 -0.16250035486E+02  0.96055333761E+01  0.83137090040E+02  0.80419002446E+02 0.  0.
          1    1    1    2  501    0 -0.36155106938E+02  0.83207891538E+01 -0.24827752100E+02  0.44641287663E+02  0.00000000000E+00 0. -1.
         -2    1    1    2    0  502  0.26762031764E+02  0.79292463322E+01  0.67702682554E+03  0.67760194937E+03  0.00000000000E+00 0.  1.
<mgrwt>
<rscale>  2 0.73796273E+02</rscale>
<asrwt>0</asrwt>
<pdfrwt beam="1">  1       21 0.11286037E+00 0.73796273E+02</pdfrwt>
<pdfrwt beam="2">  1       21 0.11044287E-01 0.73796273E+02</pdfrwt>
<totfact> 0.45251788E+04</totfact>
</mgrwt>
</event>
<event>
 5    1  0.1696945E+000  0.1405513E+03  0.7546771E-02  0.1212589E+00
         21   -1    0    0  503  502  0.00000000000E+00  0.00000000000E+00  0.33192396887E+03  0.33192396887E+03  0.00000000000E+00 0.  1.
         21   -1    0    0  501  503 -0.00000000000E+00 -0.00000000000E+00 -0.12981700995E+03  0.12981700995E+03  0.00000000000E+00 0. -1.
         24    1    1    2    0    0  0.35623908177E+02 -0.11923141993E+03  0.55732701550E+02  0.15829890811E+03  0.80419002446E+02 0. -1.
          1    1    1    2  501    0 -0.42373772566E+02  0.60742657402E+02 -0.55889137624E+02  0.92783633978E+02  0.00000000000E+00 0. -1.
         -2    1    1    2    0  502  0.67498643889E+01  0.58488762523E+02  0.20226339499E+03  0.21065843673E+03  0.00000000000E+00 0.  1.
<mgrwt>
<rscale>  2 0.14055130E+03</rscale>
<asrwt>0</asrwt>
<pdfrwt beam="1">  1       21 0.51065226E-01 0.14055130E+03</pdfrwt>
<pdfrwt beam="2">  1       21 0.19971848E-01 0.14055130E+03</pdfrwt>
<totfact> 0.86207617E+04</totfact>
</mgrwt>
</event>
<event>
 5    1  0.2098702E+000  0.1171590E+03  0.7546771E-02  0.1247859E+00
         21   -1    0    0  503  502  0.00000000000E+00  0.00000000000E+00  0.69401861814E+02  0.69401861814E+02  0.00000000000E+00 0. -1.
         21   -1    0    0  501  503 -0.00000000000E+00 -0.00000000000E+00 -0.98142468261E+03  0.98142468261E+03  0.00000000000E+00 0. -1.
         24    1    1    2    0    0 -0.96597086014E+01 -0.40471525417E+02  0.98520052653E+01  0.91079812813E+02  0.80419002446E+02 0. -1.
          1    1    1    2  501    0 -0.55329572438E+02  0.54084977776E+02 -0.87512879953E+03  0.87854252155E+03  0.00000000000E+00 0. -1.
         -2    1    1    2    0  502  0.64989281039E+02 -0.13613452358E+02 -0.46746026533E+02  0.81204210062E+02  0.00000000000E+00 0.  1.
<mgrwt>
<rscale>  2 0.11715899E+03</rscale>
<asrwt>0</asrwt>
<pdfrwt beam="1">  1       21 0.10677210E-01 0.11715899E+03</pdfrwt>
<pdfrwt beam="2">  1       21 0.15098841E+00 0.11715899E+03</pdfrwt>
<totfact> 0.22471258E+04</totfact>
</mgrwt>
</event>
<event>
 5    1  0.1696945E+000  0.1385101E+03  0.7546771E-02  0.1215348E+00
         21   -1    0    0  503  502  0.00000000000E+00  0.00000000000E+00  0.13344812982E+03  0.13344812982E+03  0.00000000000E+00 0. -1.
         21   -1    0    0  501  503 -0.00000000000E+00 -0.00000000000E+00 -0.40029567912E+03  0.40029567912E+03  0.00000000000E+00 0. -1.
         24    1    1    2    0    0  0.11750533926E+03 -0.47690103520E+02  0.11011276793E+02  0.15056664604E+03  0.80419002446E+02 0. -1.
          1    1    1    2  501    0 -0.95564510764E+02  0.37393697744E+02 -0.31918075793E+03  0.33527186071E+03  0.00000000000E+00 0. -1.
         -2    1    1    2    0  502 -0.21940828491E+02  0.10296405776E+02  0.41321931841E+02  0.47905302190E+02  0.00000000000E+00 0.  1.
<mgrwt>
<rscale>  2 0.13851007E+03</rscale>
<asrwt>0</asrwt>
<pdfrwt beam="1">  1       21 0.20530482E-01 0.13851007E+03</pdfrwt>
<pdfrwt beam="2">  1       21 0.61583950E-01 0.13851007E+03</pdfrwt>
<totfact> 0.55272712E+04</totfact>
</mgrwt>
</event>
<event>
 5    1  0.1696945E+000  0.1033838E+03  0.7546771E-02  0.1273337E+00
         21   -1    0    0  503  502  0.00000000000E+00  0.00000000000E+00  0.46238666277E+03  0.46238666277E+03  0.00000000000E+00 0.  1.
         21   -1    0    0  501  503 -0.00000000000E+00 -0.00000000000E+00 -0.26993590028E+02  0.26993590028E+02  0.00000000000E+00 0. -1.
         24    1    1    2    0    0 -0.24366113556E+02  0.38954927239E+02  0.28692840373E+03  0.30150674730E+03  0.80419002446E+02 0.  0.
          1    1    1    2  501    0  0.64935054358E+02 -0.33940635180E+02  0.83196957676E+02  0.11086145303E+03  0.00000000000E+00 0. -1.
         -2    1    1    2    0  502 -0.40568940802E+02 -0.50142920586E+01  0.65267711337E+02  0.77012052471E+02  0.00000000000E+00 0.  1.
<mgrwt>
<rscale>  2 0.10338380E+03</rscale>
<asrwt>0</asrwt>
<pdfrwt beam="1">  1       21 0.71136404E-01 0.10338380E+03</pdfrwt>
<pdfrwt beam="2">  1       21 0.41528603E-02 0.10338380E+03</pdfrwt>
<totfact> 0.66337956E+05</totfact>
</mgrwt>
</event>
<event>
 5    1  0.1696945E+000  0.8143253E+02  0.7546771E-02  0.1325035E+00
         21   -1    0    0  501  502  0.00000000000E+00  0.00000000000E+00  0.18685002862E+02  0.18685002862E+02  0.00000000000E+00 0. -1.
         21   -1    0    0  502  503 -0.00000000000E+00 -0.00000000000E+00 -0.88075386417E+03  0.88075386417E+03  0.00000000000E+00 0.  1.
         24    1    1    2    0    0  0.17004409943E+01 -0.59615310639E+02 -0.16959613289E+03  0.19694400475E+03  0.80419002446E+02 0. -1.
          1    1    1    2  501    0 -0.10442802354E+02  0.38499389203E+02 -0.78103432817E+02  0.87700634592E+02  0.00000000000E+00 0. -1.
         -2    1    1    2    0  503  0.87423613601E+01  0.21115921436E+02 -0.61436929560E+03  0.61479422769E+03  0.00000000000E+00 0.  1.
<mgrwt>
<rscale>  2 0.81432527E+02</rscale>
<asrwt>0</asrwt>
<pdfrwt beam="1">  1       21 0.28746155E-02 0.81432527E+02</pdfrwt>
<pdfrwt beam="2">  1       21 0.13550061E+00 0.81432527E+02</pdfrwt>
<totfact> 0.27455756E+05</totfact>
</mgrwt>
</event>
<event>
 5    1  0.1696945E+000  0.8407427E+02  0.7546771E-02  0.1317871E+00
         21   -1    0    0  501  502  0.00000000000E+00  0.00000000000E+00  0.28012257071E+03  0.28012257071E+03  0.00000000000E+00 0. -1.
         21   -1    0    0  502  503 -0.00000000000E+00 -0.00000000000E+00 -0.15380351691E+03  0.15380351691E+03  0.00000000000E+00 0. -1.
         24    1    1    2    0    0  0.27723386450E+02 -0.45450971518E+02 -0.72602159134E+02  0.12071729964E+03  0.80419002446E+02 0. -1.
          1    1    1    2  501    0  0.11976708994E+02  0.23409479462E+02  0.24623231172E+03  0.24763238202E+03  0.00000000000E+00 0. -1.
         -2    1    1    2    0  503 -0.39700095444E+02  0.22041492055E+02 -0.47311098788E+02  0.65576405961E+02  0.00000000000E+00 0.  1.
<mgrwt>
<rscale>  2 0.84074269E+02</rscale>
<asrwt>0</asrwt>
<pdfrwt beam="1">  1       21 0.43095780E-01 0.84074269E+02</pdfrwt>
<pdfrwt beam="2">  1       21 0.23662080E-01 0.84074269E+02</pdfrwt>
<totfact> 0.91377431E+04</totfact>
</mgrwt>
</event>
<event>
 5    1  0.1696945E+000  0.6434036E+02  0.7546771E-02  0.1380470E+00
         21   -1    0    0  503  502  0.00000000000E+00  0.00000000000E+00  0.18380727891E+04  0.18380727891E+04  0.00000000000E+00 0.  1.
         21   -1    0    0  501  503 -0.00000000000E+00 -0.00000000000E+00 -0.34714760500E+01  0.34714760500E+01  0.00000000000E+00 0.  1.
         24    1    1    2    0    0  0.50554062596E+01 -0.24389310705E+02  0.11981803297E+04  0.12011343447E+04  0.80419002446E+02 0.  1.
          1    1    1    2  501    0  0.15211588191E+02  0.17264466952E+02  0.72153260555E+02  0.75733395825E+02  0.00000000000E+00 0. -1.
         -2    1    1    2    0  502 -0.20266994450E+02  0.71248437525E+01  0.56426772283E+03  0.56467652465E+03  0.00000000000E+00 0.  1.
<mgrwt>
<rscale>  2 0.64340357E+02</rscale>
<asrwt>0</asrwt>
<pdfrwt beam="1">  1       21 0.28277965E+00 0.64340357E+02</pdfrwt>
<pdfrwt beam="2">  1       21 0.53407471E-03 0.64340357E+02</pdfrwt>
<totfact> 0.48179249E+05</totfact>
</mgrwt>
</event>
<event>
 5    1  0.1696945E+000  0.6514331E+02  0.7546771E-02  0.1377433E+00
         21   -1    0    0  503  502  0.00000000000E+00  0.00000000000E+00  0.11858677714E+04  0.11858677714E+04  0.00000000000E+00 0.  1.
         21   -1    0    0  501  503 -0.00000000000E+00 -0.00000000000E+00 -0.39290062179E+01  0.39290062179E+01  0.00000000000E+00 0. -1.
         24    1    1    2    0    0  0.46715793540E+01 -0.57014808906E+01  0.86193764928E+03  0.86571245674E+03  0.80419002446E+02 0.  1.
          1    1    1    2  501    0  0.18903659857E+02  0.15056445702E+02  0.11440893053E+03  0.11693352085E+03  0.00000000000E+00 0. -1.
         -2    1    1    2    0  502 -0.23575239211E+02 -0.93549648115E+01  0.20559218541E+03  0.20715080008E+03  0.00000000000E+00 0.  1.
<mgrwt>
<rscale>  2 0.65143308E+02</rscale>
<asrwt>0</asrwt>
<pdfrwt beam="1">  1       21 0.18244091E+00 0.65143308E+02</pdfrwt>
<pdfrwt beam="2">  1       21 0.60446344E-03 0.65143308E+02</pdfrwt>
<totfact> 0.14843941E+06</totfact>
</mgrwt>
</event>
<event>
 5    1  0.1696945E+000  0.8655127E+02  0.7546771E-02  0.1311425E+00
         21   -1    0    0  501  502  0.00000000000E+00  0.00000000000E+00  0.45330920954E+03  0.45330920954E+03  0.00000000000E+00 0. -1.
         21   -1    0    0  502  503 -0.00000000000E+00 -0.00000000000E+00 -0.79574888277E+02  0.79574888277E+02  0.00000000000E+00 0.  1.
         24    1    1    2    0    0  0.33266398558E+02  0.40392974721E+02  0.11661626397E+02  0.96651203637E+02  0.80419002446E+02 0.  1.
          1    1    1    2  501    0 -0.26029969119E+02  0.87677721079E+01  0.38178755410E+03  0.38277430633E+03  0.00000000000E+00 0. -1.
         -2    1    1    2    0  503 -0.72364294393E+01 -0.49160746828E+02 -0.19714859239E+02  0.53458587847E+02  0.00000000000E+00 0.  1.
<mgrwt>
<rscale>  2 0.86551267E+02</rscale>
<asrwt>0</asrwt>
<pdfrwt beam="1">  1       21 0.69739877E-01 0.86551267E+02</pdfrwt>
<pdfrwt beam="2">  1       21 0.12242291E-01 0.86551267E+02</pdfrwt>
<totfact> 0.11055725E+05</totfact>
</mgrwt>
</event>
<event>
 5    1  0.1696945E+000  0.8263461E+02  0.7546771E-02  0.1321737E+00
         21   -1    0    0  501  502  0.00000000000E+00  0.00000000000E+00  0.41042105316E+02  0.41042105316E+02  0.00000000000E+00 0. -1.
         21   -1    0    0  502  503 -0.00000000000E+00 -0.00000000000E+00 -0.42563898517E+03  0.42563898517E+03  0.00000000000E+00 0. -1.
         24    1    1    2    0    0 -0.62920030864E+01 -0.42573778859E+01 -0.31253114221E+03  0.32280124748E+03  0.80419002446E+02 0. -1.
          1    1    1    2  501    0  0.41194848578E+02 -0.15934739859E+02  0.16034945124E+02  0.46989902627E+02  0.00000000000E+00 0. -1.
         -2    1    1    2    0  503 -0.34902845492E+02  0.20192117745E+02 -0.88100682770E+02  0.96889940381E+02  0.00000000000E+00 0.  1.
<mgrwt>
<rscale>  2 0.82634609E+02</rscale>
<asrwt>0</asrwt>
<pdfrwt beam="1">  1       21 0.63141701E-02 0.82634609E+02</pdfrwt>
<pdfrwt beam="2">  1       21 0.65482920E-01 0.82634609E+02</pdfrwt>
<totfact> 0.39453296E+05</totfact>
</mgrwt>
</event>
<event>
 5    1  0.1696945E+000  0.7677135E+02  0.7546771E-02  0.1338472E+00
         21   -1    0    0  503  502  0.00000000000E+00  0.00000000000E+00  0.84722802760E+02  0.84722802760E+02  0.00000000000E+00 0. -1.
         21   -1    0    0  501  503 -0.00000000000E+00 -0.00000000000E+00 -0.19747829013E+03  0.19747829013E+03  0.00000000000E+00 0. -1.
         24    1    1    2    0    0 -0.54258923431E+02  0.11636511881E+02  0.19128362192E+02  0.99561786721E+02  0.80419002446E+02 0. -1.
          1    1    1    2  501    0  0.18964418969E+02 -0.71042021376E+01 -0.14371873115E+03  0.14513852886E+03  0.00000000000E+00 0. -1.
         -2    1    1    2    0  502  0.35294504462E+02 -0.45323097435E+01  0.11834881589E+02  0.37500777313E+02  0.00000000000E+00 0.  1.
<mgrwt>
<rscale>  2 0.76771349E+02</rscale>
<asrwt>0</asrwt>
<pdfrwt beam="1">  1       21 0.13034277E-01 0.76771349E+02</pdfrwt>
<pdfrwt beam="2">  1       21 0.30381275E-01 0.76771349E+02</pdfrwt>
<totfact> 0.53041276E+05</totfact>
</mgrwt>
</event>
<event>
 5    1  0.1696945E+000  0.6540036E+02  0.7546771E-02  0.1376472E+00
         21   -1    0    0  503  502  0.00000000000E+00  0.00000000000E+00  0.13434047756E+02  0.13434047756E+02  0.00000000000E+00 0. -1.
         21   -1    0    0  501  503 -0.00000000000E+00 -0.00000000000E+00 -0.32463478059E+03  0.32463478059E+03  0.00000000000E+00 0.  1.
         24    1    1    2    0    0 -0.68912697771E+00 -0.32001533334E+01 -0.18998677903E+03  0.20633203348E+03  0.80419002446E+02 0.  1.
          1    1    1    2  501    0 -0.23572574008E+02 -0.60719318837E+01 -0.73296114153E+02  0.77232473430E+02  0.00000000000E+00 0. -1.
         -2    1    1    2    0  502  0.24261700985E+02  0.92720852170E+01 -0.47917839646E+02  0.54504321437E+02  0.00000000000E+00 0.  1.
<mgrwt>
<rscale>  2 0.65400365E+02</rscale>
<asrwt>0</asrwt>
<pdfrwt beam="1">  1       21 0.20667767E-02 0.65400365E+02</pdfrwt>
<pdfrwt beam="2">  1       21 0.49943809E-01 0.65400365E+02</pdfrwt>
<totfact> 0.42464606E+06</totfact>
</mgrwt>
</event>
<event>
 5    1  0.1696945E+000  0.7204051E+02  0.7546771E-02  0.1353289E+00
         21   -1    0    0  503  502  0.00000000000E+00  0.00000000000E+00  0.32405365991E+03  0.32405365991E+03  0.00000000000E+00 0. -1.
         21   -1    0    0  501  503 -0.00000000000E+00 -0.00000000000E+00 -0.45560743838E+02  0.45560743838E+02  0.00000000000E+00 0.  1.
         24    1    1    2    0    0 -0.23211011642E+02  0.40783975377E+02  0.12782722846E+03  0.15814265711E+03  0.80419002446E+02 0.  0.
          1    1    1    2  501    0  0.20003995114E+02 -0.15035484824E+02 -0.24128480204E+02  0.34762180331E+02  0.00000000000E+00 0. -1.
         -2    1    1    2    0  502  0.32070165287E+01 -0.25748490554E+02  0.17479416782E+03  0.17670956631E+03  0.00000000000E+00 0.  1.
<mgrwt>
<rscale>  2 0.72040508E+02</rscale>
<asrwt>0</asrwt>
<pdfrwt beam="1">  1       21 0.49854408E-01 0.72040508E+02</pdfrwt>
<pdfrwt beam="2">  1       21 0.70093454E-02 0.72040508E+02</pdfrwt>
<totfact> 0.58276998E+05</totfact>
</mgrwt>
</event>
<event>
 5    1  0.1696945E+000  0.1547791E+03  0.7546771E-02  0.1194721E+00
         21   -1    0    0  503  502  0.00000000000E+00  0.00000000000E+00  0.19006551062E+03  0.19006551062E+03  0.00000000000E+00 0. -1.
         21   -1    0    0  501  503 -0.00000000000E+00 -0.00000000000E+00 -0.14103276382E+03  0.14103276382E+03  0.00000000000E+00 0.  1.
         24    1    1    2    0    0  0.19325355886E+02  0.81031629984E+02 -0.26533436091E+02  0.11878902989E+03  0.80419002446E+02 0.  1.
          1    1    1    2  501    0 -0.78250710955E+02 -0.10432297804E+03  0.28781802935E+02  0.13354718152E+03  0.00000000000E+00 0. -1.
         -2    1    1    2    0  502  0.58925355069E+02  0.23291348053E+02  0.46784379958E+02  0.78762063026E+02  0.00000000000E+00 0.  1.
<mgrwt>
<rscale>  2 0.15477906E+03</rscale>
<asrwt>0</asrwt>
<pdfrwt beam="1">  1       21 0.29240848E-01 0.15477906E+03</pdfrwt>
<pdfrwt beam="2">  1       21 0.21697348E-01 0.15477906E+03</pdfrwt>
<totfact> 0.22421590E+05</totfact>
</mgrwt>
</event>
<event>
 5    1  0.1696945E+000  0.9991789E+02  0.7546771E-02  0.1280469E+00
         21   -1    0    0  501  502  0.00000000000E+00  0.00000000000E+00  0.11965809443E+04  0.11965809443E+04  0.00000000000E+00 0. -1.
         21   -1    0    0  502  503 -0.00000000000E+00 -0.00000000000E+00 -0.12611203510E+02  0.12611203510E+02  0.00000000000E+00 0. -1.
         24    1    1    2    0    0 -0.42780103235E+02  0.71960891274E+02  0.34357445761E+03  0.36265566448E+03  0.80419002446E+02 0. -1.
          1    1    1    2  501    0  0.17704018427E+02 -0.27503140917E+02  0.59451916084E+03  0.59541824598E+03  0.00000000000E+00 0. -1.
         -2    1    1    2    0  503  0.25076084808E+02 -0.44457750356E+02  0.24587612235E+03  0.25111823737E+03  0.00000000000E+00 0.  1.
<mgrwt>
<rscale>  2 0.99917888E+02</rscale>
<asrwt>0</asrwt>
<pdfrwt beam="1">  1       21 0.18408929E+00 0.99917888E+02</pdfrwt>
<pdfrwt beam="2">  1       21 0.19401861E-02 0.99917888E+02</pdfrwt>
<totfact> 0.23099377E+05</totfact>
</mgrwt>
</event>
<event>
 5    1  0.1696945E+000  0.9783550E+02  0.7546771E-02  0.1284915E+00
         21   -1    0    0  501  502  0.00000000000E+00  0.00000000000E+00  0.12331564900E+04  0.12331564900E+04  0.00000000000E+00 0.  1.
         21   -1    0    0  502  503 -0.00000000000E+00 -0.00000000000E+00 -0.10799995433E+02  0.10799995433E+02  0.00000000000E+00 0. -1.
         24    1    1    2    0    0 -0.41125235339E+01 -0.65591966001E+02  0.32289539216E+03  0.33918707093E+03  0.80419002446E+02 0.  0.
          1    1    1    2  501    0  0.21007512123E+02 -0.29555120725E+01  0.37202264957E+03  0.37262702856E+03  0.00000000000E+00 0. -1.
         -2    1    1    2    0  503 -0.16894988589E+02  0.68547478074E+02  0.52743845280E+03  0.53214238590E+03  0.00000000000E+00 0.  1.
<mgrwt>
<rscale>  2 0.97835504E+02</rscale>
<asrwt>0</asrwt>
<pdfrwt beam="1">  1       21 0.18971627E+00 0.97835504E+02</pdfrwt>
<pdfrwt beam="2">  1       21 0.16615387E-02 0.97835504E+02</pdfrwt>
<totfact> 0.27256394E+05</totfact>
</mgrwt>
</event>
<event>
 5    1  0.1696945E+000  0.6241530E+02  0.7546771E-02  0.1387967E+00
         21   -1    0    0  503  502  0.00000000000E+00  0.00000000000E+00  0.20654515585E+03  0.20654515585E+03  0.00000000000E+00 0. -1.
         21   -1    0    0  501  503 -0.00000000000E+00 -0.00000000000E+00 -0.33119350706E+02  0.33119350706E+02  0.00000000000E+00 0. -1.
         24    1    1    2    0    0  0.50707223146E+01 -0.49887813185E+01  0.27345727537E+02  0.85238517894E+02  0.80419002446E+02 0. -1.
          1    1    1    2  501    0  0.27928026974E+01  0.23667206128E+02  0.41115454425E+02  0.47522804898E+02  0.00000000000E+00 0. -1.
         -2    1    1    2    0  502 -0.78635250120E+01 -0.18678424810E+02  0.10496462318E+03  0.10690318376E+03  0.00000000000E+00 0.  1.
<mgrwt>
<rscale>  2 0.62415301E+02</rscale>
<asrwt>0</asrwt>
<pdfrwt beam="1">  1       21 0.31776177E-01 0.62415301E+02</pdfrwt>
<pdfrwt beam="2">  1       21 0.50952848E-02 0.62415301E+02</pdfrwt>
<totfact> 0.23865074E+06</totfact>
</mgrwt>
</event>
<event>
 5    1  0.1696945E+000  0.6894224E+02  0.7546771E-02  0.1363727E+00
         21   -1    0    0  501  502  0.00000000000E+00  0.00000000000E+00  0.39199229963E+03  0.39199229963E+03  0.00000000000E+00 0. -1.
         21   -1    0    0  502  503 -0.00000000000E+00 -0.00000000000E+00 -0.13241100648E+02  0.13241100648E+02  0.00000000000E+00 0. -1.
         24    1    1    2    0    0  0.30510082808E+02  0.87683541320E+00  0.27438929961E+03  0.28755579926E+03  0.80419002446E+02 0. -1.
          1    1    1    2  501    0 -0.18764968380E+02 -0.21251423992E+02  0.74194698965E+02  0.79426698374E+02  0.00000000000E+00 0. -1.
         -2    1    1    2    0  503 -0.11745114427E+02  0.20374588579E+02  0.30167200407E+02  0.38250902644E+02  0.00000000000E+00 0.  1.
<mgrwt>
<rscale>  2 0.68942237E+02</rscale>
<asrwt>0</asrwt>
<pdfrwt beam="1">  1       21 0.60306499E-01 0.68942237E+02</pdfrwt>
<pdfrwt beam="2">  1       21 0.20370927E-02 0.68942237E+02</pdfrwt>
<totfact> 0.29604694E+06</totfact>
</mgrwt>
</event>
<event>
 5    1  0.1696945E+000  0.7547688E+02  0.7546771E-02  0.1342401E+00
         21   -1    0    0  501  502  0.00000000000E+00  0.00000000000E+00  0.15608840267E+03  0.15608840267E+03  0.00000000000E+00 0.  1.
         21   -1    0    0  502  503 -0.00000000000E+00 -0.00000000000E+00 -0.14381363657E+03  0.14381363657E+03  0.00000000000E+00 0.  1.
         24    1    1    2    0    0 -0.19238573411E+02  0.43539181310E+02  0.10703886315E+03  0.14209263596E+03  0.80419002446E+02 0.  1.
          1    1    1    2  501    0  0.22853155942E+02 -0.12103461193E+02  0.23769587588E+02  0.35124831722E+02  0.00000000000E+00 0. -1.
         -2    1    1    2    0  503 -0.36145825316E+01 -0.31435720117E+02 -0.11853368464E+03  0.12268457156E+03  0.00000000000E+00 0.  1.
<mgrwt>
<rscale>  2 0.75476883E+02</rscale>
<asrwt>0</asrwt>
<pdfrwt beam="1">  1       21 0.24013600E-01 0.75476883E+02</pdfrwt>
<pdfrwt beam="2">  1       21 0.22125175E-01 0.75476883E+02</pdfrwt>
<totfact> 0.31895724E+05</totfact>
</mgrwt>
</event>
<event>
 5    1  0.1696945E+000  0.1154513E+03  0.7546771E-02  0.1250795E+00
         21   -1    0    0  503  502  0.00000000000E+00  0.00000000000E+00  0.24018232419E+03  0.24018232419E+03  0.00000000000E+00 0. -1.
         21   -1    0    0  501  503 -0.00000000000E+00 -0.00000000000E+00 -0.71555254039E+02  0.71555254039E+02  0.00000000000E+00 0. -1.
         24    1    1    2    0    0 -0.64671344974E+02 -0.51101609675E+02  0.57692832483E+02  0.12879998543E+03  0.80419002446E+02 0. -1.
          1    1    1    2  501    0  0.32310247852E+02  0.70825999869E+02  0.14317071776E+02  0.79153350642E+02  0.00000000000E+00 0. -1.
         -2    1    1    2    0  502  0.32361097122E+02 -0.19724390193E+02  0.96617165889E+02  0.10378424216E+03  0.00000000000E+00 0.  1.
<mgrwt>
<rscale>  2 0.11545125E+03</rscale>
<asrwt>0</asrwt>
<pdfrwt beam="1">  1       21 0.36951126E-01 0.11545125E+03</pdfrwt>
<pdfrwt beam="2">  1       21 0.11008501E-01 0.11545125E+03</pdfrwt>
<totfact> 0.48807715E+05</totfact>
</mgrwt>
</event>
<event>
 5    1  0.1696945E+000  0.7905864E+02  0.7546771E-02  0.1331744E+00
         21   -1    0    0  503  502  0.00000000000E+00  0.00000000000E+00  0.12986474329E+02  0.12986474329E+02  0.00000000000E+00 0. -1.
         21   -1    0    0  501  503 -0.00000000000E+00 -0.00000000000E+00 -0.81840469819E+03  0.81840469819E+03  0.00000000000E+00 0.  1.
         24    1    1    2    0    0  0.44706317321E+02  0.10019761204E+02 -0.38853382969E+03  0.39940556229E+03  0.80419002446E+02 0. -1.
          1    1    1    2  501    0 -0.19380491399E+02  0.18935224975E+02 -0.37152076727E+03  0.37250748543E+03  0.00000000000E+00 0. -1.
         -2    1    1    2    0  502 -0.25325825922E+02 -0.28954986179E+02 -0.45363626910E+02  0.59478124800E+02  0.00000000000E+00 0.  1.
<mgrwt>
<rscale>  2 0.79058640E+02</rscale>
<asrwt>0</asrwt>
<pdfrwt beam="1">  1       21 0.19979184E-02 0.79058640E+02</pdfrwt>
<pdfrwt beam="2">  1       21 0.12590846E+00 0.79058640E+02</pdfrwt>
<totfact> 0.58955394E+05</totfact>
</mgrwt>
</event>
<event>
 5    1  0.1696945E+000  0.1139564E+03  0.7546771E-02  0.1253414E+00
         21   -1    0    0  503  502  0.00000000000E+00  0.00000000000E+00  0.18153926036E+03  0.18153926036E+03  0.00000000000E+00 0. -1.
         21   -1    0    0  501  503 -0.00000000000E+00 -0.00000000000E+00 -0.82085611820E+02  0.82085611820E+02  0.00000000000E+00 0. -1.
         24    1    1    2    0    0  0.82597447826E+02  0.32191208130E+02  0.95462208800E+02  0.15309755560E+03  0.80419002446E+02 0. -1.
          1    1    1    2  501    0 -0.21032016585E+02 -0.40951577597E+02 -0.92272712481E+01  0.46952315853E+02  0.00000000000E+00 0. -1.
         -2    1    1    2    0  502 -0.61565431241E+02  0.87603694668E+01  0.13218710990E+02  0.63575000727E+02  0.00000000000E+00 0.  1.
<mgrwt>
<rscale>  2 0.11395641E+03</rscale>
<asrwt>0</asrwt>
<pdfrwt beam="1">  1       21 0.27929117E-01 0.11395641E+03</pdfrwt>
<pdfrwt beam="2">  1       21 0.12628556E-01 0.11395641E+03</pdfrwt>
<totfact> 0.65917742E+05</totfact>
</mgrwt>
</event>
<event>
 5    1  0.1696945E+000  0.9590855E+02  0.7546771E-02  0.1289143E+00
         21   -1    0    0  501  502  0.00000000000E+00  0.00000000000E+00  0.58743965701E+02  0.58743965701E+02  0.00000000000E+00 0. -1.
         21   -1    0    0  502  503 -0.00000000000E+00 -0.00000000000E+00 -0.22543777915E+03  0.22543777915E+03  0.00000000000E+00 0.  1.
         24    1    1    2    0    0  0.34508984693E+02 -0.32558535211E+02 -0.12005929850E+03  0.15209332448E+03  0.80419002446E+02 0.  1.
          1    1    1    2  501    0  0.27546538794E+02  0.22527405715E+02  0.19721651516E+02  0.40684632803E+02  0.00000000000E+00 0. -1.
         -2    1    1    2    0  503 -0.62055523487E+02  0.10031129496E+02 -0.66356166461E+02  0.91403787567E+02  0.00000000000E+00 0.  1.
<mgrwt>
<rscale>  2 0.95908551E+02</rscale>
<asrwt>0</asrwt>
<pdfrwt beam="1">  1       21 0.90375332E-02 0.95908551E+02</pdfrwt>
<pdfrwt beam="2">  1       21 0.34682735E-01 0.95908551E+02</pdfrwt>
<totfact> 0.77878343E+05</totfact>
</mgrwt>
</event>
<event>
 5    1  0.1696945E+000  0.9495656E+02  0.7546771E-02  0.1291274E+00
         21   -1    0    0  501  502  0.00000000000E+00  0.00000000000E+00  0.24609418244E+02  0.24609418244E+02  0.00000000000E+00 0.  1.
         21   -1    0    0  502  503 -0.00000000000E+00 -0.00000000000E+00 -0.46028283592E+03  0.46028283592E+03  0.00000000000E+00 0.  1.
         24    1    1    2    0    0 -0.65132800116E+02 -0.30357947966E+02 -0.32240681427E+03  0.33996655202E+03  0.80419002446E+02 0.  1.
          1    1    1    2  501    0  0.20761341819E+02  0.31445279208E+02 -0.22497586675E+02  0.43885992125E+02  0.00000000000E+00 0. -1.
         -2    1    1    2    0  503  0.44371458297E+02 -0.10873312425E+01 -0.90769016731E+02  0.10103971001E+03  0.00000000000E+00 0.  1.
<mgrwt>
<rscale>  2 0.94956559E+02</rscale>
<asrwt>0</asrwt>
<pdfrwt beam="1">  1       21 0.37860646E-02 0.94956559E+02</pdfrwt>
<pdfrwt beam="2">  1       21 0.70812740E-01 0.94956559E+02</pdfrwt>
<totfact> 0.78026641E+05</totfact>
</mgrwt>
</event>
<event>
 5    1  0.1696945E+000  0.8998970E+02  0.7546771E-02  0.1302877E+00
         21   -1    0    0  501  502  0.00000000000E+00  0.00000000000E+00  0.24284703373E+04  0.24284703373E+04  0.00000000000E+00 0.  1.
         21   -1    0    0  502  503 -0.00000000000E+00 -0.00000000000E+00 -0.39790750548E+01  0.39790750548E+01  0.00000000000E+00 0. -1.
         24    1    1    2    0    0 -0.45372687684E+02 -0.47767253651E+01  0.17133257797E+04  0.17158187379E+04  0.80419002446E+02 0.  0.
          1    1    1    2  501    0 -0.17827117065E+02  0.15248135543E+02  0.23679044864E+03  0.23794963397E+03  0.00000000000E+00 0. -1.
         -2    1    1    2    0  503  0.63199804750E+02 -0.10471410178E+02  0.47437503384E+03  0.47868104045E+03  0.00000000000E+00 0.  1.
<mgrwt>
<rscale>  2 0.89989700E+02</rscale>
<asrwt>0</asrwt>
<pdfrwt beam="1">  1       21 0.37360964E+00 0.89989700E+02</pdfrwt>
<pdfrwt beam="2">  1       21 0.61216733E-03 0.89989700E+02</pdfrwt>
<totfact> 0.11801413E+05</totfact>
</mgrwt>
</event>
<event>
 5    1  0.1696945E+000  0.8976802E+02  0.7546771E-02  0.1303414E+00
         21   -1    0    0  501  502  0.00000000000E+00  0.00000000000E+00  0.47362161110E+03  0.47362161110E+03  0.00000000000E+00 0. -1.
         21   -1    0    0  502  503 -0.00000000000E+00 -0.00000000000E+00 -0.21934541081E+02  0.21934541081E+02  0.00000000000E+00 0.  1.
         24    1    1    2    0    0  0.12919240161E+01  0.19128913303E+02  0.15558627130E+03  0.17618708285E+03  0.80419002446E+02 0.  0.
          1    1    1    2  501    0 -0.36607651941E+02 -0.41281187420E+02  0.25472977406E+03  0.26063674800E+03  0.00000000000E+00 0. -1.
         -2    1    1    2    0  503  0.35315727925E+02  0.22152274117E+02  0.41371024656E+02  0.58732321327E+02  0.00000000000E+00 0.  1.
<mgrwt>
<rscale>  2 0.89768024E+02</rscale>
<asrwt>0</asrwt>
<pdfrwt beam="1">  1       21 0.72864856E-01 0.89768024E+02</pdfrwt>
<pdfrwt beam="2">  1       21 0.33745451E-02 0.89768024E+02</pdfrwt>
<totfact> 0.88526819E+05</totfact>
</mgrwt>
</event>
<event>
 5    1  0.1696945E+000  0.9519414E+02  0.7546771E-02  0.1290739E+00
         21   -1    0    0  501  502  0.00000000000E+00  0.00000000000E+00  0.95713044728E+02  0.95713044728E+02  0.00000000000E+00 0.  1.
         21   -1    0    0  502  503 -0.00000000000E+00 -0.00000000000E+00 -0.99979238520E+02  0.99979238520E+02  0.00000000000E+00 0. -1.
         24    1    1    2    0    0  0.26482200218E+02 -0.57720873274E+02  0.11840189253E+02  0.10315237358E+03  0.80419002446E+02 0.  0.
          1    1    1    2  501    0  0.54008690547E+01  0.55710093013E+02  0.16400306444E+01  0.55995299362E+02  0.00000000000E+00 0. -1.
         -2    1    1    2    0  503 -0.31883069272E+02  0.20107802608E+01 -0.17746413689E+02  0.36544610304E+02  0.00000000000E+00 0.  1.
<mgrwt>
<rscale>  2 0.95194141E+02</rscale>
<asrwt>0</asrwt>
<pdfrwt beam="1">  1       21 0.14725084E-01 0.95194141E+02</pdfrwt>
<pdfrwt beam="2">  1       21 0.15381421E-01 0.95194141E+02</pdfrwt>
<totfact> 0.15041793E+06</totfact>
</mgrwt>
</event>
<event>
 5    1  0.1696945E+000  0.1245236E+03  0.7546771E-02  0.1235816E+00
         21   -1    0    0  501  502  0.00000000000E+00  0.00000000000E+00  0.30885227615E+03  0.30885227615E+03  0.00000000000E+00 0. -1.
         21   -1    0    0  502  503 -0.00000000000E+00 -0.00000000000E+00 -0.12842557978E+03  0.12842557978E+03  0.00000000000E+00 0.  1.
         24    1    1    2    0    0  0.82833898339E+02 -0.50102717026E+02  0.99242729656E+02  0.16027498966E+03  0.80419002446E+02 0. -1.
          1    1    1    2  501    0 -0.55727972691E+02  0.70069351446E+02  0.16442099133E+03  0.18721533950E+03  0.00000000000E+00 0. -1.
         -2    1    1    2    0  503 -0.27105925648E+02 -0.19966634420E+02 -0.83237024616E+02  0.89787526763E+02  0.00000000000E+00 0.  1.
<mgrwt>
<rscale>  2 0.12452360E+03</rscale>
<asrwt>0</asrwt>
<pdfrwt beam="1">  1       21 0.47515734E-01 0.12452360E+03</pdfrwt>
<pdfrwt beam="2">  1       21 0.19757782E-01 0.12452360E+03</pdfrwt>
<totfact> 0.10269205E+05</totfact>
</mgrwt>
</event>
<event>
 5    1  0.1696945E+000  0.1302993E+03  0.7546771E-02  0.1227012E+00
         21   -1    0    0  503  502  0.00000000000E+00  0.00000000000E+00  0.18563413101E+03  0.18563413101E+03  0.00000000000E+00 0. -1.
         21   -1    0    0  501  503 -0.00000000000E+00 -0.00000000000E+00 -0.11140389842E+03  0.11140389842E+03  0.00000000000E+00 0. -1.
         24    1    1    2    0    0  0.80942655384E+02 -0.84135552879E+02  0.81245209627E+02  0.16339677096E+03  0.80419002446E+02 0. -1.
          1    1    1    2  501    0 -0.46739891722E+02  0.32623847969E+02 -0.33787813730E+02  0.66261220115E+02  0.00000000000E+00 0. -1.
         -2    1    1    2    0  502 -0.34202763662E+02  0.51511704909E+02  0.26772836691E+02  0.67380038359E+02  0.00000000000E+00 0.  1.
<mgrwt>
<rscale>  2 0.13029928E+03</rscale>
<asrwt>0</asrwt>
<pdfrwt beam="1">  1       21 0.28559097E-01 0.13029928E+03</pdfrwt>
<pdfrwt beam="2">  1       21 0.17139061E-01 0.13029928E+03</pdfrwt>
<totfact> 0.36438195E+05</totfact>
</mgrwt>
</event>
<event>
 5    1  0.1696945E+000  0.1395261E+03  0.7546771E-02  0.1213968E+00
         21   -1    0    0  501  502  0.00000000000E+00  0.00000000000E+00  0.16986551725E+03  0.16986551725E+03  0.00000000000E+00 0. -1.
         21   -1    0    0  502  503 -0.00000000000E+00 -0.00000000000E+00 -0.31490055150E+03  0.31490055150E+03  0.00000000000E+00 0.  1.
         24    1    1    2    0    0 -0.70692095778E+02  0.10134154715E+03  0.58341845143E+02  0.15855115399E+03  0.80419002446E+02 0. -1.
          1    1    1    2  501    0  0.50555990590E+02 -0.32985501889E+02  0.40135509856E+02  0.72490072912E+02  0.00000000000E+00 0. -1.
         -2    1    1    2    0  503  0.20136105189E+02 -0.68356045257E+02 -0.24351238925E+03  0.25372484185E+03  0.00000000000E+00 0.  1.
<mgrwt>
<rscale>  2 0.13952612E+03</rscale>
<asrwt>0</asrwt>
<pdfrwt beam="1">  1       21 0.26133157E-01 0.13952612E+03</pdfrwt>
<pdfrwt beam="2">  1       21 0.48446238E-01 0.13952612E+03</pdfrwt>
<totfact> 0.58050156E+04</totfact>
</mgrwt>
</event>
<event>
 5    1  0.1696945E+000  0.7799123E+02  0.7546771E-02  0.1334851E+00
         21   -1    0    0  501  502  0.00000000000E+00  0.00000000000E+00  0.11256581189E+04  0.11256581189E+04  0.00000000000E+00 0. -1.
         21   -1    0    0  502  503 -0.00000000000E+00 -0.00000000000E+00 -0.85327651529E+01  0.85327651529E+01  0.00000000000E+00 0. -1.
         24    1    1    2    0    0  0.55260383449E+02 -0.13233702806E+02  0.68609802943E+03  0.69312809985E+03  0.80419002446E+02 0. -1.
          1    1    1    2  501    0 -0.34203637182E+02  0.12590418597E+02  0.40886216021E+03  0.41048346312E+03  0.00000000000E+00 0. -1.
         -2    1    1    2    0  503 -0.21056746267E+02  0.64328420880E+00  0.22165164098E+02  0.30579321075E+02  0.00000000000E+00 0.  1.
<mgrwt>
<rscale>  2 0.77991226E+02</rscale>
<asrwt>0</asrwt>
<pdfrwt beam="1">  1       21 0.17317805E+00 0.77991226E+02</pdfrwt>
<pdfrwt beam="2">  1       21 0.13127340E-02 0.77991226E+02</pdfrwt>
<totfact> 0.51196725E+05</totfact>
</mgrwt>
</event>
<event>
 5    1  0.1696945E+000  0.1212719E+03  0.7546771E-02  0.1241013E+00
         21   -1    0    0  501  502  0.00000000000E+00  0.00000000000E+00  0.26864843246E+03  0.26864843246E+03  0.00000000000E+00 0.  1.
         21   -1    0    0  502  503 -0.00000000000E+00 -0.00000000000E+00 -0.11264268810E+03  0.11264268810E+03  0.00000000000E+00 0.  1.
         24    1    1    2    0    0 -0.76678763850E+02 -0.35353822936E+02  0.64433549912E+02  0.13322321093E+03  0.80419002446E+02 0.  1.
          1    1    1    2  501    0 -0.74067716404E+01 -0.22621969324E+02  0.13500070552E+03  0.13708320194E+03  0.00000000000E+00 0. -1.
         -2    1    1    2    0  503  0.84085535490E+02  0.57975792260E+02 -0.43428511077E+02  0.11098470769E+03  0.00000000000E+00 0.  1.
<mgrwt>
<rscale>  2 0.12127189E+03</rscale>
<asrwt>0</asrwt>
<pdfrwt beam="1">  1       21 0.41330528E-01 0.12127189E+03</pdfrwt>
<pdfrwt beam="2">  1       21 0.17329644E-01 0.12127189E+03</pdfrwt>
<totfact> 0.17341202E+05</totfact>
</mgrwt>
</event>
<event>
 5    1  0.1696945E+000  0.6856893E+02  0.7546771E-02  0.1365028E+00
         21   -1    0    0  503  502  0.00000000000E+00  0.00000000000E+00  0.75205462877E+02  0.75205462877E+02  0.00000000000E+00 0. -1.
         21   -1    0    0  501  503 -0.00000000000E+00 -0.00000000000E+00 -0.69583282005E+02  0.69583282005E+02  0.00000000000E+00 0. -1.
         24    1    1    2    0    0  0.10071310764E+02  0.28943828066E+02  0.22108787480E+02  0.88854886877E+02  0.80419002446E+02 0. -1.
          1    1    1    2  501    0 -0.24546215350E+02 -0.83946272271E+01 -0.16599333230E+02  0.30798121987E+02  0.00000000000E+00 0. -1.
         -2    1    1    2    0  502  0.14474904586E+02 -0.20549200839E+02  0.11272662166E+00  0.25135736019E+02  0.00000000000E+00 0.  1.
<mgrwt>
<rscale>  2 0.68568933E+02</rscale>
<asrwt>0</asrwt>
<pdfrwt beam="1">  1       21 0.11570071E-01 0.68568933E+02</pdfrwt>
<pdfrwt beam="2">  1       21 0.10705120E-01 0.68568933E+02</pdfrwt>
<totfact> 0.42769488E+06</totfact>
</mgrwt>
</event>
<event>
 5    1  0.3424625E+000  0.7377291E+02  0.7546771E-02  0.1347714E+00
         21   -1    0    0  501  502  0.00000000000E+00  0.00000000000E+00  0.46481271151E+02  0.46481271151E+02  0.00000000000E+00 0.  1.
         21   -1    0    0  502  503 -0.00000000000E+00 -0.00000000000E+00 -0.14952459166E+04  0.14952459166E+04  0.00000000000E+00 0.  1.
         24    1    1    2    0    0  0.26259163424E+02  0.15886586151E+02 -0.15027230715E+02  0.87378263319E+02  0.80419002446E+02 0.  1.
          1    1    1    2  501    0  0.56766830448E+01 -0.27049582877E+02 -0.87942218601E+01  0.29004189392E+02  0.00000000000E+00 0. -1.
         -2    1    1    2    0  503 -0.31935846469E+02  0.11162996726E+02 -0.14249431929E+04  0.14253447351E+04  0.00000000000E+00 0.  1.
<mgrwt>
<rscale>  2 0.73772912E+02</rscale>
<asrwt>0</asrwt>
<pdfrwt beam="1">  1       21 0.71509648E-02 0.73772912E+02</pdfrwt>
<pdfrwt beam="2">  1       21 0.23003783E+00 0.73772912E+02</pdfrwt>
<totfact> 0.14784727E+04</totfact>
</mgrwt>
</event>
<event>
 5    1  0.1696945E+000  0.8673586E+02  0.7546771E-02  0.1310954E+00
         21   -1    0    0  501  502  0.00000000000E+00  0.00000000000E+00  0.29710302972E+02  0.29710302972E+02  0.00000000000E+00 0.  1.
         21   -1    0    0  502  503 -0.00000000000E+00 -0.00000000000E+00 -0.41386557877E+03  0.41386557877E+03  0.00000000000E+00 0. -1.
         24    1    1    2    0    0  0.52620818866E+02  0.28033929255E+02 -0.22811760569E+03  0.24911786316E+03  0.80419002446E+02 0. -1.
          1    1    1    2  501    0 -0.21265421728E+02  0.10471933067E+02  0.64384964487E+01  0.24562853660E+02  0.00000000000E+00 0. -1.
         -2    1    1    2    0  503 -0.31355397138E+02 -0.38505862322E+02 -0.16247616656E+03  0.16989516491E+03  0.00000000000E+00 0.  1.
<mgrwt>
<rscale>  2 0.86735863E+02</rscale>
<asrwt>0</asrwt>
<pdfrwt beam="1">  1       21 0.45708159E-02 0.86735863E+02</pdfrwt>
<pdfrwt beam="2">  1       21 0.63671626E-01 0.86735863E+02</pdfrwt>
<totfact> 0.71769854E+05</totfact>
</mgrwt>
</event>
<event>
 5    1  0.1696945E+000  0.6869133E+02  0.7546771E-02  0.1364601E+00
         21   -1    0    0  501  502  0.00000000000E+00  0.00000000000E+00  0.94388924587E+03  0.94388924587E+03  0.00000000000E+00 0. -1.
         21   -1    0    0  502  503 -0.00000000000E+00 -0.00000000000E+00 -0.14125183904E+02  0.14125183904E+02  0.00000000000E+00 0. -1.
         24    1    1    2    0    0 -0.11779867281E+02 -0.28716311986E+02  0.16570929044E+03  0.18678912372E+03  0.80419002446E+02 0. -1.
          1    1    1    2  501    0 -0.84161875666E+01  0.29791058285E+02  0.73594555955E+03  0.73659636572E+03  0.00000000000E+00 0. -1.
         -2    1    1    2    0  503  0.20196054848E+02 -0.10747462984E+01  0.28109211981E+02  0.34628940342E+02  0.00000000000E+00 0.  1.
<mgrwt>
<rscale>  2 0.68691331E+02</rscale>
<asrwt>0</asrwt>
<pdfrwt beam="1">  1       21 0.14521368E+00 0.68691331E+02</pdfrwt>
<pdfrwt beam="2">  1       21 0.21731060E-02 0.68691331E+02</pdfrwt>
<totfact> 0.36393755E+05</totfact>
</mgrwt>
</event>
<event>
 5    1  0.1696945E+000  0.7725936E+02  0.7546771E-02  0.1337014E+00
         21   -1    0    0  503  502  0.00000000000E+00  0.00000000000E+00  0.36115527066E+02  0.36115527066E+02  0.00000000000E+00 0. -1.
         21   -1    0    0  501  503 -0.00000000000E+00 -0.00000000000E+00 -0.83644379480E+03  0.83644379480E+03  0.00000000000E+00 0. -1.
         24    1    1    2    0    0 -0.11215641565E+01  0.24685510015E+02 -0.63749143784E+02  0.10555473271E+03  0.80419002446E+02 0. -1.
          1    1    1    2  501    0  0.46465325948E+01  0.22549079810E+02 -0.71428202327E+03  0.71465296475E+03  0.00000000000E+00 0. -1.
         -2    1    1    2    0  502 -0.35249684383E+01 -0.47234589825E+02 -0.22297100680E+02  0.52351624398E+02  0.00000000000E+00 0.  1.
<mgrwt>
<rscale>  2 0.77259363E+02</rscale>
<asrwt>0</asrwt>
<pdfrwt beam="1">  1       21 0.55562355E-02 0.77259363E+02</pdfrwt>
<pdfrwt beam="2">  1       21 0.12868365E+00 0.77259363E+02</pdfrwt>
<totfact> 0.10586695E+05</totfact>
</mgrwt>
</event>
<event>
 5    1  0.1696945E+000  0.7700622E+02  0.7546771E-02  0.1337769E+00
         21   -1    0    0  503  502  0.00000000000E+00  0.00000000000E+00  0.37790580762E+02  0.37790580762E+02  0.00000000000E+00 0. -1.
         21   -1    0    0  501  503 -0.00000000000E+00 -0.00000000000E+00 -0.16102044873E+03  0.16102044873E+03  0.00000000000E+00 0.  1.
         24    1    1    2    0    0  0.23593498905E+02  0.18935611990E+02 -0.53255530041E+02  0.10108698248E+03  0.80419002446E+02 0. -1.
          1    1    1    2  501    0 -0.12332276747E+02 -0.41272933713E+02 -0.41373143889E+02  0.59726687020E+02  0.00000000000E+00 0. -1.
         -2    1    1    2    0  502 -0.11261222158E+02  0.22337321723E+02 -0.28601194042E+02  0.37997359999E+02  0.00000000000E+00 0.  1.
<mgrwt>
<rscale>  2 0.77006223E+02</rscale>
<asrwt>0</asrwt>
<pdfrwt beam="1">  1       21 0.58139355E-02 0.77006223E+02</pdfrwt>
<pdfrwt beam="2">  1       21 0.24772377E-01 0.77006223E+02</pdfrwt>
<totfact> 0.30991846E+06</totfact>
</mgrwt>
</event>
<event>
 5    1  0.1696945E+000  0.7560355E+02  0.7546771E-02  0.1342012E+00
         21   -1    0    0  503  502  0.00000000000E+00  0.00000000000E+00  0.19788648983E+02  0.19788648983E+02  0.00000000000E+00 0. -1.
         21   -1    0    0  501  503 -0.00000000000E+00 -0.00000000000E+00 -0.32200996627E+03  0.32200996627E+03  0.00000000000E+00 0.  1.
         24    1    1    2    0    0  0.42881753049E+01 -0.37168065377E+02 -0.16747295461E+03  0.18951058021E+03  0.80419002446E+02 0.  1.
          1    1    1    2  501    0 -0.25935127408E+02  0.10054970213E+02 -0.97475772091E+02  0.10136695420E+03  0.00000000000E+00 0. -1.
         -2    1    1    2    0  502  0.21646952104E+02  0.27113095164E+02 -0.37272590583E+02  0.50921080836E+02  0.00000000000E+00 0.  1.
<mgrwt>
<rscale>  2 0.75603547E+02</rscale>
<asrwt>0</asrwt>
<pdfrwt beam="1">  1       21 0.30444077E-02 0.75603547E+02</pdfrwt>
<pdfrwt beam="2">  1       21 0.49539992E-01 0.75603547E+02</pdfrwt>
<totfact> 0.23395865E+06</totfact>
</mgrwt>
</event>
<event>
 5    1  0.1696945E+000  0.7146380E+02  0.7546771E-02  0.1355185E+00
         21   -1    0    0  503  502  0.00000000000E+00  0.00000000000E+00  0.67129414414E+03  0.67129414414E+03  0.00000000000E+00 0.  1.
         21   -1    0    0  501  503 -0.00000000000E+00 -0.00000000000E+00 -0.95296335290E+01  0.95296335290E+01  0.00000000000E+00 0. -1.
         24    1    1    2    0    0  0.17021127343E+02  0.38300698885E+02  0.54294148427E+03  0.55046283581E+03  0.80419002446E+02 0.  1.
          1    1    1    2  501    0  0.60662202212E+01 -0.24726698010E+02  0.43308666566E+02  0.50237926131E+02  0.00000000000E+00 0. -1.
         -2    1    1    2    0  502 -0.23087347564E+02 -0.13574000874E+02  0.75514359781E+02  0.80123015734E+02  0.00000000000E+00 0.  1.
<mgrwt>
<rscale>  2 0.71463805E+02</rscale>
<asrwt>0</asrwt>
<pdfrwt beam="1">  1       21 0.10327598E+00 0.71463805E+02</pdfrwt>
<pdfrwt beam="2">  1       21 0.14660980E-02 0.71463805E+02</pdfrwt>
<totfact> 0.15357396E+06</totfact>
</mgrwt>
</event>
<event>
 5    1  0.1696945E+000  0.7745830E+02  0.7546771E-02  0.1336423E+00
         21   -1    0    0  503  502  0.00000000000E+00  0.00000000000E+00  0.11465549781E+03  0.11465549781E+03  0.00000000000E+00 0. -1.
         21   -1    0    0  501  503 -0.00000000000E+00 -0.00000000000E+00 -0.13900279362E+03  0.13900279362E+03  0.00000000000E+00 0. -1.
         24    1    1    2    0    0 -0.54034504630E+02 -0.12670218216E+02  0.49731605835E+02  0.10963900170E+03  0.80419002446E+02 0. -1.
          1    1    1    2  501    0  0.25927462621E+02  0.13198214371E+02 -0.10099344320E+03  0.10510043649E+03  0.00000000000E+00 0. -1.
         -2    1    1    2    0  502  0.28107042009E+02 -0.52799615486E+00  0.26914541554E+02  0.38918853240E+02  0.00000000000E+00 0.  1.
<mgrwt>
<rscale>  2 0.77458301E+02</rscale>
<asrwt>0</asrwt>
<pdfrwt beam="1">  1       21 0.17639307E-01 0.77458301E+02</pdfrwt>
<pdfrwt beam="2">  1       21 0.21385045E-01 0.77458301E+02</pdfrwt>
<totfact> 0.59650725E+05</totfact>
</mgrwt>
</event>
<event>
 5    1  0.1696945E+000  0.8921092E+02  0.7546771E-02  0.1304774E+00
         21   -1    0    0  501  502  0.00000000000E+00  0.00000000000E+00  0.19136627047E+02  0.19136627047E+02  0.00000000000E+00 0.  1.
         21   -1    0    0  502  503 -0.00000000000E+00 -0.00000000000E+00 -0.44428791175E+03  0.44428791175E+03  0.00000000000E+00 0. -1.
         24    1    1    2    0    0  0.30309556288E+02  0.17191920699E+02 -0.20295980720E+03  0.22107494348E+03  0.80419002446E+02 0. -1.
          1    1    1    2  501    0  0.10718454891E+02  0.27855872751E+02 -0.37868701207E+02  0.48216941557E+02  0.00000000000E+00 0. -1.
         -2    1    1    2    0  503 -0.41028011179E+02 -0.45047793450E+02 -0.18432277629E+03  0.19413265376E+03  0.00000000000E+00 0.  1.
<mgrwt>
<rscale>  2 0.89210922E+02</rscale>
<asrwt>0</asrwt>
<pdfrwt beam="1">  1       21 0.29440964E-02 0.89210922E+02</pdfrwt>
<pdfrwt beam="2">  1       21 0.68351988E-01 0.89210922E+02</pdfrwt>
<totfact> 0.12691670E+06</totfact>
</mgrwt>
</event>
<event>
 5    1  0.1696945E+000  0.9383713E+02  0.7546771E-02  0.1293817E+00
         21   -1    0    0  501  502  0.00000000000E+00  0.00000000000E+00  0.48128004207E+03  0.48128004207E+03  0.00000000000E+00 0.  1.
         21   -1    0    0  502  503 -0.00000000000E+00 -0.00000000000E+00 -0.23966706541E+02  0.23966706541E+02  0.00000000000E+00 0.  1.
         24    1    1    2    0    0  0.52217933127E+02  0.92253571996E+01  0.12619001436E+03  0.15875438714E+03  0.80419002446E+02 0.  1.
          1    1    1    2  501    0  0.16565652380E+02 -0.14964480055E+02  0.16642564712E+03  0.16791620685E+03  0.00000000000E+00 0. -1.
         -2    1    1    2    0  503 -0.68783585507E+02  0.57391228557E+01  0.16469767404E+03  0.17857615463E+03  0.00000000000E+00 0.  1.
<mgrwt>
<rscale>  2 0.93837125E+02</rscale>
<asrwt>0</asrwt>
<pdfrwt beam="1">  1       21 0.74043076E-01 0.93837125E+02</pdfrwt>
<pdfrwt beam="2">  1       21 0.36871860E-02 0.93837125E+02</pdfrwt>
<totfact> 0.73962861E+05</totfact>
</mgrwt>
</event>
<event>
 5    1  0.1696945E+000  0.9486796E+02  0.7546771E-02  0.1291474E+00
         21   -1    0    0  501  502  0.00000000000E+00  0.00000000000E+00  0.85313319118E+02  0.85313319118E+02  0.00000000000E+00 0.  1.
         21   -1    0    0  502  503 -0.00000000000E+00 -0.00000000000E+00 -0.11695552654E+03  0.11695552654E+03  0.00000000000E+00 0.  1.
         24    1    1    2    0    0  0.41713427710E+02  0.24441591360E+01  0.15740931714E+02  0.91983568374E+02  0.80419002446E+02 0.  1.
          1    1    1    2  501    0  0.27132571175E+02 -0.11880310162E+02 -0.93055000088E+01  0.31046908356E+02  0.00000000000E+00 0. -1.
         -2    1    1    2    0  503 -0.68845998884E+02  0.94361510255E+01 -0.38077639125E+02  0.79238368925E+02  0.00000000000E+00 0.  1.
<mgrwt>
<rscale>  2 0.94867961E+02</rscale>
<asrwt>0</asrwt>
<pdfrwt beam="1">  1       21 0.13125126E-01 0.94867961E+02</pdfrwt>
<pdfrwt beam="2">  1       21 0.17993158E-01 0.94867961E+02</pdfrwt>
<totfact> 0.13906939E+06</totfact>
</mgrwt>
</event>
<event>
 5    1  0.2091037E+000  0.1544024E+03  0.7546771E-02  0.1195165E+00
         21   -1    0    0  501  502  0.00000000000E+00  0.00000000000E+00  0.65828244198E+02  0.65828244198E+02  0.00000000000E+00 0. -1.
         21   -1    0    0  502  503 -0.00000000000E+00 -0.00000000000E+00 -0.63832546215E+03  0.63832546215E+03  0.00000000000E+00 0.  1.
         24    1    1    2    0    0 -0.46620329943E+02 -0.22217032454E+02 -0.56626294030E+02  0.11108917510E+03  0.80419002446E+02 0. -1.
          1    1    1    2  501    0  0.13466824305E+02 -0.92676689863E+02 -0.39029502284E+02  0.10145750958E+03  0.00000000000E+00 0. -1.
         -2    1    1    2    0  503  0.33153505638E+02  0.11489372232E+03 -0.47684142164E+03  0.49160702167E+03  0.00000000000E+00 0.  1.
<mgrwt>
<rscale>  2 0.15440241E+03</rscale>
<asrwt>0</asrwt>
<pdfrwt beam="1">  1       21 0.10127422E-01 0.15440241E+03</pdfrwt>
<pdfrwt beam="2">  1       21 0.98203920E-01 0.15440241E+03</pdfrwt>
<totfact> 0.69236277E+04</totfact>
</mgrwt>
</event>
<event>
 5    1  0.1696945E+000  0.8100569E+02  0.7546771E-02  0.1326221E+00
         21   -1    0    0  503  502  0.00000000000E+00  0.00000000000E+00  0.19898568548E+03  0.19898568548E+03  0.00000000000E+00 0.  1.
         21   -1    0    0  501  503 -0.00000000000E+00 -0.00000000000E+00 -0.75399731620E+02  0.75399731620E+02  0.00000000000E+00 0.  1.
         24    1    1    2    0    0  0.35213141471E+02  0.15761638589E+02 -0.33479524160E+02  0.95270609716E+02  0.80419002446E+02 0.  1.
          1    1    1    2  501    0  0.46729768092E-01  0.21509919812E+02  0.10714415668E+02  0.24030762308E+02  0.00000000000E+00 0. -1.
         -2    1    1    2    0  502 -0.35259871239E+02 -0.37271558401E+02  0.14635106235E+03  0.15508404507E+03  0.00000000000E+00 0.  1.
<mgrwt>
<rscale>  2 0.81005694E+02</rscale>
<asrwt>0</asrwt>
<pdfrwt beam="1">  1       21 0.30613182E-01 0.81005694E+02</pdfrwt>
<pdfrwt beam="2">  1       21 0.11599959E-01 0.81005694E+02</pdfrwt>
<totfact> 0.64138601E+05</totfact>
</mgrwt>
</event>
<event>
 5    1  0.1696945E+000  0.9992142E+02  0.7546771E-02  0.1280461E+00
         21   -1    0    0  501  502  0.00000000000E+00  0.00000000000E+00  0.15666239164E+02  0.15666239164E+02  0.00000000000E+00 0. -1.
         21   -1    0    0  502  503 -0.00000000000E+00 -0.00000000000E+00 -0.78721332863E+03  0.78721332863E+03  0.00000000000E+00 0.  1.
         24    1    1    2    0    0  0.45376648817E+02  0.35544386015E+02 -0.51460524818E+03  0.52403074437E+03  0.80419002446E+02 0.  0.
          1    1    1    2  501    0 -0.56687879286E+02  0.67785756003E+01 -0.92748236935E+02  0.10891143282E+03  0.00000000000E+00 0. -1.
         -2    1    1    2    0  503  0.11311230469E+02 -0.42322961615E+02 -0.16419360435E+03  0.16993739060E+03  0.00000000000E+00 0.  1.
<mgrwt>
<rscale>  2 0.99921422E+02</rscale>
<asrwt>0</asrwt>
<pdfrwt beam="1">  1       21 0.24101911E-02 0.99921422E+02</pdfrwt>
<pdfrwt beam="2">  1       21 0.12110972E+00 0.99921422E+02</pdfrwt>
<totfact> 0.47786214E+05</totfact>
</mgrwt>
</event>
<event>
 5    1  0.1696945E+000  0.1331837E+03  0.7546771E-02  0.1222807E+00
         21   -1    0    0  501  502  0.00000000000E+00  0.00000000000E+00  0.24699265113E+02  0.24699265113E+02  0.00000000000E+00 0.  1.
         21   -1    0    0  502  503 -0.00000000000E+00 -0.00000000000E+00 -0.83112030523E+03  0.83112030523E+03  0.00000000000E+00 0.  1.
         24    1    1    2    0    0  0.60977197856E+02 -0.95869685492E+02 -0.30148182979E+03  0.33206584422E+03  0.80419002446E+02 0.  1.
          1    1    1    2  501    0 -0.62941073051E+02  0.47739226312E+02 -0.20005263221E+03  0.21508525766E+03  0.00000000000E+00 0. -1.
         -2    1    1    2    0  503  0.19638751949E+01  0.48130459180E+02 -0.30488657812E+03  0.30866846846E+03  0.00000000000E+00 0.  1.
<mgrwt>
<rscale>  2 0.13318365E+03</rscale>
<asrwt>0</asrwt>
<pdfrwt beam="1">  1       21 0.37998861E-02 0.13318365E+03</pdfrwt>
<pdfrwt beam="2">  1       21 0.12786469E+00 0.13318365E+03</pdfrwt>
<totfact> 0.19662571E+05</totfact>
</mgrwt>
</event>
<event>
 5    1  0.1696945E+000  0.1074041E+03  0.7546771E-02  0.1265454E+00
         21   -1    0    0  503  502  0.00000000000E+00  0.00000000000E+00  0.42021673001E+03  0.42021673001E+03  0.00000000000E+00 0. -1.
         21   -1    0    0  501  503 -0.00000000000E+00 -0.00000000000E+00 -0.57920644998E+02  0.57920644998E+02  0.00000000000E+00 0. -1.
         24    1    1    2    0    0  0.44777542126E+02 -0.55516906713E+02  0.30499836514E+03  0.32338579731E+03  0.80419002446E+02 0. -1.
          1    1    1    2  501    0 -0.17873391598E+01  0.63556284489E+02 -0.19387235359E+02  0.66471503475E+02  0.00000000000E+00 0. -1.
         -2    1    1    2    0  502 -0.42990202967E+02 -0.80393777759E+01  0.76684955234E+02  0.88280074226E+02  0.00000000000E+00 0.  1.
<mgrwt>
<rscale>  2 0.10740406E+03</rscale>
<asrwt>0</asrwt>
<pdfrwt beam="1">  1       21 0.64648726E-01 0.10740406E+03</pdfrwt>
<pdfrwt beam="2">  1       21 0.89108687E-02 0.10740406E+03</pdfrwt>
<totfact> 0.22433621E+05</totfact>
</mgrwt>
</event>
<event>
 5    1  0.1696945E+000  0.8710963E+02  0.7546771E-02  0.1310006E+00
         21   -1    0    0  501  502  0.00000000000E+00  0.00000000000E+00  0.56768241683E+03  0.56768241683E+03  0.00000000000E+00 0. -1.
         21   -1    0    0  502  503 -0.00000000000E+00 -0.00000000000E+00 -0.36548289926E+02  0.36548289926E+02  0.00000000000E+00 0.  1.
         24    1    1    2    0    0  0.54870328662E+02 -0.11070910630E+02  0.26354353471E+03  0.28116850583E+03  0.80419002446E+02 0.  0.
          1    1    1    2  501    0 -0.38982560868E+02  0.31667793887E+02  0.28652160923E+03  0.29089022289E+03  0.00000000000E+00 0. -1.
         -2    1    1    2    0  503 -0.15887767793E+02 -0.20596883257E+02 -0.18931017025E+02  0.32171978039E+02  0.00000000000E+00 0.  1.
<mgrwt>
<rscale>  2 0.87109627E+02</rscale>
<asrwt>0</asrwt>
<pdfrwt beam="1">  1       21 0.87335750E-01 0.87109627E+02</pdfrwt>
<pdfrwt beam="2">  1       21 0.56228142E-02 0.87109627E+02</pdfrwt>
<totfact> 0.25532677E+05</totfact>
</mgrwt>
</event>
<event>
 5    1  0.1696945E+000  0.9872980E+02  0.7546771E-02  0.1282990E+00
         21   -1    0    0  503  502  0.00000000000E+00  0.00000000000E+00  0.64226245878E+01  0.64226245878E+01  0.00000000000E+00 0.  1.
         21   -1    0    0  501  503 -0.00000000000E+00 -0.00000000000E+00 -0.16931213901E+04  0.16931213901E+04  0.00000000000E+00 0.  1.
         24    1    1    2    0    0  0.33293798264E+02 -0.74506668640E+02 -0.94931766823E+03  0.95620655292E+03  0.80419002446E+02 0.  1.
          1    1    1    2  501    0 -0.17167707399E+02  0.54782109720E+02 -0.64365876639E+03  0.64621390984E+03  0.00000000000E+00 0. -1.
         -2    1    1    2    0  502 -0.16126090865E+02  0.19724558920E+02 -0.93722330878E+02  0.97123551914E+02  0.00000000000E+00 0.  1.
<mgrwt>
<rscale>  2 0.98729803E+02</rscale>
<asrwt>0</asrwt>
<pdfrwt beam="1">  1       21 0.98809687E-03 0.98729803E+02</pdfrwt>
<pdfrwt beam="2">  1       21 0.26048001E+00 0.98729803E+02</pdfrwt>
<totfact> 0.23697518E+05</totfact>
</mgrwt>
</event>
<event>
 5    1  0.1696945E+000  0.7513412E+02  0.7546771E-02  0.1343456E+00
         21   -1    0    0  503  502  0.00000000000E+00  0.00000000000E+00  0.49488332658E+03  0.49488332658E+03  0.00000000000E+00 0.  1.
         21   -1    0    0  501  503 -0.00000000000E+00 -0.00000000000E+00 -0.22589125274E+02  0.22589125274E+02  0.00000000000E+00 0.  1.
         24    1    1    2    0    0 -0.33494368366E+01  0.31370132988E+02  0.83323144624E+02  0.12002194114E+03  0.80419002446E+02 0.  1.
          1    1    1    2  501    0  0.20452000826E+02  0.72065340074E+01  0.36447574805E+02  0.42410425362E+02  0.00000000000E+00 0. -1.
         -2    1    1    2    0  502 -0.17102563989E+02 -0.38576666996E+02  0.35252348188E+03  0.35504008535E+03  0.00000000000E+00 0.  1.
<mgrwt>
<rscale>  2 0.75134115E+02</rscale>
<asrwt>0</asrwt>
<pdfrwt beam="1">  1       21 0.76135888E-01 0.75134115E+02</pdfrwt>
<pdfrwt beam="2">  1       21 0.34752504E-02 0.75134115E+02</pdfrwt>
<totfact> 0.76555207E+05</totfact>
</mgrwt>
</event>
<event>
 5    1  0.1696945E+000  0.1240352E+03  0.7546771E-02  0.1236585E+00
         21   -1    0    0  503  502  0.00000000000E+00  0.00000000000E+00  0.18109737754E+03  0.18109737754E+03  0.00000000000E+00 0.  1.
         21   -1    0    0  501  503 -0.00000000000E+00 -0.00000000000E+00 -0.98608603087E+02  0.98608603087E+02  0.00000000000E+00 0.  1.
         24    1    1    2    0    0  0.49742365298E+02  0.92201533290E+02  0.25333148135E+02  0.13447828819E+03  0.80419002446E+02 0.  1.
          1    1    1    2  501    0 -0.23492394080E+02 -0.38180934077E+01 -0.15014929442E+02  0.28141046942E+02  0.00000000000E+00 0. -1.
         -2    1    1    2    0  502 -0.26249971218E+02 -0.88383439882E+02  0.72170555762E+02  0.11708664550E+03  0.00000000000E+00 0.  1.
<mgrwt>
<rscale>  2 0.12403522E+03</rscale>
<asrwt>0</asrwt>
<pdfrwt beam="1">  1       21 0.27861135E-01 0.12403522E+03</pdfrwt>
<pdfrwt beam="2">  1       21 0.15170554E-01 0.12403522E+03</pdfrwt>
<totfact> 0.47693580E+05</totfact>
</mgrwt>
</event>
<event>
 5    1  0.1696945E+000  0.8678715E+02  0.7546771E-02  0.1310824E+00
         21   -1    0    0  501  502  0.00000000000E+00  0.00000000000E+00  0.53079346910E+03  0.53079346910E+03  0.00000000000E+00 0. -1.
         21   -1    0    0  502  503 -0.00000000000E+00 -0.00000000000E+00 -0.55788529473E+02  0.55788529473E+02  0.00000000000E+00 0.  1.
         24    1    1    2    0    0  0.37919731729E+02 -0.12675397269E+02  0.28827262799E+03  0.30193856288E+03  0.80419002446E+02 0. -1.
          1    1    1    2  501    0 -0.43166344069E+02  0.38239309487E+02  0.22835065293E+03  0.23551984787E+03  0.00000000000E+00 0. -1.
         -2    1    1    2    0  503  0.52466123397E+01 -0.25563912218E+02 -0.41618341289E+02  0.49123587822E+02  0.00000000000E+00 0.  1.
<mgrwt>
<rscale>  2 0.86787155E+02</rscale>
<asrwt>0</asrwt>
<pdfrwt beam="1">  1       21 0.81660530E-01 0.86787155E+02</pdfrwt>
<pdfrwt beam="2">  1       21 0.85828511E-02 0.86787155E+02</pdfrwt>
<totfact> 0.14498591E+05</totfact>
</mgrwt>
</event>
<event>
 5    1  0.1696945E+000  0.8120077E+02  0.7546771E-02  0.1325678E+00
         21   -1    0    0  503  502  0.00000000000E+00  0.00000000000E+00  0.11735684935E+04  0.11735684935E+04  0.00000000000E+00 0.  1.
         21   -1    0    0  501  503 -0.00000000000E+00 -0.00000000000E+00 -0.10814791220E+02  0.10814791220E+02  0.00000000000E+00 0.  1.
         24    1    1    2    0    0  0.49610752654E+02 -0.22292836951E+02  0.28478120570E+03  0.30087497143E+03  0.80419002446E+02 0.  1.
          1    1    1    2  501    0 -0.24753889098E+02 -0.81077993087E+01  0.71781184584E+02  0.76361180553E+02  0.00000000000E+00 0. -1.
         -2    1    1    2    0  502 -0.24856863555E+02  0.30400636260E+02  0.80619131204E+03  0.80714713278E+03  0.00000000000E+00 0.  1.
<mgrwt>
<rscale>  2 0.81200769E+02</rscale>
<asrwt>0</asrwt>
<pdfrwt beam="1">  1       21 0.18054890E+00 0.81200769E+02</pdfrwt>
<pdfrwt beam="2">  1       21 0.16638150E-02 0.81200769E+02</pdfrwt>
<totfact> 0.31453729E+05</totfact>
</mgrwt>
</event>
<event>
 5    1  0.1696945E+000  0.7390255E+02  0.7546771E-02  0.1347304E+00
         21   -1    0    0  501  502  0.00000000000E+00  0.00000000000E+00  0.19419465768E+04  0.19419465768E+04  0.00000000000E+00 0.  1.
         21   -1    0    0  502  503 -0.00000000000E+00 -0.00000000000E+00 -0.11485219353E+02  0.11485219353E+02  0.00000000000E+00 0.  1.
         24    1    1    2    0    0 -0.15105708998E+02  0.11597604884E+02  0.60456032649E+03  0.61018283424E+03  0.80419002446E+02 0.  1.
          1    1    1    2  501    0 -0.19300387359E+02 -0.21953381949E+02  0.12964801810E+04  0.12968096682E+04  0.00000000000E+00 0. -1.
         -2    1    1    2    0  503  0.34406096358E+02  0.10355777065E+02  0.29420849996E+02  0.46439293703E+02  0.00000000000E+00 0.  1.
<mgrwt>
<rscale>  2 0.73902547E+02</rscale>
<asrwt>0</asrwt>
<pdfrwt beam="1">  1       21 0.29876075E+00 0.73902547E+02</pdfrwt>
<pdfrwt beam="2">  1       21 0.17669584E-02 0.73902547E+02</pdfrwt>
<totfact> 0.60718619E+04</totfact>
</mgrwt>
</event>
<event>
 5    1  0.1696945E+000  0.7402659E+02  0.7546771E-02  0.1346912E+00
         21   -1    0    0  501  502  0.00000000000E+00  0.00000000000E+00  0.58514922387E+01  0.58514922387E+01  0.00000000000E+00 0. -1.
         21   -1    0    0  502  503 -0.00000000000E+00 -0.00000000000E+00 -0.12948000790E+04  0.12948000790E+04  0.00000000000E+00 0.  1.
         24    1    1    2    0    0 -0.10973088356E+02 -0.26715743466E+02 -0.40720285786E+03  0.41607153594E+03  0.80419002446E+02 0. -1.
          1    1    1    2  501    0 -0.86327011579E+01  0.38683707773E+02 -0.33246726320E+03  0.33482149554E+03  0.00000000000E+00 0. -1.
         -2    1    1    2    0  503  0.19605789513E+02 -0.11967964306E+02 -0.54927846568E+03  0.54975853974E+03  0.00000000000E+00 0.  1.
<mgrwt>
<rscale>  2 0.74026589E+02</rscale>
<asrwt>0</asrwt>
<pdfrwt beam="1">  1       21 0.90022888E-03 0.74026589E+02</pdfrwt>
<pdfrwt beam="2">  1       21 0.19920017E+00 0.74026589E+02</pdfrwt>
<totfact> 0.63082771E+05</totfact>
</mgrwt>
</event>
<event>
 5    1  0.1696945E+000  0.7408193E+02  0.7546771E-02  0.1346738E+00
         21   -1    0    0  503  502  0.00000000000E+00  0.00000000000E+00  0.12313462542E+02  0.12313462542E+02  0.00000000000E+00 0.  1.
         21   -1    0    0  501  503 -0.00000000000E+00 -0.00000000000E+00 -0.10615273884E+04  0.10615273884E+04  0.00000000000E+00 0. -1.
         24    1    1    2    0    0  0.48559660851E+02 -0.15326847913E+02 -0.18740866540E+03  0.21019556787E+03  0.80419002446E+02 0.  1.
          1    1    1    2  501    0 -0.20257437626E+02  0.14040481311E+02 -0.55113546196E+03  0.55168632059E+03  0.00000000000E+00 0. -1.
         -2    1    1    2    0  502 -0.28302223225E+02  0.12863666021E+01 -0.31066979845E+03  0.31195896244E+03  0.00000000000E+00 0.  1.
<mgrwt>
<rscale>  2 0.74081927E+02</rscale>
<asrwt>0</asrwt>
<pdfrwt beam="1">  1       21 0.18943785E-02 0.74081927E+02</pdfrwt>
<pdfrwt beam="2">  1       21 0.16331193E+00 0.74081927E+02</pdfrwt>
<totfact> 0.33510317E+05</totfact>
</mgrwt>
</event>
<event>
 5    1  0.1696945E+000  0.1383493E+03  0.7546771E-02  0.1215567E+00
         21   -1    0    0  501  502  0.00000000000E+00  0.00000000000E+00  0.10699887230E+04  0.10699887230E+04  0.00000000000E+00 0.  1.
         21   -1    0    0  502  503 -0.00000000000E+00 -0.00000000000E+00 -0.27662691725E+02  0.27662691725E+02  0.00000000000E+00 0.  1.
         24    1    1    2    0    0 -0.47581497058E+01  0.91185928776E+02  0.25613991345E+03  0.28357077566E+03  0.80419002446E+02 0.  1.
          1    1    1    2  501    0 -0.13514825660E+02  0.29770798030E+02  0.52116107634E+03  0.52218561683E+03  0.00000000000E+00 0. -1.
         -2    1    1    2    0  503  0.18272975366E+02 -0.12095672681E+03  0.26502504145E+03  0.29189502220E+03  0.00000000000E+00 0.  1.
<mgrwt>
<rscale>  2 0.13834935E+03</rscale>
<asrwt>0</asrwt>
<pdfrwt beam="1">  1       21 0.16461362E+00 0.13834935E+03</pdfrwt>
<pdfrwt beam="2">  1       21 0.42557996E-02 0.13834935E+03</pdfrwt>
<totfact> 0.84773144E+04</totfact>
</mgrwt>
</event>
<event>
 5    1  0.1696945E+000  0.6984853E+02  0.7546771E-02  0.1360609E+00
         21   -1    0    0  501  502  0.00000000000E+00  0.00000000000E+00  0.54919105129E+02  0.54919105129E+02  0.00000000000E+00 0.  1.
         21   -1    0    0  502  503 -0.00000000000E+00 -0.00000000000E+00 -0.94046346884E+02  0.94046346884E+02  0.00000000000E+00 0.  1.
         24    1    1    2    0    0  0.14701015962E+02 -0.22674127420E+02 -0.65896030906E+01  0.85093329632E+02  0.80419002446E+02 0.  1.
          1    1    1    2  501    0  0.13862381923E+02  0.22342921838E+02 -0.13636688753E+02  0.29619774965E+02  0.00000000000E+00 0. -1.
         -2    1    1    2    0  503 -0.28563397885E+02  0.33120558162E+00 -0.18900949912E+02  0.34252347415E+02  0.00000000000E+00 0.  1.
<mgrwt>
<rscale>  2 0.69848533E+02</rscale>
<asrwt>0</asrwt>
<pdfrwt beam="1">  1       21 0.84490932E-02 0.69848533E+02</pdfrwt>
<pdfrwt beam="2">  1       21 0.14468669E-01 0.69848533E+02</pdfrwt>
<totfact> 0.43437446E+06</totfact>
</mgrwt>
</event>
<event>
 5    1  0.1696945E+000  0.1123495E+03  0.7546771E-02  0.1256280E+00
         21   -1    0    0  503  502  0.00000000000E+00  0.00000000000E+00  0.11673439657E+02  0.11673439657E+02  0.00000000000E+00 0.  1.
         21   -1    0    0  501  503 -0.00000000000E+00 -0.00000000000E+00 -0.19915677131E+04  0.19915677131E+04  0.00000000000E+00 0. -1.
         24    1    1    2    0    0 -0.27501493356E+02  0.88441253588E+02 -0.12066673798E+04  0.12128856372E+04  0.80419002446E+02 0. -1.
          1    1    1    2  501    0 -0.11656021485E+02 -0.22767326084E+02 -0.60530297541E+03  0.60584313647E+03  0.00000000000E+00 0. -1.
         -2    1    1    2    0  502  0.39157514841E+02 -0.65673927504E+02 -0.16792391820E+03  0.18451237906E+03  0.00000000000E+00 0.  1.
<mgrwt>
<rscale>  2 0.11234945E+03</rscale>
<asrwt>0</asrwt>
<pdfrwt beam="1">  1       21 0.17959131E-02 0.11234945E+03</pdfrwt>
<pdfrwt beam="2">  1       21 0.30639516E+00 0.11234945E+03</pdfrwt>
<totfact> 0.50273253E+04</totfact>
</mgrwt>
</event>
<event>
 5    1  0.1696945E+000  0.7161749E+02  0.7546771E-02  0.1354677E+00
         21   -1    0    0  503  502  0.00000000000E+00  0.00000000000E+00  0.75593961154E+02  0.75593961154E+02  0.00000000000E+00 0. -1.
         21   -1    0    0  501  503 -0.00000000000E+00 -0.00000000000E+00 -0.92215062304E+02  0.92215062304E+02  0.00000000000E+00 0. -1.
         24    1    1    2    0    0  0.95379722059E+01 -0.92797761431E+01  0.20411709457E+02  0.84029405546E+02  0.80419002446E+02 0. -1.
          1    1    1    2  501    0 -0.88512528510E+01  0.34944711195E+02 -0.44283933729E+02  0.57101176031E+02  0.00000000000E+00 0. -1.
         -2    1    1    2    0  502 -0.68671935482E+00 -0.25664935052E+02  0.72511231213E+01  0.26678441881E+02  0.00000000000E+00 0.  1.
<mgrwt>
<rscale>  2 0.71617491E+02</rscale>
<asrwt>0</asrwt>
<pdfrwt beam="1">  1       21 0.11629840E-01 0.71617491E+02</pdfrwt>
<pdfrwt beam="2">  1       21 0.14186933E-01 0.71617491E+02</pdfrwt>
<totfact> 0.26002781E+06</totfact>
</mgrwt>
</event>
<event>
 5    1  0.1696945E+000  0.7118174E+02  0.7546771E-02  0.1356120E+00
         21   -1    0    0  501  502  0.00000000000E+00  0.00000000000E+00  0.22393588695E+03  0.22393588695E+03  0.00000000000E+00 0.  1.
         21   -1    0    0  502  503 -0.00000000000E+00 -0.00000000000E+00 -0.58698139652E+02  0.58698139652E+02  0.00000000000E+00 0. -1.
         24    1    1    2    0    0  0.22483323663E+02 -0.14601790601E+02 -0.17736919796E+02  0.86605579554E+02  0.80419002446E+02 0. -1.
          1    1    1    2  501    0 -0.33070395291E+02 -0.67581688411E+01  0.15775034532E+03  0.16132109390E+03  0.00000000000E+00 0. -1.
         -2    1    1    2    0  503  0.10587071628E+02  0.21359959442E+02  0.25224321774E+02  0.34707353141E+02  0.00000000000E+00 0.  1.
<mgrwt>
<rscale>  2 0.71181741E+02</rscale>
<asrwt>0</asrwt>
<pdfrwt beam="1">  1       21 0.34451675E-01 0.71181741E+02</pdfrwt>
<pdfrwt beam="2">  1       21 0.90304831E-02 0.71181741E+02</pdfrwt>
<totfact> 0.78658273E+05</totfact>
</mgrwt>
</event>
<event>
 5    1  0.1696945E+000  0.7700562E+02  0.7546771E-02  0.1337770E+00
         21   -1    0    0  503  502  0.00000000000E+00  0.00000000000E+00  0.26010611007E+02  0.26010611007E+02  0.00000000000E+00 0. -1.
         21   -1    0    0  501  503 -0.00000000000E+00 -0.00000000000E+00 -0.35441480480E+03  0.35441480480E+03  0.00000000000E+00 0.  1.
         24    1    1    2    0    0 -0.12176479242E+02  0.68731358510E+01 -0.27057485532E+03  0.28261895713E+03  0.80419002446E+02 0.  1.
          1    1    1    2  501    0 -0.90412775229E+01  0.29182133973E+02 -0.44348713193E+02  0.53853040809E+02  0.00000000000E+00 0. -1.
         -2    1    1    2    0  502  0.21217756765E+02 -0.36055269824E+02 -0.13480625278E+02  0.43953417866E+02  0.00000000000E+00 0.  1.
<mgrwt>
<rscale>  2 0.77005622E+02</rscale>
<asrwt>0</asrwt>
<pdfrwt beam="1">  1       21 0.40016323E-02 0.77005622E+02</pdfrwt>
<pdfrwt beam="2">  1       21 0.54525356E-01 0.77005622E+02</pdfrwt>
<totfact> 0.12328522E+06</totfact>
</mgrwt>
</event>
<event>
 5    1  0.1696945E+000  0.1617622E+03  0.7546771E-02  0.1186721E+00
         21   -1    0    0  501  502  0.00000000000E+00  0.00000000000E+00  0.17698045919E+04  0.17698045919E+04  0.00000000000E+00 0.  1.
         21   -1    0    0  502  503 -0.00000000000E+00 -0.00000000000E+00 -0.19821855297E+02  0.19821855297E+02  0.00000000000E+00 0.  1.
         24    1    1    2    0    0 -0.82879993751E+01  0.14863341403E+03  0.67473988523E+03  0.69563044167E+03  0.80419002446E+02 0.  1.
          1    1    1    2  501    0 -0.15847970233E+02 -0.39587312004E+02  0.72770612304E+03  0.72895439839E+03  0.00000000000E+00 0. -1.
         -2    1    1    2    0  503  0.24135969608E+02 -0.10904610203E+03  0.34753672835E+03  0.36504160715E+03  0.00000000000E+00 0.  1.
<mgrwt>
<rscale>  2 0.16176223E+03</rscale>
<asrwt>0</asrwt>
<pdfrwt beam="1">  1       21 0.27227750E+00 0.16176223E+03</pdfrwt>
<pdfrwt beam="2">  1       21 0.30495176E-02 0.16176223E+03</pdfrwt>
<totfact> 0.31259256E+04</totfact>
</mgrwt>
</event>
<event>
 5    1  0.1696945E+000  0.7382272E+02  0.7546771E-02  0.1347556E+00
         21   -1    0    0  503  502  0.00000000000E+00  0.00000000000E+00  0.28365689698E+02  0.28365689698E+02  0.00000000000E+00 0.  1.
         21   -1    0    0  501  503 -0.00000000000E+00 -0.00000000000E+00 -0.44584580919E+03  0.44584580919E+03  0.00000000000E+00 0. -1.
         24    1    1    2    0    0 -0.30684791600E+01  0.11774137899E+01 -0.15094010540E+03  0.17105827440E+03  0.80419002446E+02 0.  1.
          1    1    1    2  501    0 -0.17301896371E+01  0.32799544121E+02 -0.26682393589E+03  0.26883789988E+03  0.00000000000E+00 0. -1.
         -2    1    1    2    0  502  0.47986687971E+01 -0.33976957911E+02  0.28392179749E+00  0.34315324604E+02  0.00000000000E+00 0.  1.
<mgrwt>
<rscale>  2 0.73822715E+02</rscale>
<asrwt>0</asrwt>
<pdfrwt beam="1">  1       21 0.43639523E-02 0.73822715E+02</pdfrwt>
<pdfrwt beam="2">  1       21 0.68591662E-01 0.73822715E+02</pdfrwt>
<totfact> 0.66040229E+05</totfact>
</mgrwt>
</event>
<event>
 5    1  0.1696945E+000  0.7219425E+02  0.7546771E-02  0.1352786E+00
         21   -1    0    0  501  502  0.00000000000E+00  0.00000000000E+00  0.45992078184E+03  0.45992078184E+03  0.00000000000E+00 0. -1.
         21   -1    0    0  502  503 -0.00000000000E+00 -0.00000000000E+00 -0.14501445175E+03  0.14501445175E+03  0.00000000000E+00 0.  1.
         24    1    1    2    0    0 -0.13914573525E+02 -0.15857138275E+01 -0.37658001768E+02  0.89897001598E+02  0.80419002446E+02 0. -1.
          1    1    1    2  501    0  0.23578965129E+02  0.26835705028E+02  0.43079184645E+03  0.43227044501E+03  0.00000000000E+00 0. -1.
         -2    1    1    2    0  503 -0.96643916036E+01 -0.25249991200E+02 -0.78227514599E+02  0.82767786976E+02  0.00000000000E+00 0.  1.
<mgrwt>
<rscale>  2 0.72194249E+02</rscale>
<asrwt>0</asrwt>
<pdfrwt beam="1">  1       21 0.70757043E-01 0.72194249E+02</pdfrwt>
<pdfrwt beam="2">  1       21 0.22309916E-01 0.72194249E+02</pdfrwt>
<totfact> 0.36917357E+04</totfact>
</mgrwt>
</event>
<event>
 5    1  0.1696945E+000  0.1023575E+03  0.7546771E-02  0.1275415E+00
         21   -1    0    0  503  502  0.00000000000E+00  0.00000000000E+00  0.15220331147E+03  0.15220331147E+03  0.00000000000E+00 0. -1.
         21   -1    0    0  501  503 -0.00000000000E+00 -0.00000000000E+00 -0.82842954035E+02  0.82842954035E+02  0.00000000000E+00 0.  1.
         24    1    1    2    0    0 -0.53514372985E+02 -0.10631997871E+01  0.68584242412E+02  0.11847334203E+03  0.80419002446E+02 0.  0.
          1    1    1    2  501    0  0.65271827347E+02  0.33674125491E+02 -0.20048136361E+02  0.76133343184E+02  0.00000000000E+00 0. -1.
         -2    1    1    2    0  502 -0.11757454362E+02 -0.32610925704E+02  0.20824251379E+02  0.40439580288E+02  0.00000000000E+00 0.  1.
<mgrwt>
<rscale>  2 0.10235748E+03</rscale>
<asrwt>0</asrwt>
<pdfrwt beam="1">  1       21 0.23415894E-01 0.10235748E+03</pdfrwt>
<pdfrwt beam="2">  1       21 0.12745070E-01 0.10235748E+03</pdfrwt>
<totfact> 0.90352629E+05</totfact>
</mgrwt>
</event>
<event>
 5    1  0.1696945E+000  0.6399749E+02  0.7546771E-02  0.1381783E+00
         21   -1    0    0  501  502  0.00000000000E+00  0.00000000000E+00  0.61459615642E+02  0.61459615642E+02  0.00000000000E+00 0. -1.
         21   -1    0    0  502  503 -0.00000000000E+00 -0.00000000000E+00 -0.11720834548E+03  0.11720834548E+03  0.00000000000E+00 0. -1.
         24    1    1    2    0    0 -0.99285695721E+01  0.22696318769E+01 -0.85073075688E+02  0.11750902895E+03  0.80419002446E+02 0. -1.
          1    1    1    2  501    0  0.21876480497E+02  0.14571208788E+02  0.30759539005E+02  0.40460471627E+02  0.00000000000E+00 0. -1.
         -2    1    1    2    0  503 -0.11947910925E+02 -0.16840840665E+02 -0.14351931589E+01  0.20698460551E+02  0.00000000000E+00 0.  1.
<mgrwt>
<rscale>  2 0.63997494E+02</rscale>
<asrwt>0</asrwt>
<pdfrwt beam="1">  1       21 0.94553257E-02 0.63997494E+02</pdfrwt>
<pdfrwt beam="2">  1       21 0.18032053E-01 0.63997494E+02</pdfrwt>
<totfact> 0.24090086E+06</totfact>
</mgrwt>
</event>
<event>
 5    1  0.1696945E+000  0.6447133E+02  0.7546771E-02  0.1379971E+00
         21   -1    0    0  501  502  0.00000000000E+00  0.00000000000E+00  0.37712363759E+03  0.37712363759E+03  0.00000000000E+00 0. -1.
         21   -1    0    0  502  503 -0.00000000000E+00 -0.00000000000E+00 -0.12610625232E+02  0.12610625232E+02  0.00000000000E+00 0. -1.
         24    1    1    2    0    0  0.83769210848E+01 -0.18292876467E+02  0.25303841722E+03  0.26627140042E+03  0.80419002446E+02 0.  0.
          1    1    1    2  501    0 -0.24745813695E+02  0.57030604191E+01  0.90632044562E+02  0.94122514284E+02  0.00000000000E+00 0. -1.
         -2    1    1    2    0  503  0.16368892610E+02  0.12589816048E+02  0.20842550578E+02  0.29340348123E+02  0.00000000000E+00 0.  1.
<mgrwt>
<rscale>  2 0.64471325E+02</rscale>
<asrwt>0</asrwt>
<pdfrwt beam="1">  1       21 0.58019013E-01 0.64471325E+02</pdfrwt>
<pdfrwt beam="2">  1       21 0.19400965E-02 0.64471325E+02</pdfrwt>
<totfact> 0.34528511E+06</totfact>
</mgrwt>
</event>
<event>
 5    1  0.1696945E+000  0.1616634E+03  0.7546771E-02  0.1186832E+00
         21   -1    0    0  501  502  0.00000000000E+00  0.00000000000E+00  0.18047945033E+03  0.18047945033E+03  0.00000000000E+00 0. -1.
         21   -1    0    0  502  503 -0.00000000000E+00 -0.00000000000E+00 -0.23078919052E+03  0.23078919052E+03  0.00000000000E+00 0.  1.
         24    1    1    2    0    0  0.46841722217E+02  0.11347354413E+03 -0.85311915719E+02  0.16975196929E+03  0.80419002446E+02 0. -1.
          1    1    1    2  501    0 -0.64348861647E+02 -0.13456478702E+03  0.94107159119E+02  0.17636500588E+03  0.00000000000E+00 0. -1.
         -2    1    1    2    0  503  0.17507139430E+02  0.21091242886E+02 -0.59104983588E+02  0.65151665692E+02  0.00000000000E+00 0.  1.
<mgrwt>
<rscale>  2 0.16166336E+03</rscale>
<asrwt>0</asrwt>
<pdfrwt beam="1">  1       21 0.27766069E-01 0.16166336E+03</pdfrwt>
<pdfrwt beam="2">  1       21 0.35506029E-01 0.16166336E+03</pdfrwt>
<totfact> 0.95882165E+04</totfact>
</mgrwt>
</event>
<event>
 5    1  0.1696945E+000  0.6251290E+02  0.7546771E-02  0.1387579E+00
         21   -1    0    0  503  502  0.00000000000E+00  0.00000000000E+00  0.26990414353E+02  0.26990414353E+02  0.00000000000E+00 0. -1.
         21   -1    0    0  501  503 -0.00000000000E+00 -0.00000000000E+00 -0.24149425707E+03  0.24149425707E+03  0.00000000000E+00 0. -1.
         24    1    1    2    0    0 -0.23026542927E+02  0.61411205956E+01 -0.18331076571E+03  0.20158865996E+03  0.80419002446E+02 0.  0.
          1    1    1    2  501    0  0.15871452866E+02  0.13126769550E+02 -0.39642318372E+02  0.44673577211E+02  0.00000000000E+00 0. -1.
         -2    1    1    2    0  502  0.71550900609E+01 -0.19267890146E+02  0.84492413714E+01  0.22222434255E+02  0.00000000000E+00 0.  1.
<mgrwt>
<rscale>  2 0.62512901E+02</rscale>
<asrwt>0</asrwt>
<pdfrwt beam="1">  1       21 0.41523714E-02 0.62512901E+02</pdfrwt>
<pdfrwt beam="2">  1       21 0.37152963E-01 0.62512901E+02</pdfrwt>
<totfact> 0.24737301E+06</totfact>
</mgrwt>
</event>
<event>
 5    1  0.1696945E+000  0.1009825E+03  0.7546771E-02  0.1278243E+00
         21   -1    0    0  501  502  0.00000000000E+00  0.00000000000E+00  0.12914741496E+02  0.12914741496E+02  0.00000000000E+00 0. -1.
         21   -1    0    0  502  503 -0.00000000000E+00 -0.00000000000E+00 -0.12807269697E+04  0.12807269697E+04  0.00000000000E+00 0. -1.
         24    1    1    2    0    0 -0.27270848705E+02  0.67685958462E+02 -0.65839260607E+03  0.66728788978E+03  0.80419002446E+02 0. -1.
          1    1    1    2  501    0  0.34990870274E+02 -0.11756802822E+02 -0.41125589559E+02  0.55262080414E+02  0.00000000000E+00 0. -1.
         -2    1    1    2    0  503 -0.77200215691E+01 -0.55929155640E+02 -0.56829403259E+03  0.57109174102E+03  0.00000000000E+00 0.  1.
<mgrwt>
<rscale>  2 0.10098251E+03</rscale>
<asrwt>0</asrwt>
<pdfrwt beam="1">  1       21 0.19868831E-02 0.10098251E+03</pdfrwt>
<pdfrwt beam="2">  1       21 0.19703494E+00 0.10098251E+03</pdfrwt>
<totfact> 0.18377685E+05</totfact>
</mgrwt>
</event>
<event>
 5    1  0.1696945E+000  0.8693542E+02  0.7546771E-02  0.1310447E+00
         21   -1    0    0  503  502  0.00000000000E+00  0.00000000000E+00  0.52272314939E+03  0.52272314939E+03  0.00000000000E+00 0.  1.
         21   -1    0    0  501  503 -0.00000000000E+00 -0.00000000000E+00 -0.62500539874E+02  0.62500539874E+02  0.00000000000E+00 0. -1.
         24    1    1    2    0    0 -0.28052427952E+02  0.33909029977E+02  0.90639051681E+02  0.12891630879E+03  0.80419002446E+02 0.  1.
          1    1    1    2  501    0 -0.12643429238E+01  0.20422277515E+02 -0.38489790031E+02  0.43590502619E+02  0.00000000000E+00 0. -1.
         -2    1    1    2    0  502  0.29316770876E+02 -0.54331307492E+02  0.40807334787E+03  0.41271687786E+03  0.00000000000E+00 0.  1.
<mgrwt>
<rscale>  2 0.86935416E+02</rscale>
<asrwt>0</asrwt>
<pdfrwt beam="1">  1       21 0.80418943E-01 0.86935416E+02</pdfrwt>
<pdfrwt beam="2">  1       21 0.96154680E-02 0.86935416E+02</pdfrwt>
<totfact> 0.12335319E+05</totfact>
</mgrwt>
</event>
<event>
 5    1  0.1696945E+000  0.9469293E+02  0.7546771E-02  0.1291869E+00
         21   -1    0    0  503  502  0.00000000000E+00  0.00000000000E+00  0.30405082517E+02  0.30405082517E+02  0.00000000000E+00 0. -1.
         21   -1    0    0  501  503 -0.00000000000E+00 -0.00000000000E+00 -0.31380176748E+03  0.31380176748E+03  0.00000000000E+00 0. -1.
         24    1    1    2    0    0 -0.37258375460E+02 -0.63460732020E+02 -0.12016917262E+03  0.16224455939E+03  0.80419002446E+02 0. -1.
          1    1    1    2  501    0  0.12028557293E+02  0.50695322923E+02 -0.10851618418E+03  0.12037634396E+03  0.00000000000E+00 0. -1.
         -2    1    1    2    0  502  0.25229818167E+02  0.12765409097E+02 -0.54711328165E+02  0.61585946641E+02  0.00000000000E+00 0.  1.
<mgrwt>
<rscale>  2 0.94692934E+02</rscale>
<asrwt>0</asrwt>
<pdfrwt beam="1">  1       21 0.46777052E-02 0.94692934E+02</pdfrwt>
<pdfrwt beam="2">  1       21 0.48277193E-01 0.94692934E+02</pdfrwt>
<totfact> 0.12283075E+06</totfact>
</mgrwt>
</event>
<event>
 5    1  0.1696945E+000  0.7035497E+02  0.7546771E-02  0.1358890E+00
         21   -1    0    0  503  502  0.00000000000E+00  0.00000000000E+00  0.14656001397E+03  0.14656001397E+03  0.00000000000E+00 0.  1.
         21   -1    0    0  501  503 -0.00000000000E+00 -0.00000000000E+00 -0.24205993584E+03  0.24205993584E+03  0.00000000000E+00 0.  1.
         24    1    1    2    0    0 -0.12446130808E+02 -0.14822592636E+02 -0.19785397114E+03  0.21444818786E+03  0.80419002446E+02 0.  1.
          1    1    1    2  501    0  0.58074699250E+01  0.35657630999E+02 -0.25654017646E+02  0.44309389262E+02  0.00000000000E+00 0. -1.
         -2    1    1    2    0  502  0.66386608835E+01 -0.20835038363E+02  0.12800806692E+03  0.12986237269E+03  0.00000000000E+00 0.  1.
<mgrwt>
<rscale>  2 0.70354968E+02</rscale>
<asrwt>0</asrwt>
<pdfrwt beam="1">  1       21 0.22547695E-01 0.70354968E+02</pdfrwt>
<pdfrwt beam="2">  1       21 0.37239990E-01 0.70354968E+02</pdfrwt>
<totfact> 0.13417248E+05</totfact>
</mgrwt>
</event>
<event>
 5    1  0.1696945E+000  0.7165674E+02  0.7546771E-02  0.1354548E+00
         21   -1    0    0  501  502  0.00000000000E+00  0.00000000000E+00  0.55275008635E+03  0.55275008635E+03  0.00000000000E+00 0.  1.
         21   -1    0    0  502  503 -0.00000000000E+00 -0.00000000000E+00 -0.38714663310E+02  0.38714663310E+02  0.00000000000E+00 0. -1.
         24    1    1    2    0    0  0.22209701021E+02 -0.18900453759E+02  0.41722754593E+03  0.42590672571E+03  0.80419002446E+02 0.  1.
          1    1    1    2  501    0 -0.31482440597E+01  0.33569867659E+02  0.12443817247E+03  0.12892519623E+03  0.00000000000E+00 0. -1.
         -2    1    1    2    0  503 -0.19061456962E+02 -0.14669413900E+02 -0.27630295352E+02  0.36632827722E+02  0.00000000000E+00 0.  1.
<mgrwt>
<rscale>  2 0.71656737E+02</rscale>
<asrwt>0</asrwt>
<pdfrwt beam="1">  1       21 0.85038469E-01 0.71656737E+02</pdfrwt>
<pdfrwt beam="2">  1       21 0.59561024E-02 0.71656737E+02</pdfrwt>
<totfact> 0.24719974E+05</totfact>
</mgrwt>
</event>
<event>
 5    1  0.1696945E+000  0.8327793E+02  0.7546771E-02  0.1319998E+00
         21   -1    0    0  501  502  0.00000000000E+00  0.00000000000E+00  0.11393790216E+03  0.11393790216E+03  0.00000000000E+00 0.  1.
         21   -1    0    0  502  503 -0.00000000000E+00 -0.00000000000E+00 -0.72382676077E+02  0.72382676077E+02  0.00000000000E+00 0.  1.
         24    1    1    2    0    0 -0.93522393333E+01  0.46340966738E+01 -0.10644978299E+02  0.81789184798E+02  0.80419002446E+02 0.  1.
          1    1    1    2  501    0  0.39410092126E+02 -0.27192554867E+02  0.46084289607E+02  0.66455640469E+02  0.00000000000E+00 0. -1.
         -2    1    1    2    0  503 -0.30057852793E+02  0.22558458193E+02  0.61159147715E+01  0.38075752968E+02  0.00000000000E+00 0.  1.
<mgrwt>
<rscale>  2 0.83277929E+02</rscale>
<asrwt>0</asrwt>
<pdfrwt beam="1">  1       21 0.17528908E-01 0.83277929E+02</pdfrwt>
<pdfrwt beam="2">  1       21 0.11135796E-01 0.83277929E+02</pdfrwt>
<totfact> 0.19368045E+06</totfact>
</mgrwt>
</event>
<event>
 5    1  0.1696945E+000  0.7025468E+02  0.7546771E-02  0.1359229E+00
         21   -1    0    0  503  502  0.00000000000E+00  0.00000000000E+00  0.72236793626E+02  0.72236793626E+02  0.00000000000E+00 0. -1.
         21   -1    0    0  501  503 -0.00000000000E+00 -0.00000000000E+00 -0.79054105109E+02  0.79054105109E+02  0.00000000000E+00 0.  1.
         24    1    1    2    0    0 -0.19668966599E+02 -0.15800042537E+02 -0.13389519846E+02  0.85340522540E+02  0.80419002446E+02 0.  0.
          1    1    1    2  501    0  0.35704509975E+02  0.32293436187E+01 -0.12573404162E+02  0.37991198783E+02  0.00000000000E+00 0. -1.
         -2    1    1    2    0  502 -0.16035543375E+02  0.12570698918E+02  0.19145612524E+02  0.27959177412E+02  0.00000000000E+00 0.  1.
<mgrwt>
<rscale>  2 0.70254679E+02</rscale>
<asrwt>0</asrwt>
<pdfrwt beam="1">  1       21 0.11113353E-01 0.70254679E+02</pdfrwt>
<pdfrwt beam="2">  1       21 0.12162170E-01 0.70254679E+02</pdfrwt>
<totfact> 0.36818267E+06</totfact>
</mgrwt>
</event>
<event>
 5    1  0.1696945E+000  0.1867887E+03  0.7546771E-02  0.1161390E+00
         21   -1    0    0  503  502  0.00000000000E+00  0.00000000000E+00  0.40159811962E+03  0.40159811962E+03  0.00000000000E+00 0. -1.
         21   -1    0    0  501  503 -0.00000000000E+00 -0.00000000000E+00 -0.11073421719E+03  0.11073421719E+03  0.00000000000E+00 0. -1.
         24    1    1    2    0    0 -0.13113390659E+03 -0.81585587741E+02  0.13662288798E+03  0.22132631804E+03  0.80419002446E+02 0. -1.
          1    1    1    2  501    0 -0.15617411451E+02  0.45816057400E+02 -0.26719645930E+02  0.55289729016E+02  0.00000000000E+00 0. -1.
         -2    1    1    2    0  502  0.14675131804E+03  0.35769530341E+02  0.18096066038E+03  0.23571628975E+03  0.00000000000E+00 0.  1.
<mgrwt>
<rscale>  2 0.18678871E+03</rscale>
<asrwt>0</asrwt>
<pdfrwt beam="1">  1       21 0.61784325E-01 0.18678871E+03</pdfrwt>
<pdfrwt beam="2">  1       21 0.17036034E-01 0.18678871E+03</pdfrwt>
<totfact> 0.75786589E+04</totfact>
</mgrwt>
</event>
<event>
 5    1  0.1696945E+000  0.7959916E+02  0.7546771E-02  0.1330193E+00
         21   -1    0    0  501  502  0.00000000000E+00  0.00000000000E+00  0.53414631807E+02  0.53414631807E+02  0.00000000000E+00 0.  1.
         21   -1    0    0  502  503 -0.00000000000E+00 -0.00000000000E+00 -0.12122730601E+03  0.12122730601E+03  0.00000000000E+00 0.  1.
         24    1    1    2    0    0  0.56851475529E+02 -0.11249717472E+02 -0.45350227918E+02  0.10900690593E+03  0.80419002446E+02 0.  1.
          1    1    1    2  501    0 -0.21384887666E+02 -0.34854128200E+01 -0.11164205502E+01  0.21695804153E+02  0.00000000000E+00 0. -1.
         -2    1    1    2    0  503 -0.35466587864E+02  0.14735130292E+02 -0.21346025732E+02  0.43939227735E+02  0.00000000000E+00 0.  1.
<mgrwt>
<rscale>  2 0.79599158E+02</rscale>
<asrwt>0</asrwt>
<pdfrwt beam="1">  1       21 0.82176357E-02 0.79599158E+02</pdfrwt>
<pdfrwt beam="2">  1       21 0.18650355E-01 0.79599158E+02</pdfrwt>
<totfact> 0.29162789E+06</totfact>
</mgrwt>
</event>
<event>
 5    1  0.1696945E+000  0.9661163E+02  0.7546771E-02  0.1287587E+00
         21   -1    0    0  501  502  0.00000000000E+00  0.00000000000E+00  0.35256525617E+03  0.35256525617E+03  0.00000000000E+00 0.  1.
         21   -1    0    0  502  503 -0.00000000000E+00 -0.00000000000E+00 -0.86729874679E+02  0.86729874679E+02  0.00000000000E+00 0.  1.
         24    1    1    2    0    0  0.61540670840E+02 -0.42359829503E+02  0.15580390349E+03  0.19058772683E+03  0.80419002446E+02 0.  1.
          1    1    1    2  501    0 -0.46403232068E+02  0.96252595116E+01  0.17123294435E+03  0.17766999408E+03  0.00000000000E+00 0. -1.
         -2    1    1    2    0  503 -0.15137438772E+02  0.32734569991E+02 -0.61201466354E+02  0.71037409926E+02  0.00000000000E+00 0.  1.
<mgrwt>
<rscale>  2 0.96611632E+02</rscale>
<asrwt>0</asrwt>
<pdfrwt beam="1">  1       21 0.54240808E-01 0.96611632E+02</pdfrwt>
<pdfrwt beam="2">  1       21 0.13343058E-01 0.96611632E+02</pdfrwt>
<totfact> 0.16075195E+05</totfact>
</mgrwt>
</event>
<event>
 5    1  0.1696945E+000  0.6357536E+02  0.7546771E-02  0.1383412E+00
         21   -1    0    0  503  502  0.00000000000E+00  0.00000000000E+00  0.19666843961E+02  0.19666843961E+02  0.00000000000E+00 0.  1.
         21   -1    0    0  501  503 -0.00000000000E+00 -0.00000000000E+00 -0.23450759374E+03  0.23450759374E+03  0.00000000000E+00 0.  1.
         24    1    1    2    0    0 -0.69218772425E+01  0.33256897743E+01 -0.14449308737E+03  0.16554286710E+03  0.80419002446E+02 0.  1.
          1    1    1    2  501    0 -0.78583371780E+01 -0.21528647911E+02 -0.57490216343E+02  0.61889911288E+02  0.00000000000E+00 0. -1.
         -2    1    1    2    0  502  0.14780214420E+02  0.18202958137E+02 -0.12857446068E+02  0.26741659309E+02  0.00000000000E+00 0.  1.
<mgrwt>
<rscale>  2 0.63575363E+02</rscale>
<asrwt>0</asrwt>
<pdfrwt beam="1">  1       21 0.30256682E-02 0.63575363E+02</pdfrwt>
<pdfrwt beam="2">  1       21 0.36078093E-01 0.63575363E+02</pdfrwt>
<totfact> 0.43790387E+06</totfact>
</mgrwt>
</event>
<event>
 5    1  0.1696945E+000  0.1137571E+03  0.7546771E-02  0.1253766E+00
         21   -1    0    0  501  502  0.00000000000E+00  0.00000000000E+00  0.38112006792E+03  0.38112006792E+03  0.00000000000E+00 0. -1.
         21   -1    0    0  502  503 -0.00000000000E+00 -0.00000000000E+00 -0.51943609507E+02  0.51943609507E+02  0.00000000000E+00 0.  1.
         24    1    1    2    0    0 -0.98792823278E+00 -0.49281019857E+02  0.35440138930E+02  0.10076117468E+03  0.80419002446E+02 0.  1.
          1    1    1    2  501    0 -0.49019642158E+02 -0.15447129621E+02  0.20615539449E+03  0.21246549322E+03  0.00000000000E+00 0. -1.
         -2    1    1    2    0  503  0.50007570391E+02  0.64728149478E+02  0.87580924991E+02  0.11983700953E+03  0.00000000000E+00 0.  1.
<mgrwt>
<rscale>  2 0.11375712E+03</rscale>
<asrwt>0</asrwt>
<pdfrwt beam="1">  1       21 0.58633855E-01 0.11375712E+03</pdfrwt>
<pdfrwt beam="2">  1       21 0.79913248E-02 0.11375712E+03</pdfrwt>
<totfact> 0.33252633E+05</totfact>
</mgrwt>
</event>
<event>
 5    1  0.1696945E+000  0.6215391E+02  0.7546771E-02  0.1389009E+00
         21   -1    0    0  503  502  0.00000000000E+00  0.00000000000E+00  0.41279881677E+02  0.41279881677E+02  0.00000000000E+00 0.  1.
         21   -1    0    0  501  503 -0.00000000000E+00 -0.00000000000E+00 -0.11082679192E+03  0.11082679192E+03  0.00000000000E+00 0.  1.
         24    1    1    2    0    0  0.66510514402E+00 -0.36523179247E+01 -0.61731939207E+02  0.10144865728E+03  0.80419002446E+02 0.  1.
          1    1    1    2  501    0 -0.20472965378E+02 -0.65853962585E+01 -0.16106903016E+02  0.26868979885E+02  0.00000000000E+00 0. -1.
         -2    1    1    2    0  502  0.19807860234E+02  0.10237714183E+02  0.82919319756E+01  0.23789036438E+02  0.00000000000E+00 0.  1.
<mgrwt>
<rscale>  2 0.62153908E+02</rscale>
<asrwt>0</asrwt>
<pdfrwt beam="1">  1       21 0.63507512E-02 0.62153908E+02</pdfrwt>
<pdfrwt beam="2">  1       21 0.17050275E-01 0.62153908E+02</pdfrwt>
<totfact> 0.52020793E+06</totfact>
</mgrwt>
</event>
<event>
 5    1  0.1696945E+000  0.7123303E+02  0.7546771E-02  0.1355950E+00
         21   -1    0    0  501  502  0.00000000000E+00  0.00000000000E+00  0.21245565809E+02  0.21245565809E+02  0.00000000000E+00 0. -1.
         21   -1    0    0  502  503 -0.00000000000E+00 -0.00000000000E+00 -0.23927164282E+03  0.23927164282E+03  0.00000000000E+00 0.  1.
         24    1    1    2    0    0  0.89690919377E+01 -0.31581472688E+02 -0.13779431617E+03  0.16288745670E+03  0.80419002446E+02 0.  1.
          1    1    1    2  501    0  0.18397491656E+02  0.12569707448E+02 -0.33556771572E+02  0.40280543230E+02  0.00000000000E+00 0. -1.
         -2    1    1    2    0  503 -0.27366583594E+02  0.19011765240E+02 -0.46674989272E+02  0.57349208702E+02  0.00000000000E+00 0.  1.
<mgrwt>
<rscale>  2 0.71233034E+02</rscale>
<asrwt>0</asrwt>
<pdfrwt beam="1">  1       21 0.32685488E-02 0.71233034E+02</pdfrwt>
<pdfrwt beam="2">  1       21 0.36811019E-01 0.71233034E+02</pdfrwt>
<totfact> 0.37465959E+06</totfact>
</mgrwt>
</event>
<event>
 5    1  0.1696945E+000  0.8348095E+02  0.7546771E-02  0.1319454E+00
         21   -1    0    0  501  502  0.00000000000E+00  0.00000000000E+00  0.33186806002E+03  0.33186806002E+03  0.00000000000E+00 0. -1.
         21   -1    0    0  502  503 -0.00000000000E+00 -0.00000000000E+00 -0.15579549701E+03  0.15579549701E+03  0.00000000000E+00 0.  1.
         24    1    1    2    0    0  0.12666874586E+02 -0.44257795384E+02  0.36108346944E+01  0.92733253181E+02  0.80419002446E+02 0.  1.
          1    1    1    2  501    0 -0.23272089055E+02 -0.50918794342E+01  0.27743281585E+03  0.27845373884E+03  0.00000000000E+00 0. -1.
         -2    1    1    2    0  503  0.10605214469E+02  0.49349674818E+02 -0.10497108753E+03  0.11647656500E+03  0.00000000000E+00 0.  1.
<mgrwt>
<rscale>  2 0.83480946E+02</rscale>
<asrwt>0</asrwt>
<pdfrwt beam="1">  1       21 0.51056625E-01 0.83480946E+02</pdfrwt>
<pdfrwt beam="2">  1       21 0.23968538E-01 0.83480946E+02</pdfrwt>
<totfact> 0.63388520E+04</totfact>
</mgrwt>
</event>
<event>
 5    1  0.1696945E+000  0.1082469E+03  0.7546771E-02  0.1263851E+00
         21   -1    0    0  503  502  0.00000000000E+00  0.00000000000E+00  0.22434056863E+03  0.22434056863E+03  0.00000000000E+00 0.  1.
         21   -1    0    0  501  503 -0.00000000000E+00 -0.00000000000E+00 -0.94684602658E+03  0.94684602658E+03  0.00000000000E+00 0. -1.
         24    1    1    2    0    0 -0.12811334521E+02  0.83326251701E+02 -0.73820766460E+03  0.74734541314E+03  0.80419002446E+02 0. -1.
          1    1    1    2  501    0  0.33081993008E+02 -0.63649967700E+02 -0.19680181713E+03  0.20946763921E+03  0.00000000000E+00 0. -1.
         -2    1    1    2    0  502 -0.20270658487E+02 -0.19676284001E+02  0.21250402379E+03  0.21437354285E+03  0.00000000000E+00 0.  1.
<mgrwt>
<rscale>  2 0.10824690E+03</rscale>
<asrwt>0</asrwt>
<pdfrwt beam="1">  1       21 0.34513934E-01 0.10824690E+03</pdfrwt>
<pdfrwt beam="2">  1       21 0.14566862E+00 0.10824690E+03</pdfrwt>
<totfact> 0.28730523E+03</totfact>
</mgrwt>
</event>
<event>
 5    1  0.1742790E+000  0.9272365E+02  0.7546771E-02  0.1296387E+00
         21   -1    0    0  503  502  0.00000000000E+00  0.00000000000E+00  0.74127279235E+03  0.74127279235E+03  0.00000000000E+00 0. -1.
         21   -1    0    0  501  503 -0.00000000000E+00 -0.00000000000E+00 -0.41657258635E+02  0.41657258635E+02  0.00000000000E+00 0. -1.
         24    1    1    2    0    0 -0.65718025744E+02 -0.14052018367E+02  0.59553360419E+03  0.60468488306E+03  0.80419002446E+02 0. -1.
          1    1    1    2  501    0  0.57514929157E+02 -0.71061199044E+01 -0.12659317523E+02  0.59318819410E+02  0.00000000000E+00 0. -1.
         -2    1    1    2    0  502  0.82030965874E+01  0.21158138271E+02  0.11674124705E+03  0.11892634851E+03  0.00000000000E+00 0.  1.
<mgrwt>
<rscale>  2 0.92723646E+02</rscale>
<asrwt>0</asrwt>
<pdfrwt beam="1">  1       21 0.11404196E+00 0.92723646E+02</pdfrwt>
<pdfrwt beam="2">  1       21 0.64088096E-02 0.92723646E+02</pdfrwt>
<totfact> 0.11034240E+05</totfact>
</mgrwt>
</event>
<event>
 5    1  0.1696945E+000  0.6832774E+02  0.7546771E-02  0.1365874E+00
         21   -1    0    0  501  502  0.00000000000E+00  0.00000000000E+00  0.58599461777E+03  0.58599461777E+03  0.00000000000E+00 0. -1.
         21   -1    0    0  502  503 -0.00000000000E+00 -0.00000000000E+00 -0.11229868658E+02  0.11229868658E+02  0.00000000000E+00 0.  1.
         24    1    1    2    0    0 -0.10688128218E+02  0.70952950799E+01  0.23532976537E+03  0.24902187398E+03  0.80419002446E+02 0. -1.
          1    1    1    2  501    0  0.32155334406E+02  0.12693019396E+01  0.30547273646E+03  0.30716309898E+03  0.00000000000E+00 0. -1.
         -2    1    1    2    0  503 -0.21467206188E+02 -0.83645970195E+01  0.33962247285E+02  0.41039513465E+02  0.00000000000E+00 0.  1.
<mgrwt>
<rscale>  2 0.68327735E+02</rscale>
<asrwt>0</asrwt>
<pdfrwt beam="1">  1       21 0.90152994E-01 0.68327735E+02</pdfrwt>
<pdfrwt beam="2">  1       21 0.17276726E-02 0.68327735E+02</pdfrwt>
<totfact> 0.16127344E+06</totfact>
</mgrwt>
</event>
<event>
 5    1  0.1696945E+000  0.1042873E+03  0.7546771E-02  0.1271530E+00
         21   -1    0    0  503  502  0.00000000000E+00  0.00000000000E+00  0.27078259575E+02  0.27078259575E+02  0.00000000000E+00 0.  1.
         21   -1    0    0  501  503 -0.00000000000E+00 -0.00000000000E+00 -0.42507411091E+03  0.42507411091E+03  0.00000000000E+00 0. -1.
         24    1    1    2    0    0 -0.60023121269E+02 -0.30202800218E+02 -0.24886804414E+03  0.27003241208E+03  0.80419002446E+02 0. -1.
          1    1    1    2  501    0 -0.60472346813E+01 -0.19939095898E+02 -0.39411019055E+02  0.44579872313E+02  0.00000000000E+00 0. -1.
         -2    1    1    2    0  502  0.66070355950E+02  0.50141896116E+02 -0.10971678814E+03  0.13754008609E+03  0.00000000000E+00 0.  1.
<mgrwt>
<rscale>  2 0.10428735E+03</rscale>
<asrwt>0</asrwt>
<pdfrwt beam="1">  1       21 0.41658861E-02 0.10428735E+03</pdfrwt>
<pdfrwt beam="2">  1       21 0.65396017E-01 0.10428735E+03</pdfrwt>
<totfact> 0.79126082E+05</totfact>
</mgrwt>
</event>
<event>
 5    1  0.1696945E+000  0.7596961E+02  0.7546771E-02  0.1340894E+00
         21   -1    0    0  503  502  0.00000000000E+00  0.00000000000E+00  0.10719906259E+04  0.10719906259E+04  0.00000000000E+00 0. -1.
         21   -1    0    0  501  503 -0.00000000000E+00 -0.00000000000E+00 -0.10575629083E+02  0.10575629083E+02  0.00000000000E+00 0.  1.
         24    1    1    2    0    0  0.20374225362E+02 -0.66558755343E+01  0.50476084393E+03  0.51157612851E+03  0.80419002446E+02 0. -1.
          1    1    1    2  501    0  0.20589226385E+02 -0.11858111333E+02  0.16402918756E+02  0.28871903145E+02  0.00000000000E+00 0. -1.
         -2    1    1    2    0  502 -0.40963451747E+02  0.18513986868E+02  0.54025123413E+03  0.54211822333E+03  0.00000000000E+00 0.  1.
<mgrwt>
<rscale>  2 0.75969606E+02</rscale>
<asrwt>0</asrwt>
<pdfrwt beam="1">  1       21 0.16492155E+00 0.75969606E+02</pdfrwt>
<pdfrwt beam="2">  1       21 0.16270207E-02 0.75969606E+02</pdfrwt>
<totfact> 0.41537967E+05</totfact>
</mgrwt>
</event>
<event>
 5    1  0.1696945E+000  0.9471446E+02  0.7546771E-02  0.1291820E+00
         21   -1    0    0  503  502  0.00000000000E+00  0.00000000000E+00  0.11108628458E+03  0.11108628458E+03  0.00000000000E+00 0.  1.
         21   -1    0    0  501  503 -0.00000000000E+00 -0.00000000000E+00 -0.84784195668E+02  0.84784195668E+02  0.00000000000E+00 0. -1.
         24    1    1    2    0    0 -0.46587309660E+02 -0.11210185168E+02  0.27551704114E+02  0.97582570302E+02  0.80419002446E+02 0.  0.
          1    1    1    2  501    0 -0.62455641304E+01 -0.28846845500E+02 -0.10535913008E+02  0.31339320821E+02  0.00000000000E+00 0. -1.
         -2    1    1    2    0  502  0.52832873790E+02  0.40057030669E+02  0.92862978053E+01  0.66948589125E+02  0.00000000000E+00 0.  1.
<mgrwt>
<rscale>  2 0.94714462E+02</rscale>
<asrwt>0</asrwt>
<pdfrwt beam="1">  1       21 0.17090198E-01 0.94714462E+02</pdfrwt>
<pdfrwt beam="2">  1       21 0.13043722E-01 0.94714462E+02</pdfrwt>
<totfact> 0.15434287E+06</totfact>
</mgrwt>
</event>
<event>
 5    1  0.1696945E+000  0.1034584E+03  0.7546771E-02  0.1273187E+00
         21   -1    0    0  501  502  0.00000000000E+00  0.00000000000E+00  0.34881999199E+02  0.34881999199E+02  0.00000000000E+00 0. -1.
         21   -1    0    0  502  503 -0.00000000000E+00 -0.00000000000E+00 -0.54650700580E+03  0.54650700580E+03  0.00000000000E+00 0. -1.
         24    1    1    2    0    0  0.25706047134E+02 -0.77332096198E+02 -0.44031630771E+03  0.45495793294E+03  0.80419002446E+02 0. -1.
          1    1    1    2  501    0  0.12404671175E+02  0.21604807342E+02  0.40652140913E+01  0.25242217273E+02  0.00000000000E+00 0. -1.
         -2    1    1    2    0  503 -0.38110718309E+02  0.55727288856E+02 -0.75373912984E+02  0.10118885478E+03  0.00000000000E+00 0.  1.
<mgrwt>
<rscale>  2 0.10345836E+03</rscale>
<asrwt>0</asrwt>
<pdfrwt beam="1">  1       21 0.53664610E-02 0.10345836E+03</pdfrwt>
<pdfrwt beam="2">  1       21 0.84078007E-01 0.10345836E+03</pdfrwt>
<totfact> 0.29937608E+05</totfact>
</mgrwt>
</event>
<event>
 5    1  0.1696945E+000  0.9340494E+02  0.7546771E-02  0.1294810E+00
         21   -1    0    0  503  502  0.00000000000E+00  0.00000000000E+00  0.71440395619E+03  0.71440395619E+03  0.00000000000E+00 0.  1.
         21   -1    0    0  501  503 -0.00000000000E+00 -0.00000000000E+00 -0.39507724156E+02  0.39507724156E+02  0.00000000000E+00 0.  1.
         24    1    1    2    0    0 -0.32226802904E+01 -0.58655687527E+02  0.16314181578E+03  0.19113697538E+03  0.80419002446E+02 0.  1.
          1    1    1    2  501    0 -0.27426295453E+02  0.47025316101E+02  0.46776168082E+01  0.54639382644E+02  0.00000000000E+00 0. -1.
         -2    1    1    2    0  502  0.30648975743E+02  0.11630371426E+02  0.50707679944E+03  0.50813532231E+03  0.00000000000E+00 0.  1.
<mgrwt>
<rscale>  2 0.93404942E+02</rscale>
<asrwt>0</asrwt>
<pdfrwt beam="1">  1       21 0.10990829E+00 0.93404942E+02</pdfrwt>
<pdfrwt beam="2">  1       21 0.60781119E-02 0.93404942E+02</pdfrwt>
<totfact> 0.13161987E+05</totfact>
</mgrwt>
</event>
<event>
 5    1  0.1696945E+000  0.1197523E+03  0.7546771E-02  0.1243506E+00
         21   -1    0    0  503  502  0.00000000000E+00  0.00000000000E+00  0.92726404990E+02  0.92726404990E+02  0.00000000000E+00 0. -1.
         21   -1    0    0  501  503 -0.00000000000E+00 -0.00000000000E+00 -0.21739450987E+03  0.21739450987E+03  0.00000000000E+00 0. -1.
         24    1    1    2    0    0  0.88269501279E+01  0.69039507288E+02 -0.10534367482E+03  0.14969593980E+03  0.80419002446E+02 0. -1.
          1    1    1    2  501    0 -0.24114309475E+02 -0.97718326567E+02 -0.52893472401E+02  0.11370176204E+03  0.00000000000E+00 0. -1.
         -2    1    1    2    0  502  0.15287359347E+02  0.28678819278E+02  0.33569042339E+02  0.46723213016E+02  0.00000000000E+00 0.  1.
<mgrwt>
<rscale>  2 0.11975229E+03</rscale>
<asrwt>0</asrwt>
<pdfrwt beam="1">  1       21 0.14265601E-01 0.11975229E+03</pdfrwt>
<pdfrwt beam="2">  1       21 0.33445309E-01 0.11975229E+03</pdfrwt>
<totfact> 0.37458425E+05</totfact>
</mgrwt>
</event>
<event>
 5    1  0.1696945E+000  0.7512818E+02  0.7546771E-02  0.1343475E+00
         21   -1    0    0  503  502  0.00000000000E+00  0.00000000000E+00  0.19405747383E+04  0.19405747383E+04  0.00000000000E+00 0.  1.
         21   -1    0    0  501  503 -0.00000000000E+00 -0.00000000000E+00 -0.88483837745E+01  0.88483837745E+01  0.00000000000E+00 0. -1.
         24    1    1    2    0    0  0.98124713477E+01  0.52701668862E+02  0.31853762396E+03  0.33287713098E+03  0.80419002446E+02 0.  0.
          1    1    1    2  501    0 -0.61331027933E+01 -0.32453314318E+02  0.16826876957E+03  0.17147947799E+03  0.00000000000E+00 0. -1.
         -2    1    1    2    0  502 -0.36793685545E+01 -0.20248354545E+02  0.14449199610E+04  0.14450665131E+04  0.00000000000E+00 0.  1.
<mgrwt>
<rscale>  2 0.75128181E+02</rscale>
<asrwt>0</asrwt>
<pdfrwt beam="1">  1       21 0.29854962E+00 0.75128181E+02</pdfrwt>
<pdfrwt beam="2">  1       21 0.13612913E-02 0.75128181E+02</pdfrwt>
<totfact> 0.91634472E+04</totfact>
</mgrwt>
</event>
<event>
 5    1  0.1696945E+000  0.8022357E+02  0.7546771E-02  0.1328418E+00
         21   -1    0    0  503  502  0.00000000000E+00  0.00000000000E+00  0.28421189192E+03  0.28421189192E+03  0.00000000000E+00 0.  1.
         21   -1    0    0  501  503 -0.00000000000E+00 -0.00000000000E+00 -0.53893204366E+03  0.53893204366E+03  0.00000000000E+00 0. -1.
         24    1    1    2    0    0  0.15285102155E+02  0.26591292448E+02 -0.14768611811E+03  0.17093606003E+03  0.80419002446E+02 0.  1.
          1    1    1    2  501    0 -0.76111955773E+00  0.22842133255E+02 -0.37683700069E+03  0.37752942593E+03  0.00000000000E+00 0. -1.
         -2    1    1    2    0  502 -0.14523982597E+02 -0.49433425703E+02  0.26980296706E+03  0.27467844961E+03  0.00000000000E+00 0.  1.
<mgrwt>
<rscale>  2 0.80223573E+02</rscale>
<asrwt>0</asrwt>
<pdfrwt beam="1">  1       21 0.43724907E-01 0.80223573E+02</pdfrwt>
<pdfrwt beam="2">  1       21 0.82912621E-01 0.80223573E+02</pdfrwt>
<totfact> 0.71450660E+03</totfact>
</mgrwt>
</event>
<event>
 5    1  0.1696945E+000  0.1389410E+03  0.7546771E-02  0.1214761E+00
         21   -1    0    0  501  502  0.00000000000E+00  0.00000000000E+00  0.50541012390E+02  0.50541012390E+02  0.00000000000E+00 0. -1.
         21   -1    0    0  502  503 -0.00000000000E+00 -0.00000000000E+00 -0.55560488333E+03  0.55560488333E+03  0.00000000000E+00 0. -1.
         24    1    1    2    0    0  0.71408660041E+02 -0.93110392993E+02 -0.32602911810E+03  0.35571188315E+03  0.80419002446E+02 0. -1.
          1    1    1    2  501    0 -0.35367729932E+02 -0.44599250145E+00  0.97401877411E+01  0.36687143349E+02  0.00000000000E+00 0. -1.
         -2    1    1    2    0  503 -0.36040930109E+02  0.93556385495E+02 -0.18877494059E+03  0.21374686923E+03  0.00000000000E+00 0.  1.
<mgrwt>
<rscale>  2 0.13894104E+03</rscale>
<asrwt>0</asrwt>
<pdfrwt beam="1">  1       21 0.77755402E-02 0.13894104E+03</pdfrwt>
<pdfrwt beam="2">  1       21 0.85477676E-01 0.13894104E+03</pdfrwt>
<totfact> 0.15196114E+05</totfact>
</mgrwt>
</event>
<event>
 5    1  0.1696945E+000  0.1886981E+03  0.7546771E-02  0.1159641E+00
         21   -1    0    0  501  502  0.00000000000E+00  0.00000000000E+00  0.12872515512E+04  0.12872515512E+04  0.00000000000E+00 0. -1.
         21   -1    0    0  502  503 -0.00000000000E+00 -0.00000000000E+00 -0.17949254974E+03  0.17949254974E+03  0.00000000000E+00 0. -1.
         24    1    1    2    0    0 -0.14093450577E+03 -0.30163386692E+02  0.62817183193E+02  0.17659439196E+03  0.80419002446E+02 0. -1.
          1    1    1    2  501    0  0.17556578239E+03  0.24869328180E+02  0.11581495560E+04  0.11716450919E+04  0.00000000000E+00 0. -1.
         -2    1    1    2    0  503 -0.34631276629E+02  0.52940585114E+01 -0.11320773773E+03  0.11850461703E+03  0.00000000000E+00 0.  1.
<mgrwt>
<rscale>  2 0.18869810E+03</rscale>
<asrwt>0</asrwt>
<pdfrwt beam="1">  1       21 0.19803869E+00 0.18869810E+03</pdfrwt>
<pdfrwt beam="2">  1       21 0.27614239E-01 0.18869810E+03</pdfrwt>
<totfact> 0.17372078E+03</totfact>
</mgrwt>
</event>
<event>
 5    1  0.1696945E+000  0.1394053E+03  0.7546771E-02  0.1214131E+00
         21   -1    0    0  503  502  0.00000000000E+00  0.00000000000E+00  0.24150987945E+02  0.24150987945E+02  0.00000000000E+00 0. -1.
         21   -1    0    0  501  503 -0.00000000000E+00 -0.00000000000E+00 -0.13439719874E+04  0.13439719874E+04  0.00000000000E+00 0. -1.
         24    1    1    2    0    0 -0.77083955772E+02 -0.42372543290E+02 -0.21428385869E+03  0.24519819884E+03  0.80419002446E+02 0. -1.
          1    1    1    2  501    0  0.10800296730E+03  0.60492596664E+02 -0.10469714198E+04  0.10542642691E+04  0.00000000000E+00 0. -1.
         -2    1    1    2    0  502 -0.30919011524E+02 -0.18120053374E+02 -0.58565720986E+02  0.68660507445E+02  0.00000000000E+00 0.  1.
<mgrwt>
<rscale>  2 0.13940527E+03</rscale>
<asrwt>0</asrwt>
<pdfrwt beam="1">  1       21 0.37155363E-02 0.13940527E+03</pdfrwt>
<pdfrwt beam="2">  1       21 0.20676494E+00 0.13940527E+03</pdfrwt>
<totfact> 0.55973013E+04</totfact>
</mgrwt>
</event>
<event>
 5    1  0.1696945E+000  0.7161362E+02  0.7546771E-02  0.1354690E+00
         21   -1    0    0  503  502  0.00000000000E+00  0.00000000000E+00  0.15555738282E+02  0.15555738282E+02  0.00000000000E+00 0. -1.
         21   -1    0    0  501  503 -0.00000000000E+00 -0.00000000000E+00 -0.39167837518E+03  0.39167837518E+03  0.00000000000E+00 0.  1.
         24    1    1    2    0    0  0.36043898499E+00 -0.25027099584E+01 -0.24389359422E+03  0.25682230185E+03  0.80419002446E+02 0.  1.
          1    1    1    2  501    0  0.15844401003E+02  0.28224519264E+02 -0.10401950816E+03  0.10893909587E+03  0.00000000000E+00 0. -1.
         -2    1    1    2    0  502 -0.16204839988E+02 -0.25721809306E+02 -0.28209534513E+02  0.41472715735E+02  0.00000000000E+00 0.  1.
<mgrwt>
<rscale>  2 0.71613623E+02</rscale>
<asrwt>0</asrwt>
<pdfrwt beam="1">  1       21 0.23931907E-02 0.71613623E+02</pdfrwt>
<pdfrwt beam="2">  1       21 0.60258207E-01 0.71613623E+02</pdfrwt>
<totfact> 0.22977706E+06</totfact>
</mgrwt>
</event>
<event>
 5    1  0.1696945E+000  0.8897779E+02  0.7546771E-02  0.1305346E+00
         21   -1    0    0  501  502  0.00000000000E+00  0.00000000000E+00  0.10745791988E+03  0.10745791988E+03  0.00000000000E+00 0.  1.
         21   -1    0    0  502  503 -0.00000000000E+00 -0.00000000000E+00 -0.11885382152E+03  0.11885382152E+03  0.00000000000E+00 0. -1.
         24    1    1    2    0    0  0.12007353804E+02  0.54003811970E+02 -0.67724029227E+02  0.11880382293E+03  0.80419002446E+02 0. -1.
          1    1    1    2  501    0 -0.19129726966E+02  0.59003551109E+01  0.40441405102E+02  0.45125025107E+02  0.00000000000E+00 0. -1.
         -2    1    1    2    0  503  0.71223731618E+01 -0.59904167081E+02  0.15886722485E+02  0.62382893364E+02  0.00000000000E+00 0.  1.
<mgrwt>
<rscale>  2 0.88977786E+02</rscale>
<asrwt>0</asrwt>
<pdfrwt beam="1">  1       21 0.16531988E-01 0.88977786E+02</pdfrwt>
<pdfrwt beam="2">  1       21 0.18285203E-01 0.88977786E+02</pdfrwt>
<totfact> 0.89365938E+05</totfact>
</mgrwt>
</event>
<event>
 5    1  0.1696945E+000  0.7725755E+02  0.7546771E-02  0.1337019E+00
         21   -1    0    0  501  502  0.00000000000E+00  0.00000000000E+00  0.47448158002E+02  0.47448158002E+02  0.00000000000E+00 0.  1.
         21   -1    0    0  502  503 -0.00000000000E+00 -0.00000000000E+00 -0.16931490328E+03  0.16931490328E+03  0.00000000000E+00 0. -1.
         24    1    1    2    0    0  0.17502523231E+02 -0.46029735005E+02 -0.36918706082E+02  0.10126836444E+03  0.80419002446E+02 0.  1.
          1    1    1    2  501    0  0.16816724085E+01  0.40101699570E+02 -0.15207809734E+02  0.42921460919E+02  0.00000000000E+00 0. -1.
         -2    1    1    2    0  503 -0.19184195639E+02  0.59280354352E+01 -0.69740229457E+02  0.72573235915E+02  0.00000000000E+00 0.  1.
<mgrwt>
<rscale>  2 0.77257553E+02</rscale>
<asrwt>0</asrwt>
<pdfrwt beam="1">  1       21 0.72997165E-02 0.77257553E+02</pdfrwt>
<pdfrwt beam="2">  1       21 0.26048447E-01 0.77257553E+02</pdfrwt>
<totfact> 0.19253779E+06</totfact>
</mgrwt>
</event>
<event>
 5    1  0.1696945E+000  0.7250522E+02  0.7546771E-02  0.1351775E+00
         21   -1    0    0  501  502  0.00000000000E+00  0.00000000000E+00  0.14306317325E+03  0.14306317325E+03  0.00000000000E+00 0. -1.
         21   -1    0    0  502  503 -0.00000000000E+00 -0.00000000000E+00 -0.59442941426E+02  0.59442941426E+02  0.00000000000E+00 0.  1.
         24    1    1    2    0    0 -0.18491005491E+02 -0.43675429502E+01  0.69053104984E+02  0.10768723219E+03  0.80419002446E+02 0.  0.
          1    1    1    2  501    0  0.40357509958E+02  0.29350589282E+01  0.42918532685E+02  0.58985961286E+02  0.00000000000E+00 0. -1.
         -2    1    1    2    0  503 -0.21866504467E+02  0.14324840220E+01 -0.28351405845E+02  0.35832921196E+02  0.00000000000E+00 0.  1.
<mgrwt>
<rscale>  2 0.72505224E+02</rscale>
<asrwt>0</asrwt>
<pdfrwt beam="1">  1       21 0.22009719E-01 0.72505224E+02</pdfrwt>
<pdfrwt beam="2">  1       21 0.91450679E-02 0.72505224E+02</pdfrwt>
<totfact> 0.17877801E+06</totfact>
</mgrwt>
</event>
<event>
 5    1  0.1696945E+000  0.1038645E+03  0.7546771E-02  0.1272373E+00
         21   -1    0    0  503  502  0.00000000000E+00  0.00000000000E+00  0.13508589566E+03  0.13508589566E+03  0.00000000000E+00 0. -1.
         21   -1    0    0  501  503 -0.00000000000E+00 -0.00000000000E+00 -0.97935982213E+02  0.97935982213E+02  0.00000000000E+00 0. -1.
         24    1    1    2    0    0 -0.26181313806E+02  0.83053383196E+02  0.43294601520E+02  0.12619415251E+03  0.80419002446E+02 0. -1.
          1    1    1    2  501    0  0.26849075493E+02 -0.55708780196E+02 -0.31613706489E+02  0.69453347534E+02  0.00000000000E+00 0. -1.
         -2    1    1    2    0  502 -0.66776168709E+00 -0.27344603000E+02  0.25469018412E+02  0.37374377824E+02  0.00000000000E+00 0.  1.
<mgrwt>
<rscale>  2 0.10386450E+03</rscale>
<asrwt>0</asrwt>
<pdfrwt beam="1">  1       21 0.20782446E-01 0.10386450E+03</pdfrwt>
<pdfrwt beam="2">  1       21 0.15067074E-01 0.10386450E+03</pdfrwt>
<totfact> 0.83692118E+05</totfact>
</mgrwt>
</event>
<event>
 5    1  0.1696945E+000  0.1417543E+03  0.7546771E-02  0.1210988E+00
         21   -1    0    0  501  502  0.00000000000E+00  0.00000000000E+00  0.43212303747E+03  0.43212303747E+03  0.00000000000E+00 0. -1.
         21   -1    0    0  502  503 -0.00000000000E+00 -0.00000000000E+00 -0.63586053942E+02  0.63586053942E+02  0.00000000000E+00 0. -1.
         24    1    1    2    0    0  0.57595326630E+02 -0.92213009044E+02  0.28893739081E+03  0.31901801273E+03  0.80419002446E+02 0. -1.
          1    1    1    2  501    0 -0.59853846900E+02  0.11273076252E+03  0.87327107663E+02  0.15465035254E+03  0.00000000000E+00 0. -1.
         -2    1    1    2    0  503  0.22585202706E+01 -0.20517753480E+02 -0.77275149418E+01  0.22040726142E+02  0.00000000000E+00 0.  1.
<mgrwt>
<rscale>  2 0.14175434E+03</rscale>
<asrwt>0</asrwt>
<pdfrwt beam="1">  1       21 0.66480465E-01 0.14175434E+03</pdfrwt>
<pdfrwt beam="2">  1       21 0.97824701E-02 0.14175434E+03</pdfrwt>
<totfact> 0.17781842E+05</totfact>
</mgrwt>
</event>
<event>
 5    1  0.1696945E+000  0.7970245E+02  0.7546771E-02  0.1329898E+00
         21   -1    0    0  503  502  0.00000000000E+00  0.00000000000E+00  0.51624567968E+03  0.51624567968E+03  0.00000000000E+00 0. -1.
         21   -1    0    0  501  503 -0.00000000000E+00 -0.00000000000E+00 -0.28394588731E+02  0.28394588731E+02  0.00000000000E+00 0. -1.
         24    1    1    2    0    0 -0.12318757663E+02  0.38851657637E+02  0.36552539293E+03  0.37648005514E+03  0.80419002446E+02 0. -1.
          1    1    1    2  501    0  0.19509034343E+02  0.85520901400E+01 -0.12751422259E+02  0.24826184491E+02  0.00000000000E+00 0. -1.
         -2    1    1    2    0  502 -0.71902766796E+01 -0.47403747777E+02  0.13507712028E+03  0.14333402877E+03  0.00000000000E+00 0.  1.
<mgrwt>
<rscale>  2 0.79702449E+02</rscale>
<asrwt>0</asrwt>
<pdfrwt beam="1">  1       21 0.79422405E-01 0.79702449E+02</pdfrwt>
<pdfrwt beam="2">  1       21 0.43683986E-02 0.79702449E+02</pdfrwt>
<totfact> 0.47999271E+05</totfact>
</mgrwt>
</event>
<event>
 5    1  0.1696945E+000  0.8063459E+02  0.7546771E-02  0.1327260E+00
         21   -1    0    0  503  502  0.00000000000E+00  0.00000000000E+00  0.54499551399E+02  0.54499551399E+02  0.00000000000E+00 0. -1.
         21   -1    0    0  501  503 -0.00000000000E+00 -0.00000000000E+00 -0.16871979203E+03  0.16871979203E+03  0.00000000000E+00 0. -1.
         24    1    1    2    0    0  0.39824617202E+02  0.55605219138E+00 -0.15428787459E+01  0.89754697696E+02  0.80419002446E+02 0. -1.
          1    1    1    2  501    0 -0.21522318244E+01 -0.25986447964E+02 -0.40505749997E+02  0.48173056395E+02  0.00000000000E+00 0. -1.
         -2    1    1    2    0  502 -0.37672385377E+02  0.25430395773E+02 -0.72171611886E+02  0.85291589336E+02  0.00000000000E+00 0.  1.
<mgrwt>
<rscale>  2 0.80634590E+02</rscale>
<asrwt>0</asrwt>
<pdfrwt beam="1">  1       21 0.83845463E-02 0.80634590E+02</pdfrwt>
<pdfrwt beam="2">  1       21 0.25956891E-01 0.80634590E+02</pdfrwt>
<totfact> 0.15339719E+06</totfact>
</mgrwt>
</event>
<event>
 5    1  0.1696945E+000  0.1295098E+03  0.7546771E-02  0.1228185E+00
         21   -1    0    0  501  502  0.00000000000E+00  0.00000000000E+00  0.62605018975E+03  0.62605018975E+03  0.00000000000E+00 0. -1.
         21   -1    0    0  502  503 -0.00000000000E+00 -0.00000000000E+00 -0.35073604984E+02  0.35073604984E+02  0.00000000000E+00 0.  1.
         24    1    1    2    0    0 -0.20728676305E+02 -0.41576798009E+01  0.99060805000E+02  0.12933376730E+03  0.80419002446E+02 0.  1.
          1    1    1    2  501    0 -0.16284732062E+02 -0.81207330271E+02  0.36584038127E+03  0.37509866376E+03  0.00000000000E+00 0. -1.
         -2    1    1    2    0  503  0.37013408367E+02  0.85365010072E+02  0.12607539850E+03  0.15669136368E+03  0.00000000000E+00 0.  1.
<mgrwt>
<rscale>  2 0.12950978E+03</rscale>
<asrwt>0</asrwt>
<pdfrwt beam="1">  1       21 0.96315406E-01 0.12950978E+03</pdfrwt>
<pdfrwt beam="2">  1       21 0.53959397E-02 0.12950978E+03</pdfrwt>
<totfact> 0.21609835E+05</totfact>
</mgrwt>
</event>
<event>
 5    1  0.1696945E+000  0.9974464E+02  0.7546771E-02  0.1280834E+00
         21   -1    0    0  503  502  0.00000000000E+00  0.00000000000E+00  0.51277626639E+03  0.51277626639E+03  0.00000000000E+00 0. -1.
         21   -1    0    0  501  503 -0.00000000000E+00 -0.00000000000E+00 -0.40329789280E+02  0.40329789280E+02  0.00000000000E+00 0. -1.
         24    1    1    2    0    0  0.28303440346E+02  0.61611658654E+02  0.30931814510E+03  0.32671396062E+03  0.80419002446E+02 0. -1.
          1    1    1    2  501    0 -0.48978619701E+02 -0.52217138026E+02  0.10826900721E+02  0.72406881376E+02  0.00000000000E+00 0. -1.
         -2    1    1    2    0  502  0.20675179355E+02 -0.93945206281E+01  0.15230143129E+03  0.15398521368E+03  0.00000000000E+00 0.  1.
<mgrwt>
<rscale>  2 0.99744637E+02</rscale>
<asrwt>0</asrwt>
<pdfrwt beam="1">  1       21 0.78888652E-01 0.99744637E+02</pdfrwt>
<pdfrwt beam="2">  1       21 0.62045833E-02 0.99744637E+02</pdfrwt>
<totfact> 0.27050901E+05</totfact>
</mgrwt>
</event>
<event>
 5    1  0.1696945E+000  0.1120331E+03  0.7546771E-02  0.1256851E+00
         21   -1    0    0  501  502  0.00000000000E+00  0.00000000000E+00  0.12076624257E+03  0.12076624257E+03  0.00000000000E+00 0. -1.
         21   -1    0    0  502  503 -0.00000000000E+00 -0.00000000000E+00 -0.12479489110E+03  0.12479489110E+03  0.00000000000E+00 0. -1.
         24    1    1    2    0    0  0.63508591419E+02 -0.46806668386E+02  0.47035628224E+02  0.12208100453E+03  0.80419002446E+02 0. -1.
          1    1    1    2  501    0 -0.82299422407E+02  0.38719149580E+02 -0.34942781660E+02  0.97433903047E+02  0.00000000000E+00 0. -1.
         -2    1    1    2    0  503  0.18790830988E+02  0.80875188055E+01 -0.16121495097E+02  0.26046226096E+02  0.00000000000E+00 0.  1.
<mgrwt>
<rscale>  2 0.11203306E+03</rscale>
<asrwt>0</asrwt>
<pdfrwt beam="1">  1       21 0.18579422E-01 0.11203306E+03</pdfrwt>
<pdfrwt beam="2">  1       21 0.19199214E-01 0.11203306E+03</pdfrwt>
<totfact> 0.66292083E+05</totfact>
</mgrwt>
</event>
<event>
 5    1  0.1696945E+000  0.1008903E+03  0.7546771E-02  0.1278435E+00
         21   -1    0    0  503  502  0.00000000000E+00  0.00000000000E+00  0.31330516399E+02  0.31330516399E+02  0.00000000000E+00 0. -1.
         21   -1    0    0  501  503 -0.00000000000E+00 -0.00000000000E+00 -0.37236506993E+03  0.37236506993E+03  0.00000000000E+00 0. -1.
         24    1    1    2    0    0 -0.25501216578E+02 -0.18564239819E+02 -0.89487227055E+02  0.12437894841E+03  0.80419002446E+02 0. -1.
          1    1    1    2  501    0  0.13577929871E+02  0.65539861098E+02 -0.18687529749E+03  0.19849990021E+03  0.00000000000E+00 0. -1.
         -2    1    1    2    0  502  0.11923286708E+02 -0.46975621279E+02 -0.64672028983E+02  0.80816737705E+02  0.00000000000E+00 0.  1.
<mgrwt>
<rscale>  2 0.10089026E+03</rscale>
<asrwt>0</asrwt>
<pdfrwt beam="1">  1       21 0.48200798E-02 0.10089026E+03</pdfrwt>
<pdfrwt beam="2">  1       21 0.57286929E-01 0.10089026E+03</pdfrwt>
<totfact> 0.82173718E+05</totfact>
</mgrwt>
</event>
<event>
 5    1  0.1696945E+000  0.1196943E+03  0.7546771E-02  0.1243602E+00
         21   -1    0    0  503  502  0.00000000000E+00  0.00000000000E+00  0.19440703661E+04  0.19440703661E+04  0.00000000000E+00 0.  1.
         21   -1    0    0  501  503 -0.00000000000E+00 -0.00000000000E+00 -0.14346287254E+02  0.14346287254E+02  0.00000000000E+00 0. -1.
         24    1    1    2    0    0 -0.37861985221E+02 -0.85801614617E+02  0.16475781300E+04  0.16522034855E+04  0.80419002446E+02 0.  1.
          1    1    1    2  501    0  0.27926196270E+01  0.80299590288E+02  0.16042169410E+03  0.17941834595E+03  0.00000000000E+00 0. -1.
         -2    1    1    2    0  502  0.35069365594E+02  0.55020243288E+01  0.12172425466E+03  0.12679482185E+03  0.00000000000E+00 0.  1.
<mgrwt>
<rscale>  2 0.11969432E+03</rscale>
<asrwt>0</asrwt>
<pdfrwt beam="1">  1       21 0.29908754E+00 0.11969432E+03</pdfrwt>
<pdfrwt beam="2">  1       21 0.22071227E-02 0.11969432E+03</pdfrwt>
<totfact> 0.39230231E+04</totfact>
</mgrwt>
</event>
<event>
 5    1  0.1696945E+000  0.6732872E+02  0.7546771E-02  0.1369420E+00
         21   -1    0    0  503  502  0.00000000000E+00  0.00000000000E+00  0.92713969325E+02  0.92713969325E+02  0.00000000000E+00 0. -1.
         21   -1    0    0  501  503 -0.00000000000E+00 -0.00000000000E+00 -0.79139437304E+02  0.79139437304E+02  0.00000000000E+00 0.  1.
         24    1    1    2    0    0  0.43218192113E+02  0.27177018275E+01 -0.29790546643E+01  0.91385385887E+02  0.80419002446E+02 0.  1.
          1    1    1    2  501    0 -0.20549158751E+02 -0.19005075855E+01 -0.25428935844E+02  0.32749208122E+02  0.00000000000E+00 0. -1.
         -2    1    1    2    0  502 -0.22669033362E+02 -0.81719424201E+00  0.41982522528E+02  0.47718812619E+02  0.00000000000E+00 0.  1.
<mgrwt>
<rscale>  2 0.67328715E+02</rscale>
<asrwt>0</asrwt>
<pdfrwt beam="1">  1       21 0.14263688E-01 0.67328715E+02</pdfrwt>
<pdfrwt beam="2">  1       21 0.12175298E-01 0.67328715E+02</pdfrwt>
<totfact> 0.23697881E+06</totfact>
</mgrwt>
</event>
<event>
 5    1  0.1696945E+000  0.1062490E+03  0.7546771E-02  0.1267678E+00
         21   -1    0    0  503  502  0.00000000000E+00  0.00000000000E+00  0.44894080978E+02  0.44894080978E+02  0.00000000000E+00 0.  1.
         21   -1    0    0  501  503 -0.00000000000E+00 -0.00000000000E+00 -0.72511173267E+03  0.72511173267E+03  0.00000000000E+00 0. -1.
         24    1    1    2    0    0  0.72796410426E+02 -0.44518979623E+02 -0.55964126534E+03  0.57179263614E+03  0.80419002446E+02 0. -1.
          1    1    1    2  501    0 -0.36778711356E+02  0.46362818209E+02 -0.14367483692E+03  0.15538546678E+03  0.00000000000E+00 0. -1.
         -2    1    1    2    0  502 -0.36017699070E+02 -0.18438385862E+01  0.23098450574E+02  0.42827710725E+02  0.00000000000E+00 0.  1.
<mgrwt>
<rscale>  2 0.10624900E+03</rscale>
<asrwt>0</asrwt>
<pdfrwt beam="1">  1       21 0.69067824E-02 0.10624900E+03</pdfrwt>
<pdfrwt beam="2">  1       21 0.11155564E+00 0.10624900E+03</pdfrwt>
<totfact> 0.10165378E+05</totfact>
</mgrwt>
</event>
<event>
 5    1  0.1696945E+000  0.7495049E+02  0.7546771E-02  0.1344024E+00
         21   -1    0    0  501  502  0.00000000000E+00  0.00000000000E+00  0.24454442584E+02  0.24454442584E+02  0.00000000000E+00 0. -1.
         21   -1    0    0  502  503 -0.00000000000E+00 -0.00000000000E+00 -0.43760768397E+03  0.43760768397E+03  0.00000000000E+00 0.  1.
         24    1    1    2    0    0  0.18898228320E+02  0.15847632054E+02 -0.32865204058E+03  0.33924573720E+03  0.80419002446E+02 0.  1.
          1    1    1    2  501    0  0.19247752484E+02 -0.19580527536E+02  0.26747109532E+01  0.27586719866E+02  0.00000000000E+00 0. -1.
         -2    1    1    2    0  503 -0.38145980804E+02  0.37328954821E+01 -0.87175911756E+02  0.95229669487E+02  0.00000000000E+00 0.  1.
<mgrwt>
<rscale>  2 0.74950485E+02</rscale>
<asrwt>0</asrwt>
<pdfrwt beam="1">  1       21 0.37622222E-02 0.74950485E+02</pdfrwt>
<pdfrwt beam="2">  1       21 0.67324254E-01 0.74950485E+02</pdfrwt>
<totfact> 0.87653843E+05</totfact>
</mgrwt>
</event>
<event>
 5    1  0.1696945E+000  0.9149848E+02  0.7546771E-02  0.1299263E+00
         21   -1    0    0  503  502  0.00000000000E+00  0.00000000000E+00  0.35155669307E+02  0.35155669307E+02  0.00000000000E+00 0.  1.
         21   -1    0    0  501  503 -0.00000000000E+00 -0.00000000000E+00 -0.33406694806E+03  0.33406694806E+03  0.00000000000E+00 0. -1.
         24    1    1    2    0    0 -0.63129559592E+02  0.15493590695E+02 -0.94484318650E+02  0.14007103581E+03  0.80419002446E+02 0.  1.
          1    1    1    2  501    0  0.45594082452E+02 -0.31846232460E+02 -0.19599862051E+03  0.20373625627E+03  0.00000000000E+00 0. -1.
         -2    1    1    2    0  502  0.17535477140E+02  0.16352641766E+02 -0.84283395897E+01  0.25415325288E+02  0.00000000000E+00 0.  1.
<mgrwt>
<rscale>  2 0.91498477E+02</rscale>
<asrwt>0</asrwt>
<pdfrwt beam="1">  1       21 0.54085644E-02 0.91498477E+02</pdfrwt>
<pdfrwt beam="2">  1       21 0.51394916E-01 0.91498477E+02</pdfrwt>
<totfact> 0.84826614E+05</totfact>
</mgrwt>
</event>
<event>
 5    1  0.1696945E+000  0.1017985E+03  0.7546771E-02  0.1276559E+00
         21   -1    0    0  503  502  0.00000000000E+00  0.00000000000E+00  0.32168415997E+03  0.32168415997E+03  0.00000000000E+00 0.  1.
         21   -1    0    0  501  503 -0.00000000000E+00 -0.00000000000E+00 -0.41578954078E+02  0.41578954078E+02  0.00000000000E+00 0.  1.
         24    1    1    2    0    0 -0.23819768078E+02 -0.82492957503E+02  0.10671239526E+03  0.15883079250E+03  0.80419002446E+02 0.  1.
          1    1    1    2  501    0  0.10794961266E+02  0.44522541059E+02  0.28208306432E+02  0.53800524188E+02  0.00000000000E+00 0. -1.
         -2    1    1    2    0  502  0.13024806813E+02  0.37970416444E+02  0.14518450420E+03  0.15063179737E+03  0.00000000000E+00 0.  1.
<mgrwt>
<rscale>  2 0.10179847E+03</rscale>
<asrwt>0</asrwt>
<pdfrwt beam="1">  1       21 0.49489869E-01 0.10179847E+03</pdfrwt>
<pdfrwt beam="2">  1       21 0.63967624E-02 0.10179847E+03</pdfrwt>
<totfact> 0.69165289E+05</totfact>
</mgrwt>
</event>
<event>
 5    1  0.1696945E+000  0.8291964E+02  0.7546771E-02  0.1320964E+00
         21   -1    0    0  503  502  0.00000000000E+00  0.00000000000E+00  0.13256961134E+03  0.13256961134E+03  0.00000000000E+00 0.  1.
         21   -1    0    0  501  503 -0.00000000000E+00 -0.00000000000E+00 -0.15992215950E+03  0.15992215950E+03  0.00000000000E+00 0.  1.
         24    1    1    2    0    0 -0.24340664378E+02 -0.17792456844E+01 -0.11646805293E+03  0.14362331623E+03  0.80419002446E+02 0.  1.
          1    1    1    2  501    0 -0.28555368572E+02 -0.28663671618E+01 -0.14712385320E+02  0.32250262275E+02  0.00000000000E+00 0. -1.
         -2    1    1    2    0  502  0.52896032951E+02  0.46456128462E+01  0.10382789010E+03  0.11661819233E+03  0.00000000000E+00 0.  1.
<mgrwt>
<rscale>  2 0.82919637E+02</rscale>
<asrwt>0</asrwt>
<pdfrwt beam="1">  1       21 0.20395325E-01 0.82919637E+02</pdfrwt>
<pdfrwt beam="2">  1       21 0.24603409E-01 0.82919637E+02</pdfrwt>
<totfact> 0.35367229E+05</totfact>
</mgrwt>
</event>
<event>
 5    1  0.1696945E+000  0.1402698E+03  0.7546771E-02  0.1212966E+00
         21   -1    0    0  501  502  0.00000000000E+00  0.00000000000E+00  0.12036107357E+03  0.12036107357E+03  0.00000000000E+00 0. -1.
         21   -1    0    0  502  503 -0.00000000000E+00 -0.00000000000E+00 -0.26950955551E+03  0.26950955551E+03  0.00000000000E+00 0.  1.
         24    1    1    2    0    0 -0.90276541346E+02 -0.28474195414E+02 -0.89458334755E+01  0.12453062922E+03  0.80419002446E+02 0.  1.
          1    1    1    2  501    0 -0.31252150736E+02 -0.10399418442E+01  0.37004345926E+02  0.48446878352E+02  0.00000000000E+00 0. -1.
         -2    1    1    2    0  503  0.12152869208E+03  0.29514137258E+02 -0.17720699439E+03  0.21689312151E+03  0.00000000000E+00 0.  1.
<mgrwt>
<rscale>  2 0.14026978E+03</rscale>
<asrwt>0</asrwt>
<pdfrwt beam="1">  1       21 0.18517088E-01 0.14026978E+03</pdfrwt>
<pdfrwt beam="2">  1       21 0.41463008E-01 0.14026978E+03</pdfrwt>
<totfact> 0.15173525E+05</totfact>
</mgrwt>
</event>
<event>
 5    1  0.1696945E+000  0.9489956E+02  0.7546771E-02  0.1291402E+00
         21   -1    0    0  501  502  0.00000000000E+00  0.00000000000E+00  0.22099645950E+03  0.22099645950E+03  0.00000000000E+00 0. -1.
         21   -1    0    0  502  503 -0.00000000000E+00 -0.00000000000E+00 -0.14035856315E+03  0.14035856315E+03  0.00000000000E+00 0. -1.
         24    1    1    2    0    0  0.77432372209E+02  0.15179481738E+01 -0.89890954431E+02  0.14333762966E+03  0.80419002446E+02 0. -1.
          1    1    1    2  501    0 -0.37942632773E+02  0.44882556786E+01  0.17379028220E+03  0.17794058000E+03  0.00000000000E+00 0. -1.
         -2    1    1    2    0  503 -0.39489739435E+02 -0.60062038523E+01 -0.32614314171E+01  0.40076813000E+02  0.00000000000E+00 0.  1.
<mgrwt>
<rscale>  2 0.94899565E+02</rscale>
<asrwt>0</asrwt>
<pdfrwt beam="1">  1       21 0.33999455E-01 0.94899565E+02</pdfrwt>
<pdfrwt beam="2">  1       21 0.21593625E-01 0.94899565E+02</pdfrwt>
<totfact> 0.17171042E+05</totfact>
</mgrwt>
</event>
<event>
 5    1  0.1696945E+000  0.7184893E+02  0.7546771E-02  0.1353916E+00
         21   -1    0    0  503  502  0.00000000000E+00  0.00000000000E+00  0.89875173000E+02  0.89875173000E+02  0.00000000000E+00 0. -1.
         21   -1    0    0  501  503 -0.00000000000E+00 -0.00000000000E+00 -0.19896067640E+03  0.19896067640E+03  0.00000000000E+00 0.  1.
         24    1    1    2    0    0  0.38421342519E+01 -0.11783487685E+02 -0.17535248610E+03  0.19331146607E+03  0.80419002446E+02 0.  1.
          1    1    1    2  501    0  0.28580312398E+02  0.29941859869E+01  0.10842104206E+02  0.30714013579E+02  0.00000000000E+00 0. -1.
         -2    1    1    2    0  502 -0.32422446650E+02  0.87893016983E+01  0.55424878495E+02  0.64810369751E+02  0.00000000000E+00 0.  1.
<mgrwt>
<rscale>  2 0.71848930E+02</rscale>
<asrwt>0</asrwt>
<pdfrwt beam="1">  1       21 0.13826950E-01 0.71848930E+02</pdfrwt>
<pdfrwt beam="2">  1       21 0.30609335E-01 0.71848930E+02</pdfrwt>
<totfact> 0.47112270E+05</totfact>
</mgrwt>
</event>
<event>
 5    1  0.1696945E+000  0.1021967E+03  0.7546771E-02  0.1275743E+00
         21   -1    0    0  501  502  0.00000000000E+00  0.00000000000E+00  0.19941533435E+03  0.19941533435E+03  0.00000000000E+00 0. -1.
         21   -1    0    0  502  503 -0.00000000000E+00 -0.00000000000E+00 -0.23331855353E+03  0.23331855353E+03  0.00000000000E+00 0.  1.
         24    1    1    2    0    0  0.73099954853E+02  0.29960210046E+02 -0.16773628437E+03  0.20209872497E+03  0.80419002446E+02 0.  1.
          1    1    1    2  501    0 -0.35942788948E+02  0.97868862655E+01  0.16416705672E+03  0.16834039840E+03  0.00000000000E+00 0. -1.
         -2    1    1    2    0  503 -0.37157165905E+02 -0.39747096312E+02 -0.30333991535E+02  0.62294764513E+02  0.00000000000E+00 0.  1.
<mgrwt>
<rscale>  2 0.10219672E+03</rscale>
<asrwt>0</asrwt>
<pdfrwt beam="1">  1       21 0.30679282E-01 0.10219672E+03</pdfrwt>
<pdfrwt beam="2">  1       21 0.35895162E-01 0.10219672E+03</pdfrwt>
<totfact> 0.79490605E+04</totfact>
</mgrwt>
</event>
<event>
 5    1  0.1696945E+000  0.9173311E+02  0.7546771E-02  0.1298708E+00
         21   -1    0    0  501  502  0.00000000000E+00  0.00000000000E+00  0.91177075303E+01  0.91177075303E+01  0.00000000000E+00 0.  1.
         21   -1    0    0  502  503 -0.00000000000E+00 -0.00000000000E+00 -0.12467705489E+04  0.12467705489E+04  0.00000000000E+00 0.  1.
         24    1    1    2    0    0  0.50819061611E+02  0.44141283920E+02 -0.40124670907E+03  0.41472541213E+03  0.80419002446E+02 0.  1.
          1    1    1    2  501    0 -0.29474563577E+02  0.97681982982E-01 -0.14227787453E+03  0.14529884039E+03  0.00000000000E+00 0. -1.
         -2    1    1    2    0  503 -0.21344498034E+02 -0.44238965903E+02 -0.69412825778E+03  0.69586400392E+03  0.00000000000E+00 0.  1.
<mgrwt>
<rscale>  2 0.91733111E+02</rscale>
<asrwt>0</asrwt>
<pdfrwt beam="1">  1       21 0.14027248E-02 0.91733111E+02</pdfrwt>
<pdfrwt beam="2">  1       21 0.19181078E+00 0.91733111E+02</pdfrwt>
<totfact> 0.34701084E+05</totfact>
</mgrwt>
</event>
<event>
 5    1  0.1696945E+000  0.7184405E+02  0.7546771E-02  0.1353932E+00
         21   -1    0    0  503  502  0.00000000000E+00  0.00000000000E+00  0.50412625905E+03  0.50412625905E+03  0.00000000000E+00 0. -1.
         21   -1    0    0  501  503 -0.00000000000E+00 -0.00000000000E+00 -0.29735369530E+02  0.29735369530E+02  0.00000000000E+00 0. -1.
         24    1    1    2    0    0  0.21820278041E+02  0.19210325362E+02  0.30433460831E+03  0.31612012100E+03  0.80419002446E+02 0. -1.
          1    1    1    2  501    0 -0.26986721354E+02  0.97983788432E+01 -0.13577303534E+02  0.31759007048E+02  0.00000000000E+00 0. -1.
         -2    1    1    2    0  502  0.51664433133E+01 -0.29008704205E+02  0.18363358475E+03  0.18598250053E+03  0.00000000000E+00 0.  1.
<mgrwt>
<rscale>  2 0.71844048E+02</rscale>
<asrwt>0</asrwt>
<pdfrwt beam="1">  1       21 0.77557879E-01 0.71844048E+02</pdfrwt>
<pdfrwt beam="2">  1       21 0.45746726E-02 0.71844048E+02</pdfrwt>
<totfact> 0.46872318E+05</totfact>
</mgrwt>
</event>
<event>
 5    1  0.1696945E+000  0.7072174E+02  0.7546771E-02  0.1357656E+00
         21   -1    0    0  503  502  0.00000000000E+00  0.00000000000E+00  0.26961109207E+02  0.26961109207E+02  0.00000000000E+00 0. -1.
         21   -1    0    0  501  503 -0.00000000000E+00 -0.00000000000E+00 -0.20576437235E+03  0.20576437235E+03  0.00000000000E+00 0. -1.
         24    1    1    2    0    0  0.57189721654E+01  0.16813717115E+02 -0.95880399310E+02  0.12639491545E+03  0.80419002446E+02 0. -1.
          1    1    1    2  501    0 -0.18312711987E+02 -0.33501692431E+02 -0.74648884201E+02  0.83846137231E+02  0.00000000000E+00 0. -1.
         -2    1    1    2    0  502  0.12593739822E+02  0.16687975315E+02 -0.82739796292E+01  0.22484428873E+02  0.00000000000E+00 0.  1.
<mgrwt>
<rscale>  2 0.70721743E+02</rscale>
<asrwt>0</asrwt>
<pdfrwt beam="1">  1       21 0.41478630E-02 0.70721743E+02</pdfrwt>
<pdfrwt beam="2">  1       21 0.31656057E-01 0.70721743E+02</pdfrwt>
<totfact> 0.33958392E+06</totfact>
</mgrwt>
</event>
<event>
 5    1  0.1696945E+000  0.8097754E+02  0.7546771E-02  0.1326300E+00
         21   -1    0    0  503  502  0.00000000000E+00  0.00000000000E+00  0.92466490713E+01  0.92466490713E+01  0.00000000000E+00 0. -1.
         21   -1    0    0  501  503 -0.00000000000E+00 -0.00000000000E+00 -0.14122628654E+04  0.14122628654E+04  0.00000000000E+00 0.  1.
         24    1    1    2    0    0  0.26213891321E+02 -0.44381001937E+02 -0.61516915708E+03  0.62254088156E+03  0.80419002446E+02 0.  0.
          1    1    1    2  501    0 -0.26545295557E+02  0.49501477629E+01 -0.71991623466E+03  0.72042247439E+03  0.00000000000E+00 0. -1.
         -2    1    1    2    0  502  0.33140423590E+00  0.39430854174E+02 -0.67930824579E+02  0.78546158516E+02  0.00000000000E+00 0.  1.
<mgrwt>
<rscale>  2 0.80977540E+02</rscale>
<asrwt>0</asrwt>
<pdfrwt beam="1">  1       21 0.14225615E-02 0.80977540E+02</pdfrwt>
<pdfrwt beam="2">  1       21 0.21727120E+00 0.80977540E+02</pdfrwt>
<totfact> 0.23951130E+05</totfact>
</mgrwt>
</event>
<event>
 5    1  0.1696945E+000  0.6676559E+02  0.7546771E-02  0.1371450E+00
         21   -1    0    0  503  502  0.00000000000E+00  0.00000000000E+00  0.42002149650E+02  0.42002149650E+02  0.00000000000E+00 0. -1.
         21   -1    0    0  501  503 -0.00000000000E+00 -0.00000000000E+00 -0.10652364515E+03  0.10652364515E+03  0.00000000000E+00 0.  1.
         24    1    1    2    0    0 -0.40807955751E+02 -0.57792998846E+01 -0.42194367747E+02  0.99730989084E+02  0.80419002446E+02 0.  0.
          1    1    1    2  501    0  0.20892557818E+02  0.94239484829E+01 -0.14303858306E+02  0.27016849180E+02  0.00000000000E+00 0. -1.
         -2    1    1    2    0  502  0.19915397932E+02 -0.36446485983E+01 -0.80232694466E+01  0.21777956534E+02  0.00000000000E+00 0.  1.
<mgrwt>
<rscale>  2 0.66765593E+02</rscale>
<asrwt>0</asrwt>
<pdfrwt beam="1">  1       21 0.64618694E-02 0.66765593E+02</pdfrwt>
<pdfrwt beam="2">  1       21 0.16388253E-01 0.66765593E+02</pdfrwt>
<totfact> 0.54547377E+06</totfact>
</mgrwt>
</event>
